Title
81404
    1CHL1    C3    1   3.795   3.869   9.645  0.5209 -0.0007 -0.4952
    1CHL1    H3    2   3.827   3.763   9.654 -0.7845 -0.4197 -0.6146
    1CHL1    O3    3   3.811   3.937   9.766  0.3202 -0.2414  0.6968
    1CHL1   H3'    4   3.809   4.030   9.746 -0.3010 -0.1153  1.3319
    1CHL1    C4    5   3.885   3.937   9.542 -0.3512 -0.5081  0.4573
    1CHL1   H4A    6   3.869   4.047   9.550 -0.2661 -0.2938 -1.9606
    1CHL1   H4B    7   3.992   3.920   9.563  0.2052  3.2818  1.1165
    1CHL1    C5    8   3.850   3.894   9.402  0.1615 -0.1330 -0.1937
    1CHL1    C6    9   3.947   3.834   9.334 -0.5082  0.3650 -0.1271
    1CHL1    H6   10   4.046   3.824   9.381 -1.1095 -1.7471  0.7559
    1CHL1    C7   11   3.928   3.762   9.199 -0.0412 -0.0258  0.0305
    1CHL1   H7A   12   4.015   3.790   9.135  0.1779 -0.8083 -0.0265
    1CHL1   H7B   13   3.925   3.653   9.218  0.3311 -0.5467 -2.7796
    1CHL1    C8   14   3.794   3.810   9.127 -0.1164 -0.0616  0.2912
    1CHL1    H8   15   3.800   3.915   9.092 -2.0988 -0.6291 -1.8822
    1CHL1   C14   16   3.752   3.727   9.008  0.3611 -0.0082  0.2781
    1CHL1   H14   17   3.737   3.621   9.037 -1.8938 -0.1055 -1.0985
    1CHL1   C15   18   3.858   3.702   8.899 -0.3913 -0.5636 -0.2181
    1CHL1  H15A   19   3.915   3.797   8.888 -2.9654  0.9720 -0.5532
    1CHL1  H15B   20   3.932   3.622   8.920 -0.8552 -1.6269 -2.4808
    1CHL1   C16   21   3.781   3.656   8.774 -0.0157 -1.2736 -0.2023
    1CHL1  H16A   22   3.804   3.720   8.686 -1.2725  1.5608  1.4370
    1CHL1  H16B   23   3.809   3.552   8.752 -1.4133 -1.6461 -0.3107
    1CHL1   C17   24   3.630   3.673   8.806  0.3174  0.5964 -0.5109
    1CHL1   H17   25   3.601   3.576   8.852 -0.5812  1.2080  0.2347
    1CHL1   C13   26   3.628   3.770   8.928 -0.2018  0.7356  0.4537
    1CHL1   C18   27   3.644   3.919   8.876  0.7373  0.4805 -0.2288
    1CHL1  H18A   28   3.734   3.932   8.812  0.4285 -1.6503 -1.1723
    1CHL1  H18B   29   3.544   3.957   8.845  0.2408 -0.4555  0.1916
    1CHL1  H18C   30   3.661   3.990   8.959 -1.3421  2.5486 -1.4933
    1CHL1   C12   31   3.515   3.747   9.032  0.2676  0.3369  0.6331
    1CHL1  H12A   32   3.416   3.762   8.984 -0.5036  0.7331  2.3090
    1CHL1  H12B   33   3.515   3.639   9.058 -1.6222 -0.7833 -3.5373
    1CHL1   C11   34   3.538   3.831   9.164 -0.5653  0.3478  0.4137
    1CHL1  H11A   35   3.527   3.939   9.140 -0.0925 -0.5129 -4.1719
    1CHL1  H11B   36   3.459   3.790   9.231  1.4026  0.4711  2.9105
    1CHL1    C9   37   3.677   3.807   9.228  0.0874  0.3520  0.4653
    1CHL1    H9   38   3.684   3.703   9.265 -1.4611  0.6532  1.6403
    1CHL1   C10   39   3.709   3.894   9.361  0.0453  0.8110  0.4246
    1CHL1   C19   40   3.670   4.042   9.324  0.3896  0.4015  0.4352
    1CHL1  H19A   41   3.690   4.116   9.404 -0.9607  1.7532 -0.4347
    1CHL1  H19B   42   3.719   4.067   9.227  1.0705 -3.0888 -0.1655
    1CHL1  H19C   43   3.561   4.058   9.306  0.4977  0.0363 -0.5762
    1CHL1    C1   44   3.620   3.840   9.472  0.9487  0.2186  0.5671
    1CHL1   H1A   45   3.515   3.865   9.449  1.4806  1.1316 -0.8708
    1CHL1   H1B   46   3.628   3.729   9.482 -0.1465  0.0323 -0.6014
    1CHL1    C2   47   3.651   3.896   9.610  0.3426  0.7152 -0.5815
    1CHL1   H2A   48   3.577   3.856   9.682  0.2622 -0.5946 -1.3720
    1CHL1   H2B   49   3.639   4.006   9.609  0.8051  0.7713  0.0591
    1CHL1   C20   50   3.547   3.706   8.684  0.1890 -0.3435  0.1402
    1CHL1   H20   51   3.579   3.807   8.651  2.4328 -1.2580 -0.5994
    1CHL1   C21   52   3.391   3.707   8.719  0.5679 -0.4273  0.4725
    1CHL1  H21A   53   3.359   3.796   8.777  2.3266 -0.7600  1.9769
    1CHL1  H21B   54   3.369   3.611   8.769  0.0049 -1.7220 -2.1443
    1CHL1  H21C   55   3.338   3.720   8.622  2.7961 -1.3551 -0.9027
    1CHL1   C22   56   3.590   3.618   8.563  0.1946  0.3019  0.6187
    1CHL1  H22A   57   3.699   3.624   8.544 -0.4083  1.1887 -2.8997
    1CHL1  H22B   58   3.557   3.514   8.582  1.8137 -0.1408  1.0354
    1CHL1   C23   59   3.518   3.667   8.439  0.7319  0.4007 -0.6369
    1CHL1  H23A   60   3.408   3.658   8.430  0.7071 -0.2671  0.3038
    1CHL1  H23B   61   3.541   3.775   8.422 -0.2208  0.4015 -2.0321
    1CHL1   C24   62   3.580   3.596   8.314  0.0299  0.3480 -0.4843
    1CHL1  H24A   63   3.691   3.609   8.318  0.3543 -2.0545 -1.0009
    1CHL1  H24B   64   3.555   3.488   8.321 -1.6293  0.6705 -1.2216
    1CHL1   C25   65   3.538   3.644   8.181 -0.3076 -0.4838  0.2050
    1CHL1   H25   66   3.571   3.747   8.153 -2.2141 -0.1648 -0.8848
    1CHL1   C26   67   3.622   3.542   8.090 -0.2360  0.3013  0.4249
    1CHL1  H26A   68   3.725   3.583   8.089  1.0531 -2.8022 -1.2676
    1CHL1  H26B   69   3.627   3.436   8.121 -1.6285  0.1561  0.1748
    1CHL1  H26C   70   3.588   3.555   7.985 -0.8765 -1.2035  0.4394
    1CHL1   C27   71   3.386   3.635   8.150  0.9990  0.3653  0.5354
    1CHL1  H27A   72   3.335   3.537   8.163 -1.4109  1.6474  1.0283
    1CHL1  H27B   73   3.334   3.706   8.218  0.4172 -1.0713  1.6248
    1CHL1  H27C   74   3.362   3.667   8.047 -0.0131  1.6053  1.1432
    2CHL1    C3   75   3.193   2.568   9.595  0.3475 -0.8404  0.4664
    2CHL1    H3   76   3.100   2.589   9.540  0.1635  1.9393  1.7617
    2CHL1    O3   77   3.182   2.596   9.737  0.8458 -0.2613 -0.0681
    2CHL1   H3'   78   3.166   2.690   9.747 -1.1817 -0.6134  0.0920
    2CHL1    C4   79   3.235   2.416   9.580 -0.3091 -0.6982 -0.3029
    2CHL1   H4A   80   3.327   2.410   9.643 -0.9071  1.0635  0.7538
    2CHL1   H4B   81   3.152   2.360   9.628 -1.5903  0.5152 -1.0779
    2CHL1    C5   82   3.259   2.376   9.432  0.5658 -0.3438 -0.0345
    2CHL1    C6   83   3.191   2.286   9.366 -0.0397  0.1545 -0.0676
    2CHL1    H6   84   3.116   2.230   9.425 -0.0795  0.6037  0.3082
    2CHL1    C7   85   3.213   2.241   9.222  0.0359  0.6549  0.2314
    2CHL1   H7A   86   3.228   2.131   9.220 -2.7737  0.2253  0.5603
    2CHL1   H7B   87   3.123   2.272   9.166  0.8994  2.5559 -0.1521
    2CHL1    C8   88   3.331   2.307   9.150  0.3133  0.4952  0.4555
    2CHL1    H8   89   3.423   2.249   9.172  0.9994  0.6433 -1.8122
    2CHL1   C14   90   3.308   2.301   9.003 -1.3343  0.2269 -0.1014
    2CHL1   H14   91   3.210   2.350   8.983 -1.7945 -0.0707  1.3492
    2CHL1   C15   92   3.305   2.160   8.941 -0.4998 -0.3676  0.5096
    2CHL1  H15A   93   3.383   2.090   8.977  1.2182  1.5212  0.5300
    2CHL1  H15B   94   3.214   2.100   8.962  0.8332 -1.7377  2.5017
    2CHL1   C16   95   3.334   2.183   8.791 -0.4218  0.0500 -0.1227
    2CHL1  H16A   96   3.419   2.120   8.757  0.1794  1.3406 -1.0342
    2CHL1  H16B   97   3.241   2.151   8.738 -0.4560 -0.3202  0.1528
    2CHL1   C17   98   3.370   2.334   8.774 -0.1924 -0.4782 -0.2235
    2CHL1   H17   99   3.276   2.393   8.761 -0.7266 -1.2300  0.2119
    2CHL1   C13  100   3.418   2.369   8.924  0.1637 -0.1272 -0.0495
    2CHL1   C18  101   3.555   2.305   8.954  0.2653 -0.2269  0.0455
    2CHL1  H18A  102   3.590   2.312   9.059  1.0353 -1.6597 -0.0990
    2CHL1  H18B  103   3.552   2.200   8.918 -1.3763  0.2493 -1.2576
    2CHL1  H18C  104   3.625   2.356   8.885 -0.1520 -0.5466 -0.6245
    2CHL1   C12  105   3.420   2.517   8.963 -0.1380  0.5461 -0.6302
    2CHL1  H12A  106   3.510   2.560   8.914  1.2998 -0.2701  1.2318
    2CHL1  H12B  107   3.327   2.573   8.941 -1.0099  0.2501  2.1615
    2CHL1   C11  108   3.446   2.537   9.116  0.1769  0.5358  0.0599
    2CHL1  H11A  109   3.550   2.511   9.144 -0.1304 -0.3985  0.3466
    2CHL1  H11B  110   3.438   2.644   9.143  2.4334  0.7072  0.1081
    2CHL1    C9  111   3.339   2.451   9.195 -0.4970  0.2092  0.3619
    2CHL1    H9  112   3.237   2.496   9.185 -0.4573  0.1877 -0.1274
    2CHL1   C10  113   3.353   2.470   9.350  0.0831 -0.4398 -0.1098
    2CHL1   C19  114   3.495   2.437   9.397 -0.3905  0.3456 -0.2491
    2CHL1  H19A  115   3.570   2.514   9.370 -0.0177  0.2605  0.5105
    2CHL1  H19B  116   3.505   2.436   9.508 -0.3442 -0.7987 -0.2544
    2CHL1  H19C  117   3.540   2.344   9.355  0.4355  0.2860  0.7493
    2CHL1    C1  118   3.321   2.615   9.392  0.4411  0.2169  0.1381
    2CHL1   H1A  119   3.394   2.680   9.339  1.2769 -2.8218 -2.6527
    2CHL1   H1B  120   3.221   2.636   9.348 -0.9072 -6.7090 -0.7233
    2CHL1    C2  121   3.308   2.654   9.536  0.5398  0.0269 -0.3024
    2CHL1   H2A  122   3.270   2.758   9.541  2.0092  0.6286 -1.4023
    2CHL1   H2B  123   3.403   2.651   9.593  0.9961  0.3696 -1.0443
    2CHL1   C20  124   3.465   2.355   8.653 -0.4560 -0.1737 -0.4901
    2CHL1   H20  125   3.555   2.291   8.658 -0.6124 -0.5610 -2.1467
    2CHL1   C21  126   3.505   2.501   8.642 -0.0850 -0.3277 -0.5088
    2CHL1  H21A  127   3.412   2.559   8.658 -0.0077 -0.9631  2.5599
    2CHL1  H21B  128   3.551   2.531   8.545  0.4654  0.2096 -0.0892
    2CHL1  H21C  129   3.575   2.536   8.722 -0.1391 -0.7916 -0.2582
    2CHL1   C22  130   3.403   2.313   8.518  0.5074  0.4131 -0.2138
    2CHL1  H22A  131   3.386   2.203   8.522 -1.5529  0.7086 -0.4908
    2CHL1  H22B  132   3.308   2.363   8.489 -0.6744 -2.7096 -1.9659
    2CHL1   C23  133   3.493   2.333   8.388 -0.2070  0.5040 -0.3566
    2CHL1  H23A  134   3.497   2.439   8.355 -0.6881  1.1448  1.5766
    2CHL1  H23B  135   3.597   2.301   8.410 -1.3765 -2.4480  1.0716
    2CHL1   C24  136   3.446   2.245   8.267 -0.5891 -0.5406  0.5663
    2CHL1  H24A  137   3.421   2.143   8.304 -1.3736 -1.1102 -1.4647
    2CHL1  H24B  138   3.346   2.272   8.226 -0.0867 -2.8672 -2.3640
    2CHL1   C25  139   3.537   2.223   8.146  1.4211  0.2081 -0.1672
    2CHL1   H25  140   3.632   2.179   8.183  1.0814 -2.7581 -2.6197
    2CHL1   C26  141   3.465   2.127   8.047 -0.0924 -0.8528  0.0337
    2CHL1  H26A  142   3.368   2.178   8.031  1.0342  1.7637  1.2458
    2CHL1  H26B  143   3.532   2.110   7.959 -0.6519 -3.2617  0.0413
    2CHL1  H26C  144   3.452   2.030   8.099 -0.4678 -0.9749 -0.2861
    2CHL1   C27  145   3.562   2.351   8.064  0.0469  0.4444 -0.3492
    2CHL1  H27A  146   3.475   2.376   8.000 -0.7929  0.3009  0.7290
    2CHL1  H27B  147   3.587   2.435   8.132  0.3222  1.9653 -2.2753
    2CHL1  H27C  148   3.649   2.334   7.997  1.0170  0.9310  0.7583
    3CHL1    C3  149   5.639   2.959   9.624 -0.3828 -0.0008 -0.3541
    3CHL1    H3  150   5.618   2.850   9.624  0.7972 -0.2576 -2.2740
    3CHL1    O3  151   5.723   2.995   9.728  0.5294 -0.2868  0.6136
    3CHL1   H3'  152   5.727   3.091   9.729  0.2290 -0.2554 -0.5254
    3CHL1    C4  153   5.713   2.985   9.492  0.6355 -0.4407  0.3435
    3CHL1   H4A  154   5.756   3.088   9.492  1.0692 -0.6173 -0.1370
    3CHL1   H4B  155   5.794   2.909   9.496 -0.6000 -1.9261 -1.8268
    3CHL1    C5  156   5.631   2.956   9.365  0.1860 -0.2293 -0.6332
    3CHL1    C6  157   5.684   2.886   9.264  0.6976 -0.1543 -0.2934
    3CHL1    H6  158   5.787   2.846   9.272 -0.0110 -2.1178 -0.6039
    3CHL1    C7  159   5.616   2.854   9.140 -0.8676  0.2611  0.2849
    3CHL1   H7A  160   5.674   2.882   9.050  0.4046 -0.6995  0.7851
    3CHL1   H7B  161   5.589   2.746   9.132  3.0673 -0.7657 -0.5138
    3CHL1    C8  162   5.487   2.947   9.121  0.5205 -0.6043 -0.7485
    3CHL1    H8  163   5.516   3.046   9.079 -2.1078  1.1295  1.3277
    3CHL1   C14  164   5.395   2.882   9.019 -0.0618  0.4432 -0.2527
    3CHL1   H14  165   5.364   2.788   9.068 -4.2383  1.2745 -1.0749
    3CHL1   C15  166   5.459   2.829   8.881 -0.3853  0.2117 -0.4328
    3CHL1  H15A  167   5.524   2.900   8.825  0.5845 -0.4117 -0.1156
    3CHL1  H15B  168   5.521   2.739   8.900  1.2812  1.1442 -1.2987
    3CHL1   C16  169   5.333   2.800   8.799  0.2867 -0.4647  0.1046
    3CHL1  H16A  170   5.360   2.837   8.698  1.0910 -0.4381  0.3286
    3CHL1  H16B  171   5.319   2.691   8.785 -1.0264 -0.4096  0.8975
    3CHL1   C17  172   5.212   2.869   8.871  0.2641  0.1468 -0.1576
    3CHL1   H17  173   5.161   2.791   8.931  1.5798 -0.9785 -0.4689
    3CHL1   C13  174   5.273   2.962   8.977 -0.3924 -0.0603  0.3727
    3CHL1   C18  175   5.308   3.089   8.901  0.5871  0.1460  0.5552
    3CHL1  H18A  176   5.373   3.153   8.965 -0.3001  2.5190 -0.8677
    3CHL1  H18B  177   5.356   3.067   8.803  0.2360  0.5384  0.2997
    3CHL1  H18C  178   5.218   3.149   8.878 -1.5413 -3.0597  0.1440
    3CHL1   C12  179   5.192   2.978   9.104 -0.4602  0.4654  0.3475
    3CHL1  H12A  180   5.096   3.027   9.077  0.5822  0.7611 -3.1661
    3CHL1  H12B  181   5.152   2.885   9.148  1.9346  0.3977  2.4547
    3CHL1   C11  182   5.268   3.034   9.219  0.0633  0.4967 -0.3756
    3CHL1  H11A  183   5.292   3.140   9.195 -1.5176  0.8204 -0.5428
    3CHL1  H11B  184   5.207   3.034   9.312 -1.8706 -1.2695 -1.6005
    3CHL1    C9  185   5.405   2.963   9.251  0.5211 -0.6384  0.9108
    3CHL1    H9  186   5.379   2.858   9.277 -1.6315 -0.8072 -1.7003
    3CHL1   C10  187   5.488   3.022   9.370  0.4570 -0.0357 -0.8600
    3CHL1   C19  188   5.499   3.173   9.363 -0.0410  0.4231  0.7790
    3CHL1  H19A  189   5.529   3.211   9.263 -1.0605 -0.8375 -0.0161
    3CHL1  H19B  190   5.399   3.216   9.382 -1.2171 -1.5657 -0.7535
    3CHL1  H19C  191   5.567   3.219   9.438  0.6318  0.3833  0.2082
    3CHL1    C1  192   5.418   2.994   9.504 -0.1353 -0.3640 -0.0235
    3CHL1   H1A  193   5.321   3.049   9.499 -0.0129  0.1898  2.8230
    3CHL1   H1B  194   5.403   2.884   9.504  0.0006 -0.3825 -0.2387
    3CHL1    C2  195   5.505   3.034   9.632  0.9495  0.3996  0.2267
    3CHL1   H2A  196   5.452   2.996   9.722 -0.5995  1.4812 -0.2085
    3CHL1   H2B  197   5.523   3.142   9.649 -0.9308  0.6871  0.5337
    3CHL1   C20  198   5.115   2.922   8.768  0.1549 -0.1218 -0.0194
    3CHL1   H20  199   5.166   2.996   8.704  0.3219 -0.4983 -0.3204
    3CHL1   C21  200   4.985   2.976   8.834  0.6493  0.1603  0.6869
    3CHL1  H21A  201   4.919   3.026   8.760 -0.9290  0.4762  2.2630
    3CHL1  H21B  202   5.005   3.047   8.917  0.1753 -0.9543  1.7735
    3CHL1  H21C  203   4.928   2.889   8.874 -0.7448  0.3856 -0.7613
    3CHL1   C22  204   5.076   2.802   8.673  0.0494  0.4639 -0.2598
    3CHL1  H22A  205   5.165   2.750   8.632 -0.1660  1.0517 -1.4821
    3CHL1  H22B  206   5.019   2.727   8.731  0.9224  1.4590  1.9907
    3CHL1   C23  207   5.005   2.843   8.540  0.0052  0.0470 -0.1542
    3CHL1  H23A  208   4.905   2.874   8.578 -0.6985 -0.3742 -1.6112
    3CHL1  H23B  209   5.057   2.917   8.476 -0.8582 -1.1347 -2.3071
    3CHL1   C24  210   4.980   2.715   8.461  0.8484 -0.2353 -0.3136
    3CHL1  H24A  211   5.076   2.659   8.453 -0.3741 -2.1827 -1.5657
    3CHL1  H24B  212   4.907   2.646   8.508 -0.6827  1.3353 -0.3527
    3CHL1   C25  213   4.921   2.745   8.316  0.3861  0.6155  0.4810
    3CHL1   H25  214   4.838   2.819   8.322 -0.8144 -0.4770 -2.2100
    3CHL1   C26  215   5.020   2.807   8.221 -0.7745 -0.1308  0.3171
    3CHL1  H26A  216   5.070   2.901   8.252 -1.6037  0.1273  0.8970
    3CHL1  H26B  217   5.100   2.735   8.195 -2.5505 -1.5576 -1.3243
    3CHL1  H26C  218   4.963   2.822   8.127 -0.0935  2.2404  0.2493
    3CHL1   C27  219   4.860   2.622   8.258  0.1745 -0.0346  0.1510
    3CHL1  H27A  220   4.940   2.545   8.266  1.3067  0.8464 -2.2732
    3CHL1  H27B  221   4.769   2.584   8.311  2.1384 -3.1857  1.4308
    3CHL1  H27C  222   4.841   2.628   8.149  0.8284 -3.6044 -0.2226
    4CHL1    C3  223   4.909   3.390   9.831  0.8693  0.0348  0.4782
    4CHL1    H3  224   4.803   3.374   9.804  0.6491 -0.0984  1.4187
    4CHL1    O3  225   4.910   3.366   9.971  0.0277  0.4369  0.1830
    4CHL1   H3'  226   5.003   3.385   9.984  0.1229 -0.7574  1.3262
    4CHL1    C4  227   5.001   3.291   9.752 -0.1839 -0.3131 -0.9122
    4CHL1   H4A  228   5.105   3.285   9.791 -1.9072 -0.4838  4.0064
    4CHL1   H4B  229   4.953   3.197   9.787  0.4227 -0.2414  0.1452
    4CHL1    C5  230   4.993   3.317   9.604  0.0804 -0.9126 -0.9403
    4CHL1    C6  231   4.962   3.222   9.512 -0.3797  0.3912 -0.4141
    4CHL1    H6  232   4.945   3.118   9.544  0.9713  0.3600  0.2327
    4CHL1    C7  233   4.949   3.248   9.370  0.1581 -0.0256  0.1913
    4CHL1   H7A  234   4.993   3.167   9.308 -0.5871 -0.4492  0.2155
    4CHL1   H7B  235   4.844   3.263   9.336  0.0274 -2.1200 -0.4093
    4CHL1    C8  236   5.023   3.380   9.330 -0.1109  0.0058  0.7692
    4CHL1    H8  237   5.132   3.360   9.335  0.1654  0.9321 -1.1191
    4CHL1   C14  238   4.988   3.415   9.188  0.5041 -0.0763  0.3943
    4CHL1   H14  239   4.878   3.428   9.184 -0.2312 -4.7767  1.8238
    4CHL1   C15  240   5.000   3.303   9.078  0.0374 -0.1924 -0.4279
    4CHL1  H15A  241   5.094   3.248   9.097 -0.6266 -1.5454 -0.9741
    4CHL1  H15B  242   4.919   3.227   9.076  0.0911 -0.2383 -2.9177
    4CHL1   C16  243   5.001   3.381   8.947 -0.6551  0.4488  0.1599
    4CHL1  H16A  244   5.090   3.353   8.887 -1.7014 -0.3498 -1.0454
    4CHL1  H16B  245   4.905   3.355   8.897 -0.1174 -2.6221  0.6079
    4CHL1   C17  246   5.010   3.527   8.982 -0.5124 -0.0531 -0.5186
    4CHL1   H17  247   4.901   3.550   8.983  0.0039  2.4942  0.2447
    4CHL1   C13  248   5.065   3.537   9.128 -0.3213  0.6678  0.1687
    4CHL1   C18  249   5.215   3.513   9.125  0.0543 -0.0195  0.4655
    4CHL1  H18A  250   5.271   3.607   9.105  2.3965 -1.2342  1.1532
    4CHL1  H18B  251   5.264   3.477   9.218  0.9897  0.2026  0.0668
    4CHL1  H18C  252   5.237   3.442   9.042  1.2623 -2.3335  2.6918
    4CHL1   C12  253   5.022   3.663   9.212  0.1007 -0.5004 -0.0517
    4CHL1  H12A  254   5.082   3.744   9.165  1.7642 -1.2203  0.7930
    4CHL1  H12B  255   4.913   3.681   9.203 -0.3466 -2.7004  0.6196
    4CHL1   C11  256   5.047   3.634   9.360  0.3125 -0.2536 -0.3919
    4CHL1  H11A  257   5.157   3.648   9.365  0.4086 -0.5199 -1.6062
    4CHL1  H11B  258   4.998   3.721   9.408  1.6769 -0.2474  1.0435
    4CHL1    C9  259   4.985   3.498   9.415 -0.6142  0.1916  0.2659
    4CHL1    H9  260   4.878   3.518   9.397 -0.1120  1.3210 -1.6370
    4CHL1   C10  261   5.018   3.465   9.561 -0.5165 -0.2568 -0.4222
    4CHL1   C19  262   5.171   3.500   9.579  0.2132  0.5125  0.1944
    4CHL1  H19A  263   5.212   3.477   9.479  0.5148  1.2466  0.1438
    4CHL1  H19B  264   5.184   3.608   9.601  1.9969  0.2291  0.6420
    4CHL1  H19C  265   5.222   3.440   9.658 -2.8965 -0.5958  1.4077
    4CHL1    C1  266   4.925   3.550   9.650  0.2151  0.5064 -0.0564
    4CHL1   H1A  267   4.930   3.658   9.628  1.1398 -0.0421 -2.6133
    4CHL1   H1B  268   4.819   3.520   9.635  0.3046 -0.4867  1.1048
    4CHL1    C2  269   4.951   3.531   9.794  0.1272 -0.8725 -0.4837
    4CHL1   H2A  270   4.872   3.591   9.843 -0.5393  0.5898 -3.2515
    4CHL1   H2B  271   5.051   3.568   9.825 -0.2883 -1.3079  1.4234
    4CHL1   C20  272   5.069   3.606   8.870  0.5712  0.0658 -0.0611
    4CHL1   H20  273   5.177   3.581   8.860  0.6668 -0.0120  1.1773
    4CHL1   C21  274   5.076   3.753   8.909  0.3623 -0.1093 -0.0118
    4CHL1  H21A  275   4.974   3.774   8.947  0.4336 -0.4815  0.3904
    4CHL1  H21B  276   5.102   3.820   8.823 -2.3586 -1.5952 -2.0494
    4CHL1  H21C  277   5.158   3.760   8.984  2.1221 -0.5293 -1.8418
    4CHL1   C22  278   5.010   3.572   8.726 -0.0621  0.5266 -0.4594
    4CHL1  H22A  279   5.023   3.466   8.696  1.7115  0.0977  1.7469
    4CHL1  H22B  280   4.899   3.584   8.729 -0.0439  0.4567  1.2947
    4CHL1   C23  281   5.069   3.658   8.609  0.4010 -0.1323  0.6999
    4CHL1  H23A  282   5.055   3.768   8.619  0.2877  0.1076 -1.8983
    4CHL1  H23B  283   5.180   3.651   8.607  0.3624 -0.3397 -1.1018
    4CHL1   C24  284   5.019   3.618   8.471 -0.1151 -0.2341 -0.0735
    4CHL1  H24A  285   5.056   3.515   8.458 -0.7850 -0.2486 -2.1395
    4CHL1  H24B  286   4.908   3.619   8.464 -0.2377 -0.0290  1.6733
    4CHL1   C25  287   5.051   3.714   8.344  0.5401 -0.4551  0.5992
    4CHL1   H25  288   5.030   3.819   8.372 -1.1511 -0.1584 -1.6820
    4CHL1   C26  289   5.203   3.714   8.325 -0.3727  0.6056 -0.2744
    4CHL1  H26A  290   5.243   3.611   8.311  0.4686  0.9867 -0.7182
    4CHL1  H26B  291   5.234   3.777   8.240  2.4172 -1.3943 -0.8270
    4CHL1  H26C  292   5.251   3.752   8.418  0.9520  0.7865 -1.0222
    4CHL1   C27  293   4.969   3.686   8.216 -0.9067  0.6338  0.6814
    4CHL1  H27A  294   4.859   3.682   8.233 -0.7161 -0.5584  1.7206
    4CHL1  H27B  295   4.994   3.766   8.144 -2.5869  1.5587  1.0929
    4CHL1  H27C  296   5.001   3.588   8.175  0.0861 -0.2404  3.3982
    5CHL1    C3  297   4.681   2.769   9.827  0.7478 -0.0832 -0.4252
    5CHL1    H3  298   4.745   2.691   9.873 -0.6512 -1.3031 -0.5413
    5CHL1    O3  299   4.598   2.837   9.926  0.7960 -0.4305  0.3933
    5CHL1   H3'  300   4.559   2.911   9.879 -0.1672 -2.3446 -1.9282
    5CHL1    C4  301   4.783   2.866   9.759 -0.1064 -0.1335 -0.7139
    5CHL1   H4A  302   4.742   2.961   9.720 -2.1621  0.2281  2.1459
    5CHL1   H4B  303   4.850   2.903   9.839 -0.8367 -1.2248  0.4274
    5CHL1    C5  304   4.859   2.778   9.652 -0.0860  0.3758  0.5382
    5CHL1    C6  305   4.995   2.772   9.645 -0.0111  0.6262 -0.4770
    5CHL1    H6  306   5.043   2.835   9.723  0.4431  0.9920 -1.0459
    5CHL1    C7  307   5.078   2.697   9.535 -0.2675 -0.2957 -0.4759
    5CHL1   H7A  308   5.161   2.762   9.503 -0.3634 -0.0898 -0.3055
    5CHL1   H7B  309   5.121   2.607   9.583  0.4466  0.5631  0.5001
    5CHL1    C8  310   4.986   2.662   9.418 -0.4605 -0.0139  0.0281
    5CHL1    H8  311   4.972   2.759   9.365 -1.0934  0.0148  0.2495
    5CHL1   C14  312   5.052   2.552   9.326  0.6822  0.2214  0.2165
    5CHL1   H14  313   5.054   2.465   9.395 -1.3396 -1.2317 -1.4983
    5CHL1   C15  314   5.199   2.573   9.281  0.2038  0.4537 -0.2870
    5CHL1  H15A  315   5.215   2.680   9.256  1.3768  0.1875 -0.7223
    5CHL1  H15B  316   5.266   2.554   9.368 -1.1548  3.8602  1.6038
    5CHL1   C16  317   5.213   2.479   9.163  0.7391 -0.2134  0.2918
    5CHL1  H16A  318   5.244   2.551   9.085 -4.0275  1.5544 -0.1193
    5CHL1  H16B  319   5.280   2.391   9.171  1.8812  0.6748  0.6255
    5CHL1   C17  320   5.074   2.421   9.131  0.6733 -0.6234  0.8303
    5CHL1   H17  321   5.067   2.325   9.187 -3.6140 -0.3489  0.9142
    5CHL1   C13  322   4.974   2.512   9.203 -0.2048  0.9236 -0.7451
    5CHL1   C18  323   4.964   2.646   9.113 -0.0422  0.2801  0.5308
    5CHL1  H18A  324   4.916   2.734   9.161 -0.9049 -1.0249  2.1229
    5CHL1  H18B  325   5.060   2.690   9.079 -0.4631  0.4970 -0.3911
    5CHL1  H18C  326   4.895   2.620   9.031  0.3111 -0.3658  0.4278
    5CHL1   C12  327   4.842   2.454   9.240 -0.1708 -0.5385  0.7331
    5CHL1  H12A  328   4.788   2.434   9.145  2.0835 -1.9568 -0.2992
    5CHL1  H12B  329   4.866   2.358   9.291  0.5482  1.1844  3.7537
    5CHL1   C11  330   4.764   2.559   9.331 -0.8308  0.0288  0.0569
    5CHL1  H11A  331   4.742   2.643   9.263 -1.3326 -1.1291 -1.2328
    5CHL1  H11B  332   4.676   2.501   9.366 -1.9185 -0.2888 -3.0834
    5CHL1    C9  333   4.846   2.613   9.451 -0.3398 -0.0442  0.0971
    5CHL1    H9  334   4.879   2.528   9.514 -0.8382 -0.2554  0.0677
    5CHL1   C10  335   4.764   2.714   9.539  0.1919  0.2413 -0.7977
    5CHL1   C19  336   4.709   2.827   9.457 -0.1565  0.1291  0.4360
    5CHL1  H19A  337   4.792   2.863   9.391  1.3247 -1.4593  1.3894
    5CHL1  H19B  338   4.619   2.801   9.397  0.5665 -1.9281  0.1930
    5CHL1  H19C  339   4.678   2.915   9.516  1.6014  0.3100  1.1346
    5CHL1    C1  340   4.646   2.643   9.610  0.8472  0.2456  0.1622
    5CHL1   H1A  341   4.570   2.610   9.535  0.6058  0.1444  0.4537
    5CHL1   H1B  342   4.675   2.542   9.647  0.2670 -0.0712 -0.2315
    5CHL1    C2  343   4.580   2.715   9.718  0.5758  0.1498  0.2119
    5CHL1   H2A  344   4.506   2.651   9.772 -1.4485  1.8341 -0.5245
    5CHL1   H2B  345   4.526   2.804   9.679 -0.3581 -0.9639 -1.0869
    5CHL1   C20  346   5.053   2.400   8.978 -0.1326 -0.1348 -0.0223
    5CHL1   H20  347   5.062   2.501   8.932 -2.7315  1.0089  1.8502
    5CHL1   C21  348   4.916   2.334   8.949  0.5041 -0.0395 -0.2602
    5CHL1  H21A  349   4.829   2.403   8.944  1.1212  0.6690 -1.4470
    5CHL1  H21B  350   4.904   2.262   9.033  0.1802 -0.0147 -0.2828
    5CHL1  H21C  351   4.913   2.284   8.850 -4.0560  1.4250 -1.0007
    5CHL1   C22  352   5.163   2.304   8.921  0.4391 -0.0184  0.3934
    5CHL1  H22A  353   5.249   2.294   8.991  1.2493 -0.2608 -0.6175
    5CHL1  H22B  354   5.141   2.197   8.904  0.7111  0.3358 -2.4610
    5CHL1   C23  355   5.225   2.362   8.790 -0.2956 -0.1336 -0.4926
    5CHL1  H23A  356   5.143   2.381   8.717 -0.4450 -2.5379 -0.9951
    5CHL1  H23B  357   5.279   2.455   8.815 -0.6577 -0.1901  0.5281
    5CHL1   C24  358   5.321   2.263   8.717 -0.3509 -0.1366 -0.0138
    5CHL1  H24A  359   5.401   2.240   8.790  0.3732 -0.2769 -0.8428
    5CHL1  H24B  360   5.254   2.180   8.686 -2.5730  1.8320 -0.7387
    5CHL1   C25  361   5.387   2.319   8.589 -0.9399  0.0420  0.4873
    5CHL1   H25  362   5.468   2.247   8.563  0.7743  2.0591  0.1472
    5CHL1   C26  363   5.290   2.317   8.469 -0.0110  0.4803 -0.5855
    5CHL1  H26A  364   5.343   2.320   8.372 -1.8983 -0.0938 -1.6582
    5CHL1  H26B  365   5.235   2.221   8.461  0.1758  0.4474 -1.4840
    5CHL1  H26C  366   5.218   2.401   8.457 -0.3116  0.1633 -0.9865
    5CHL1   C27  367   5.457   2.451   8.597  0.7148 -0.3466  0.3942
    5CHL1  H27A  368   5.398   2.543   8.618  0.7246 -0.7724  2.3520
    5CHL1  H27B  369   5.524   2.451   8.686  1.2905  1.6656 -0.0140
    5CHL1  H27C  370   5.517   2.474   8.506 -0.0978 -3.2151 -0.9228
    6CHL1    C3  371   2.923   5.848   9.642  0.2403  0.5236  0.7040
    6CHL1    H3  372   3.002   5.774   9.619  0.8216  1.0556  0.9950
    6CHL1    O3  373   2.870   5.812   9.771 -0.0123  0.6970  0.6618
    6CHL1   H3'  374   2.840   5.721   9.767  1.4018  0.2425  0.4459
    6CHL1    C4  375   2.986   5.988   9.633 -0.2112  0.2220 -0.1905
    6CHL1   H4A  376   2.909   6.066   9.656 -0.0663  0.5969 -0.9856
    6CHL1   H4B  377   3.059   5.997   9.716  0.0046  2.1477 -0.5680
    6CHL1    C5  378   3.046   6.014   9.495  0.0315  0.3005 -0.5474
    6CHL1    C6  379   3.172   6.055   9.477 -0.1156  0.8300  0.5226
    6CHL1    H6  380   3.243   6.056   9.561  2.8424 -0.2378 -1.8742
    6CHL1    C7  381   3.229   6.092   9.340  0.4122  0.3146  0.4728
    6CHL1   H7A  382   3.295   6.180   9.351 -2.2360  2.4252 -0.1204
    6CHL1   H7B  383   3.296   6.008   9.312 -0.3211  0.0581 -0.5303
    6CHL1    C8  384   3.128   6.099   9.235  0.7378  0.2883  0.3165
    6CHL1    H8  385   3.071   6.194   9.244  1.8929  0.8013  2.5910
    6CHL1   C14  386   3.195   6.109   9.090 -0.2078  0.2231 -0.0114
    6CHL1   H14  387   3.238   6.008   9.075 -2.5924 -1.0607  1.3743
    6CHL1   C15  388   3.308   6.215   9.076  0.6965  0.5530 -0.3857
    6CHL1  H15A  389   3.285   6.314   9.121 -0.5789  0.2112 -0.2689
    6CHL1  H15B  390   3.406   6.181   9.116 -1.0363 -3.0169  1.1243
    6CHL1   C16  391   3.305   6.237   8.922 -0.0142  0.3713 -0.0398
    6CHL1  H16A  392   3.274   6.341   8.897 -1.1234  0.0886  0.1299
    6CHL1  H16B  393   3.404   6.227   8.873  0.9753  1.7206  1.6467
    6CHL1   C17  394   3.198   6.141   8.862 -0.3161  0.3526  1.5630
    6CHL1   H17  395   3.240   6.038   8.855 -0.7482  0.1924  1.2483
    6CHL1   C13  396   3.095   6.117   8.975 -0.0360 -0.0667  0.4293
    6CHL1   C18  397   3.021   6.250   8.983  0.8032  0.5864 -0.4920
    6CHL1  H18A  398   2.956   6.271   8.895  0.3739  0.8121 -0.1230
    6CHL1  H18B  399   2.952   6.266   9.069  1.8116  1.4831  0.1544
    6CHL1  H18C  400   3.094   6.332   8.995  1.8348 -0.4961  0.7694
    6CHL1   C12  401   2.996   5.992   8.979 -0.2008 -0.2009  1.1582
    6CHL1  H12A  402   2.929   5.989   8.891  1.4613  1.4502 -0.2236
    6CHL1  H12B  403   3.066   5.909   8.959  0.1213  0.5131 -0.8019
    6CHL1   C11  404   2.924   5.981   9.116 -0.0060 -0.3841  0.6897
    6CHL1  H11A  405   2.864   6.074   9.122 -0.2001 -0.4783  0.1969
    6CHL1  H11B  406   2.859   5.892   9.131  0.0212 -0.6801 -0.9245
    6CHL1    C9  407   3.019   5.988   9.242  0.4359 -0.2651  1.1250
    6CHL1    H9  408   3.071   5.890   9.238  0.5866 -0.3049  3.7526
    6CHL1   C10  409   2.943   5.993   9.377  0.3866 -0.2111 -1.3800
    6CHL1   C19  410   2.840   6.110   9.385  0.1763  0.0669  0.5938
    6CHL1  H19A  411   2.888   6.208   9.366 -0.6624  0.1707 -1.0893
    6CHL1  H19B  412   2.756   6.093   9.315 -0.7254  0.1127  1.6538
    6CHL1  H19C  413   2.788   6.108   9.483  0.1160 -0.4623  0.5544
    6CHL1    C1  414   2.880   5.850   9.401  0.0514 -0.0401 -0.2245
    6CHL1   H1A  415   2.800   5.855   9.324 -1.4406 -1.8470  1.1802
    6CHL1   H1B  416   2.941   5.760   9.382 -0.7849 -0.8226  0.7570
    6CHL1    C2  417   2.815   5.830   9.529  0.0445 -0.3075  0.8154
    6CHL1   H2A  418   2.782   5.724   9.521 -1.1907  0.1675 -0.5542
    6CHL1   H2B  419   2.739   5.904   9.562 -0.9164  0.5160 -3.0071
    6CHL1   C20  420   3.147   6.169   8.719 -0.6185  0.4725 -0.3099
    6CHL1   H20  421   3.052   6.113   8.705 -0.4936  0.1152  0.2600
    6CHL1   C21  422   3.246   6.089   8.625 -0.1992  0.1900 -0.6726
    6CHL1  H21A  423   3.351   6.120   8.642  0.7801 -2.4210 -1.6339
    6CHL1  H21B  424   3.225   6.109   8.517  0.3751 -1.1294 -1.0516
    6CHL1  H21C  425   3.237   5.979   8.639  0.3984  0.2441  0.1458
    6CHL1   C22  426   3.134   6.316   8.679 -0.5052  0.3544  0.1907
    6CHL1  H22A  427   3.111   6.372   8.773 -0.7272  1.7506 -0.6753
    6CHL1  H22B  428   3.232   6.358   8.649  0.6187 -1.4639  1.2586
    6CHL1   C23  429   3.031   6.349   8.559 -0.3049 -0.1486  0.2529
    6CHL1  H23A  430   3.027   6.267   8.485  2.9840 -0.3734  0.2446
    6CHL1  H23B  431   2.935   6.349   8.616  0.1264 -0.7239  0.9914
    6CHL1   C24  432   3.060   6.492   8.504 -0.1092 -0.3114 -0.6429
    6CHL1  H24A  433   3.020   6.549   8.589  0.2862 -0.7557 -0.1545
    6CHL1  H24B  434   3.170   6.502   8.489  0.0887 -0.9945  0.3255
    6CHL1   C25  435   2.981   6.521   8.375 -0.0570 -0.1108 -0.9344
    6CHL1   H25  436   2.876   6.487   8.387 -0.0879  0.5594  0.9205
    6CHL1   C26  437   2.982   6.674   8.343  0.0656  0.3908 -0.1462
    6CHL1  H26A  438   3.072   6.722   8.299  0.6507 -0.6562 -0.1016
    6CHL1  H26B  439   2.897   6.703   8.278 -0.6025 -0.1661  0.4742
    6CHL1  H26C  440   2.972   6.738   8.434  1.7624 -1.1321  1.1520
    6CHL1   C27  441   3.058   6.460   8.254  0.6147  0.2964 -0.6274
    6CHL1  H27A  442   2.997   6.481   8.164  1.8856  1.1441 -1.2997
    6CHL1  H27B  443   3.154   6.512   8.237  0.6129  0.9878  1.3530
    6CHL1  H27C  444   3.077   6.350   8.263  2.4532  0.6832  0.5489
    7CHL1    C3  445   5.275   1.264   9.703  0.2854 -0.0723  0.4961
    7CHL1    H3  446   5.323   1.175   9.657 -1.5420 -0.3440 -0.9676
    7CHL1    O3  447   5.288   1.268   9.845  0.9975  0.0783  0.4187
    7CHL1   H3'  448   5.381   1.253   9.865  1.3629  1.5817 -0.1287
    7CHL1    C4  449   5.338   1.394   9.640 -0.2993 -0.0921 -0.0992
    7CHL1   H4A  450   5.273   1.472   9.684 -2.6578 -1.1724 -1.5711
    7CHL1   H4B  451   5.437   1.423   9.681 -1.6762  0.8372  2.6748
    7CHL1    C5  452   5.322   1.392   9.487 -0.4089 -0.0559  0.2958
    7CHL1    C6  453   5.426   1.394   9.401 -0.1340 -0.7619  0.2532
    7CHL1    H6  454   5.532   1.382   9.428 -0.0743  0.5968  0.6331
    7CHL1    C7  455   5.406   1.408   9.253 -0.0800 -0.3829 -0.1460
    7CHL1   H7A  456   5.476   1.483   9.211 -1.1470  3.5355  4.6516
    7CHL1   H7B  457   5.416   1.305   9.213  0.7721  0.1300 -1.2577
    7CHL1    C8  458   5.256   1.441   9.208  0.2692  0.3953  0.1999
    7CHL1    H8  459   5.250   1.551   9.221  0.0537  0.5654 -1.2531
    7CHL1   C14  460   5.231   1.397   9.067  0.3307 -0.1783  0.2989
    7CHL1   H14  461   5.238   1.286   9.069 -0.1237 -0.2440 -1.2348
    7CHL1   C15  462   5.341   1.428   8.957  0.3746 -0.2189  0.4599
    7CHL1  H15A  463   5.378   1.532   8.970  0.6084 -0.2299 -0.1228
    7CHL1  H15B  464   5.422   1.356   8.981  1.8370  0.9115 -1.0038
    7CHL1   C16  465   5.274   1.404   8.822  0.3396  0.5861  0.2149
    7CHL1  H16A  466   5.259   1.495   8.760 -1.2016  0.4802  0.4193
    7CHL1  H16B  467   5.308   1.315   8.765 -0.8732 -0.3340  0.9152
    7CHL1   C17  468   5.126   1.363   8.860  1.0930 -0.2558  0.5994
    7CHL1   H17  469   5.136   1.253   8.873 -0.9563 -0.5520 -0.1991
    7CHL1   C13  470   5.095   1.425   9.001 -0.0191 -0.4261  0.0910
    7CHL1   C18  471   5.072   1.573   8.999 -0.2185 -0.1390  0.1581
    7CHL1  H18A  472   4.964   1.595   8.989 -0.6184 -1.6716  0.9567
    7CHL1  H18B  473   5.096   1.622   9.096 -0.1387 -1.2150  0.6831
    7CHL1  H18C  474   5.126   1.612   8.910 -0.8921 -0.1961 -0.2769
    7CHL1   C12  475   4.988   1.360   9.095  0.0655 -0.7427 -0.1813
    7CHL1  H12A  476   4.885   1.384   9.063  0.8421 -0.7408 -2.7459
    7CHL1  H12B  477   5.002   1.250   9.093 -2.0039 -1.0162 -0.6525
    7CHL1   C11  478   5.000   1.405   9.241 -0.1102 -0.6873  0.7255
    7CHL1  H11A  479   4.982   1.515   9.243  0.2814 -0.6300  1.0084
    7CHL1  H11B  480   4.927   1.358   9.310 -0.0077 -0.4819  0.9736
    7CHL1    C9  481   5.149   1.372   9.295 -0.0235 -0.6092 -0.3096
    7CHL1    H9  482   5.153   1.263   9.275 -4.6005 -0.5791 -2.0645
    7CHL1   C10  483   5.178   1.389   9.446 -0.2873  0.3165 -0.3809
    7CHL1   C19  484   5.109   1.523   9.481  0.0562  0.1992  0.6707
    7CHL1  H19A  485   5.126   1.598   9.402 -1.1807 -0.7225 -0.4890
    7CHL1  H19B  486   4.999   1.511   9.491 -0.0205  0.5783  0.2584
    7CHL1  H19C  487   5.150   1.565   9.575  1.8636 -1.6350  0.7508
    7CHL1    C1  488   5.110   1.266   9.509  0.0957 -0.4293  0.3190
    7CHL1   H1A  489   5.002   1.260   9.485  0.0862 -0.4127  0.3564
    7CHL1   H1B  490   5.152   1.169   9.475  0.6483 -0.8331  2.1055
    7CHL1    C2  491   5.130   1.260   9.662 -0.4004 -0.2777  0.5808
    7CHL1   H2A  492   5.080   1.174   9.711  0.4960  0.4236  2.7726
    7CHL1   H2B  493   5.084   1.356   9.692 -1.7485 -0.1169 -1.8082
    7CHL1   C20  494   5.019   1.393   8.749  0.3578 -0.1168 -0.0163
    7CHL1   H20  495   4.980   1.497   8.756  0.5904  0.0530 -1.2176
    7CHL1   C21  496   4.898   1.305   8.771 -0.1972  0.0532  0.7762
    7CHL1  H21A  497   4.818   1.338   8.702  0.1307 -0.0987  0.3237
    7CHL1  H21B  498   4.854   1.323   8.872 -0.4438 -0.2176  0.7177
    7CHL1  H21C  499   4.923   1.197   8.767  1.7985  0.5522 -0.8175
    7CHL1   C22  500   5.074   1.365   8.608  0.8580  0.2242  0.5968
    7CHL1  H22A  501   5.175   1.403   8.582  0.5728  0.4382 -0.2310
    7CHL1  H22B  502   5.090   1.256   8.595  0.0983  0.1198  0.4981
    7CHL1   C23  503   4.984   1.411   8.489 -0.3582  0.2832 -0.1147
    7CHL1  H23A  504   4.905   1.334   8.478 -0.7278  0.4109  1.5371
    7CHL1  H23B  505   4.947   1.515   8.503 -1.6047  0.4855 -4.2272
    7CHL1   C24  506   5.052   1.403   8.347  0.1307 -0.2497 -0.1376
    7CHL1  H24A  507   5.136   1.475   8.336  0.2088 -0.1109  1.2033
    7CHL1  H24B  508   5.114   1.311   8.343  1.1404  0.3844  0.6734
    7CHL1   C25  509   4.954   1.408   8.225  0.4167 -0.0186  0.3721
    7CHL1   H25  510   4.866   1.345   8.253 -0.6955  1.6381  0.7058
    7CHL1   C26  511   4.902   1.545   8.196 -0.5468  0.3765 -0.0193
    7CHL1  H26A  512   4.851   1.588   8.285  0.9383  0.6628  0.7065
    7CHL1  H26B  513   4.989   1.610   8.171  0.4306 -1.1444 -0.5993
    7CHL1  H26C  514   4.836   1.553   8.107 -0.2756 -2.8501 -0.5637
    7CHL1   C27  515   5.018   1.344   8.103  0.0059 -0.1978 -0.0783
    7CHL1  H27A  516   5.052   1.241   8.125  0.3337 -0.8228 -3.1926
    7CHL1  H27B  517   4.942   1.359   8.023  0.3903  1.8842 -0.0818
    7CHL1  H27C  518   5.110   1.402   8.082 -0.0110 -0.2516 -0.3052
    8CHL1    C3  519   5.647   3.633   9.688 -0.6088  0.1312 -0.3843
    8CHL1    H3  520   5.755   3.616   9.703 -1.1726 -2.5356  0.9634
    8CHL1    O3  521   5.581   3.592   9.807  0.2235  0.3888 -0.0131
    8CHL1   H3'  522   5.609   3.656   9.873  0.7868 -0.7117  0.8381
    8CHL1    C4  523   5.632   3.782   9.652  0.1838 -0.1649  0.1531
    8CHL1   H4A  524   5.524   3.806   9.644  0.4577  0.7695 -0.8326
    8CHL1   H4B  525   5.683   3.849   9.724  2.4256  1.8399 -3.1978
    8CHL1    C5  526   5.687   3.803   9.515  0.4873  0.1736 -0.4892
    8CHL1    C6  527   5.774   3.901   9.501  0.4752 -1.1573  0.3559
    8CHL1    H6  528   5.810   3.957   9.588 -1.5047  1.3556 -0.3769
    8CHL1    C7  529   5.822   3.944   9.361 -0.3676 -0.0756  0.4340
    8CHL1   H7A  530   5.818   4.053   9.339  1.4118  0.3617  2.1364
    8CHL1   H7B  531   5.929   3.919   9.346 -0.7316 -1.1064 -0.5565
    8CHL1    C8  532   5.735   3.876   9.249  0.0536 -0.3028 -0.7690
    8CHL1    H8  533   5.637   3.927   9.241  0.1428 -0.2454 -1.6039
    8CHL1   C14  534   5.796   3.891   9.108 -0.0403 -0.4683 -0.4169
    8CHL1   H14  535   5.892   3.837   9.124  0.6617  1.1255  0.8460
    8CHL1   C15  536   5.855   4.026   9.061  0.2086 -0.2822 -0.2549
    8CHL1  H15A  537   5.775   4.099   9.088  0.2142 -0.2587 -0.3038
    8CHL1  H15B  538   5.954   4.046   9.107 -1.2087  1.3644  2.1930
    8CHL1   C16  539   5.866   4.005   8.905  0.1168  0.4799  0.6312
    8CHL1  H16A  540   5.795   4.082   8.866  0.4713  0.3410 -0.3142
    8CHL1  H16B  541   5.971   4.032   8.882  1.2232 -3.5906  0.6844
    8CHL1   C17  542   5.829   3.856   8.880  0.0355  1.0112  0.0463
    8CHL1   H17  543   5.932   3.816   8.896  0.4103  1.3623 -1.4560
    8CHL1   C13  544   5.731   3.823   8.998 -0.6623 -0.0031  0.4360
    8CHL1   C18  545   5.590   3.882   8.980 -0.7883  0.1599 -0.0406
    8CHL1  H18A  546   5.519   3.866   9.064  1.5727  0.6569  2.0839
    8CHL1  H18B  547   5.607   3.991   8.967  0.8507 -0.0678  0.1707
    8CHL1  H18C  548   5.546   3.828   8.893 -1.6761 -1.0072  1.1024
    8CHL1   C12  549   5.730   3.670   9.021 -0.9136  0.4212  0.7300
    8CHL1  H12A  550   5.669   3.621   8.942 -2.1770  1.7278  0.8778
    8CHL1  H12B  551   5.827   3.618   9.040 -1.7120 -0.7550  1.6803
    8CHL1   C11  552   5.653   3.645   9.155  0.0825  0.0418  0.2587
    8CHL1  H11A  553   5.545   3.657   9.134 -0.1591  1.0881  2.0003
    8CHL1  H11B  554   5.660   3.538   9.183  1.1514 -0.5106 -1.9525
    8CHL1    C9  555   5.712   3.727   9.274  0.3048 -0.0150 -0.3338
    8CHL1    H9  556   5.814   3.693   9.302 -0.2116 -1.0663  0.3033
    8CHL1   C10  557   5.636   3.708   9.406 -0.0808 -0.5717  0.3800
    8CHL1   C19  558   5.484   3.733   9.369 -1.2558  0.6274 -0.1365
    8CHL1  H19A  559   5.465   3.806   9.288 -3.2277 -0.1344 -0.3792
    8CHL1  H19B  560   5.429   3.643   9.334  0.9489 -0.7558 -0.1402
    8CHL1  H19C  561   5.428   3.753   9.463 -0.9819 -2.6995  0.8068
    8CHL1    C1  562   5.652   3.571   9.454 -0.4057 -0.6765 -0.6102
    8CHL1   H1A  563   5.607   3.498   9.382  1.4081 -0.7277 -1.7182
    8CHL1   H1B  564   5.760   3.546   9.460 -0.2280  0.4459  1.3249
    8CHL1    C2  565   5.595   3.535   9.585 -0.0129 -0.2068 -0.2375
    8CHL1   H2A  566   5.631   3.432   9.605 -3.3264 -2.0201 -3.1469
    8CHL1   H2B  567   5.485   3.534   9.570  0.2126 -1.3008 -1.9255
    8CHL1   C20  568   5.795   3.812   8.736 -0.3628  0.1661 -0.0747
    8CHL1   H20  569   5.722   3.728   8.733  0.1555 -0.2998  0.3672
    8CHL1   C21  570   5.919   3.763   8.667  1.0487  0.0782 -0.1015
    8CHL1  H21A  571   5.904   3.711   8.570  1.6597 -0.9243  0.3343
    8CHL1  H21B  572   5.963   3.687   8.735  1.1406 -0.4956 -0.7955
    8CHL1  H21C  573   5.985   3.853   8.663 -1.6257  2.1403  0.8943
    8CHL1   C22  574   5.738   3.923   8.643 -0.4505 -1.0935 -0.0900
    8CHL1  H22A  575   5.819   3.996   8.623 -0.3445 -1.5213 -1.2430
    8CHL1  H22B  576   5.742   3.867   8.547  1.0382 -1.3201  0.0854
    8CHL1   C23  577   5.594   3.971   8.664 -0.5915  0.4569 -0.2028
    8CHL1  H23A  578   5.527   3.888   8.693 -1.7695  2.5194  3.1673
    8CHL1  H23B  579   5.595   4.032   8.756  0.1528 -0.5040  0.4409
    8CHL1   C24  580   5.544   4.035   8.540 -0.2740 -0.0775 -0.1958
    8CHL1  H24A  581   5.598   4.127   8.509 -0.0963 -0.4520 -1.0240
    8CHL1  H24B  582   5.555   3.971   8.449  3.6238  0.3426 -0.1027
    8CHL1   C25  583   5.392   4.071   8.551 -0.0897  0.6943  0.0382
    8CHL1   H25  584   5.340   3.992   8.609  0.6254  2.0384  2.5652
    8CHL1   C26  585   5.376   4.195   8.632  0.2384  0.6617 -0.0946
    8CHL1  H26A  586   5.408   4.291   8.586 -2.5072  1.4699 -0.3837
    8CHL1  H26B  587   5.267   4.214   8.641  0.3368  0.5697  1.3820
    8CHL1  H26C  588   5.429   4.184   8.729  1.4213 -0.0493 -0.8092
    8CHL1   C27  589   5.319   4.072   8.415 -0.0477  0.1329 -0.0156
    8CHL1  H27A  590   5.214   4.105   8.430 -0.5724 -0.8637 -1.4050
    8CHL1  H27B  591   5.357   4.155   8.352  0.1546 -0.9761 -1.3939
    8CHL1  H27C  592   5.330   3.976   8.360 -1.4795  0.0578 -0.1981
    9CHL1    C3  593   3.182   6.352   9.721 -0.2329 -0.3607 -0.4187
    9CHL1    H3  594   3.258   6.282   9.680  1.1856  0.3118  1.0320
    9CHL1    O3  595   3.154   6.333   9.851 -0.2659 -0.8846  0.4984
    9CHL1   H3'  596   3.083   6.397   9.858  1.3247  1.2403 -1.9398
    9CHL1    C4  597   3.251   6.489   9.697  0.2403  0.0471 -0.4446
    9CHL1   H4A  598   3.188   6.565   9.749  0.9108 -0.4573  1.1310
    9CHL1   H4B  599   3.339   6.479   9.764 -0.7574  0.3652  0.9225
    9CHL1    C5  600   3.284   6.526   9.551  0.2700 -0.4266  0.3201
    9CHL1    C6  601   3.406   6.535   9.509  0.0304 -0.0974  0.0578
    9CHL1    H6  602   3.488   6.541   9.583  0.4618 -0.4447 -0.3932
    9CHL1    C7  603   3.449   6.563   9.370 -0.8416 -0.6204 -0.5016
    9CHL1   H7A  604   3.526   6.642   9.368 -2.1735  0.7357  0.0623
    9CHL1   H7B  605   3.482   6.466   9.329  1.4481  0.7622 -2.0325
    9CHL1    C8  606   3.320   6.629   9.303  0.8277  0.4913  0.1712
    9CHL1    H8  607   3.298   6.728   9.347 -1.3975 -0.4971  1.3701
    9CHL1   C14  608   3.343   6.641   9.152 -0.0455 -0.2505  0.2601
    9CHL1   H14  609   3.346   6.543   9.099 -2.4824  1.2305 -2.8143
    9CHL1   C15  610   3.475   6.715   9.116 -0.5666  0.5443  0.0067
    9CHL1  H15A  611   3.498   6.788   9.196  3.0685 -1.2432  0.6946
    9CHL1  H15B  612   3.557   6.639   9.112  0.9596  2.1903 -0.6492
    9CHL1   C16  613   3.450   6.761   8.973 -0.8793 -0.0095 -0.0705
    9CHL1  H16A  614   3.458   6.872   8.967 -1.8863  0.1220  0.9106
    9CHL1  H16B  615   3.518   6.700   8.909 -1.3588  0.3273 -0.9145
    9CHL1   C17  616   3.300   6.740   8.939  0.1870  0.1566 -0.3184
    9CHL1   H17  617   3.305   6.643   8.886  5.3644 -1.2395  2.3931
    9CHL1   C13  618   3.232   6.715   9.073 -0.0939  0.0073 -0.6105
    9CHL1   C18  619   3.189   6.852   9.122 -0.3936 -0.1325 -0.3286
    9CHL1  H18A  620   3.154   6.857   9.228  0.8916  1.5395  0.0551
    9CHL1  H18B  621   3.272   6.927   9.121  0.3473 -0.9451 -0.6205
    9CHL1  H18C  622   3.099   6.889   9.069  0.2304  1.4754 -0.3091
    9CHL1   C12  623   3.112   6.614   9.086  0.0113 -0.1393 -0.6857
    9CHL1  H12A  624   3.025   6.653   9.028 -2.4348 -1.3710  2.0238
    9CHL1  H12B  625   3.141   6.514   9.047 -1.6824 -1.1028  0.4502
    9CHL1   C11  626   3.073   6.592   9.238 -0.4709  0.5942  0.5026
    9CHL1  H11A  627   3.033   6.692   9.264 -2.2824 -0.0338  0.2054
    9CHL1  H11B  628   2.992   6.517   9.252 -0.2007 -0.1389 -1.6121
    9CHL1    C9  629   3.194   6.545   9.326 -0.1709 -0.8395  0.1553
    9CHL1    H9  630   3.215   6.447   9.279 -2.3363 -1.2147 -0.0761
    9CHL1   C10  631   3.161   6.529   9.472 -0.2314 -0.3640  0.5276
    9CHL1   C19  632   3.070   6.652   9.509  0.0267 -0.4854  0.1445
    9CHL1  H19A  633   3.109   6.749   9.473 -1.1228 -0.5824 -1.4186
    9CHL1  H19B  634   2.966   6.641   9.471 -0.4351  2.1150  0.5715
    9CHL1  H19C  635   3.055   6.663   9.618  2.0310  1.0443  0.2885
    9CHL1    C1  636   3.070   6.400   9.491 -1.1097 -0.5265  0.1955
    9CHL1   H1A  637   2.970   6.406   9.444 -0.5834 -1.3449 -1.0311
    9CHL1   H1B  638   3.127   6.324   9.434 -1.1485  0.0023 -0.5583
    9CHL1    C2  639   3.054   6.359   9.635  0.4468  0.2267 -0.6281
    9CHL1   H2A  640   2.992   6.267   9.626 -1.9517  1.6163  1.1104
    9CHL1   H2B  641   2.992   6.442   9.676  1.1756 -0.6091  2.3061
    9CHL1   C20  642   3.240   6.838   8.834  0.5254  0.1705  0.5921
    9CHL1   H20  643   3.201   6.923   8.893 -0.8217 -0.0862  0.0895
    9CHL1   C21  644   3.118   6.780   8.767 -0.4546 -0.4517  0.4375
    9CHL1  H21A  645   3.046   6.767   8.850  0.0306  2.1476  1.3103
    9CHL1  H21B  646   3.150   6.689   8.711 -0.6989 -0.3773  0.1739
    9CHL1  H21C  647   3.072   6.851   8.695  1.2983 -0.9822 -1.2603
    9CHL1   C22  648   3.333   6.884   8.726  0.1344  0.0830  0.0864
    9CHL1  H22A  649   3.433   6.913   8.764  0.3348 -0.0710 -0.3217
    9CHL1  H22B  650   3.356   6.793   8.666  0.1481  0.3163 -0.2621
    9CHL1   C23  651   3.288   7.004   8.655  0.0773  0.0938  0.0963
    9CHL1  H23A  652   3.184   6.987   8.620 -0.5315 -1.5945  2.6126
    9CHL1  H23B  653   3.302   7.087   8.728  1.5601  0.2652 -0.3657
    9CHL1   C24  654   3.365   7.050   8.532 -0.2943 -0.0648 -0.1616
    9CHL1  H24A  655   3.465   7.085   8.567  0.3216 -0.7555 -1.2037
    9CHL1  H24B  656   3.392   6.970   8.460  0.2117  2.4930 -2.8867
    9CHL1   C25  657   3.295   7.161   8.451  0.3552  0.5655 -0.1015
    9CHL1   H25  658   3.189   7.131   8.440  0.4446  0.2955 -0.2401
    9CHL1   C26  659   3.285   7.293   8.527 -0.3343 -0.1690 -0.0424
    9CHL1  H26A  660   3.229   7.373   8.475  0.8565  0.6207 -0.1365
    9CHL1  H26B  661   3.225   7.275   8.619  0.4192 -2.4705  0.0356
    9CHL1  H26C  662   3.388   7.324   8.553 -0.2909  1.2481 -1.7963
    9CHL1   C27  663   3.364   7.193   8.310  0.7386 -0.0143 -0.7416
    9CHL1  H27A  664   3.364   7.115   8.231  1.5588 -0.8353  0.0773
    9CHL1  H27B  665   3.307   7.274   8.259  0.7343  0.5324  0.1157
    9CHL1  H27C  666   3.464   7.237   8.330  0.9718 -0.2929 -1.2671
   10CHL1    C3  667   0.878   4.419   9.694 -0.5836  0.6022 -0.0672
   10CHL1    H3  668   0.777   4.380   9.669 -0.5271 -1.2571  2.4419
   10CHL1    O3  669   0.890   4.446   9.833 -0.3483 -0.2031 -0.1384
   10CHL1   H3'  670   0.951   4.382   9.870  0.2241  0.4562  0.0708
   10CHL1    C4  671   0.985   4.317   9.634 -0.6202 -0.3841 -0.0916
   10CHL1   H4A  672   1.084   4.335   9.681 -0.3935  0.3561 -0.8421
   10CHL1   H4B  673   0.950   4.223   9.683  1.0567  0.7205  3.4012
   10CHL1    C5  674   0.997   4.310   9.485  0.0960 -0.4143  0.0843
   10CHL1    C6  675   0.997   4.192   9.419  0.2918 -0.2534  0.6528
   10CHL1    H6  676   0.989   4.099   9.476 -0.4520  1.3014  3.1762
   10CHL1    C7  677   1.000   4.184   9.270  0.1809  0.2802 -1.3765
   10CHL1   H7A  678   1.062   4.097   9.241  0.4569 -0.9458  2.5575
   10CHL1   H7B  679   0.906   4.145   9.225 -0.4049  0.0283  0.0314
   10CHL1    C8  680   1.042   4.311   9.204  0.5602  0.2224  0.2244
   10CHL1    H8  681   1.151   4.328   9.220  0.3457  3.3470 -1.1617
   10CHL1   C14  682   1.034   4.300   9.052 -0.6986  1.2503 -0.0322
   10CHL1   H14  683   0.925   4.297   9.031 -1.1811  0.0061  2.5002
   10CHL1   C15  684   1.111   4.181   8.986 -0.1854  0.3016 -0.4615
   10CHL1  H15A  685   1.211   4.158   9.029 -0.4771 -0.5055 -0.2110
   10CHL1  H15B  686   1.052   4.087   8.980  0.9453 -0.3185 -1.9267
   10CHL1   C16  687   1.111   4.246   8.839  1.1396 -0.2228 -0.6061
   10CHL1  H16A  688   1.218   4.252   8.810  0.4506  0.6561 -3.0650
   10CHL1  H16B  689   1.061   4.169   8.777 -0.5140  0.5320 -0.2348
   10CHL1   C17  690   1.043   4.386   8.840  0.9519 -0.4172 -0.8908
   10CHL1   H17  691   0.935   4.362   8.830  1.4356 -2.3468 -1.7913
   10CHL1   C13  692   1.066   4.434   8.979  0.4328  0.5320 -0.3622
   10CHL1   C18  693   1.213   4.472   9.004 -1.0497  0.2544  0.5768
   10CHL1  H18A  694   1.280   4.398   8.954 -1.5991  0.5300 -0.5878
   10CHL1  H18B  695   1.236   4.574   8.967 -2.5129  0.7237  0.9295
   10CHL1  H18C  696   1.243   4.462   9.111  2.2228  1.4078 -0.1696
   10CHL1   C12  697   0.979   4.547   9.033 -0.4256 -0.4065  0.4981
   10CHL1  H12A  698   1.012   4.631   8.968 -3.5053  0.8467  0.4497
   10CHL1  H12B  699   0.877   4.524   8.997 -0.5337 -0.7912  1.0426
   10CHL1   C11  700   0.990   4.566   9.178  0.8370  0.0951 -0.1596
   10CHL1  H11A  701   1.083   4.617   9.211  1.4364 -1.0215 -0.1278
   10CHL1  H11B  702   0.911   4.642   9.201 -0.7104 -1.7099  0.6046
   10CHL1    C9  703   0.972   4.433   9.259 -0.2442  0.4764  0.1312
   10CHL1    H9  704   0.866   4.402   9.245 -0.0004  0.0011 -0.7232
   10CHL1   C10  705   1.001   4.445   9.414  0.4907  0.0046 -0.3269
   10CHL1   C19  706   1.146   4.506   9.441 -0.4607 -0.0518  1.0712
   10CHL1  H19A  707   1.221   4.452   9.379 -0.8254  1.1642 -0.4705
   10CHL1  H19B  708   1.145   4.615   9.420 -1.0581  0.0277  1.5205
   10CHL1  H19C  709   1.181   4.494   9.546  3.7146  1.5711 -0.0308
   10CHL1    C1  710   0.895   4.533   9.479 -0.3960 -0.3344  0.3201
   10CHL1   H1A  711   0.890   4.634   9.434 -0.4250  0.4900  2.1161
   10CHL1   H1B  712   0.793   4.498   9.452 -0.3724 -1.0464  1.1182
   10CHL1    C2  713   0.897   4.551   9.627  0.1459 -0.0224 -0.1298
   10CHL1   H2A  714   0.820   4.624   9.661  1.5387  1.2959  0.2504
   10CHL1   H2B  715   0.999   4.589   9.650  0.0220  1.3997 -1.8452
   10CHL1   C20  716   1.086   4.467   8.713 -0.2471  0.2068 -0.2556
   10CHL1   H20  717   1.191   4.502   8.726 -0.6798  1.1406  0.7797
   10CHL1   C21  718   1.006   4.600   8.688 -0.4183 -0.2058  0.4083
   10CHL1  H21A  719   0.902   4.563   8.690  0.0702 -1.5765  1.0395
   10CHL1  H21B  720   1.018   4.639   8.585  4.4096 -0.9448  0.5629
   10CHL1  H21C  721   1.037   4.673   8.766  0.9156  0.3439 -0.6054
   10CHL1   C22  722   1.100   4.387   8.579  0.5093 -0.5899  0.1892
   10CHL1  H22A  723   1.159   4.445   8.505  0.4026  1.5085  1.7193
   10CHL1  H22B  724   1.157   4.294   8.602 -1.4520 -1.9052 -0.0756
   10CHL1   C23  725   0.961   4.338   8.525 -0.0957 -0.3024 -0.3647
   10CHL1  H23A  726   0.912   4.274   8.601 -0.3906 -0.0673 -0.3513
   10CHL1  H23B  727   0.892   4.425   8.518 -2.6381 -2.4267 -2.4511
   10CHL1   C24  728   0.961   4.261   8.397 -0.2141  0.8058  0.7741
   10CHL1  H24A  729   1.022   4.171   8.418  2.8732  2.9959  1.5509
   10CHL1  H24B  730   0.862   4.222   8.364 -0.3743  1.3899  0.5578
   10CHL1   C25  731   1.035   4.323   8.278  0.5077 -0.2031  0.7500
   10CHL1   H25  732   1.140   4.350   8.303  1.0428 -0.3088 -1.3442
   10CHL1   C26  733   1.042   4.233   8.147 -0.2016  0.2402 -0.0490
   10CHL1  H26A  734   1.121   4.157   8.166 -0.0196  0.1718 -1.0589
   10CHL1  H26B  735   0.944   4.182   8.136 -0.2662  0.3037  0.2406
   10CHL1  H26C  736   1.072   4.287   8.055 -1.0646  1.9480  0.6456
   10CHL1   C27  737   0.969   4.459   8.243 -0.0137  1.1035 -0.2348
   10CHL1  H27A  738   1.024   4.506   8.158 -1.5494  0.8452 -1.4060
   10CHL1  H27B  739   0.860   4.453   8.221  0.0101 -0.3006 -0.0197
   10CHL1  H27C  740   0.983   4.537   8.321 -1.7792  0.3589  0.8358
   11CHL1    C3  741   2.480   1.102   9.760 -0.7835  0.0034 -0.4798
   11CHL1    H3  742   2.418   1.183   9.718 -1.5298 -0.0647  0.4801
   11CHL1    O3  743   2.488   1.106   9.905  0.2926  0.6545  0.1384
   11CHL1   H3'  744   2.548   1.176   9.932  0.9365  0.6238 -1.1830
   11CHL1    C4  745   2.436   0.966   9.731 -0.1326  0.5868 -0.1692
   11CHL1   H4A  746   2.504   0.897   9.785 -0.6060 -0.8752 -1.4151
   11CHL1   H4B  747   2.331   0.949   9.763  0.8918 -2.0720  1.9609
   11CHL1    C5  748   2.429   0.946   9.576  0.5299  0.1030  0.1872
   11CHL1    C6  749   2.318   0.925   9.506 -0.5187 -0.5118  0.0804
   11CHL1    H6  750   2.227   0.902   9.562 -0.8435  1.8084  0.5694
   11CHL1    C7  751   2.309   0.916   9.353 -0.4125  0.0105 -0.7245
   11CHL1   H7A  752   2.241   0.832   9.325 -1.5152  0.6689 -0.0535
   11CHL1   H7B  753   2.270   1.012   9.315  0.0228  1.4170  2.2385
   11CHL1    C8  754   2.445   0.887   9.291  0.0013  0.0724 -0.1212
   11CHL1    H8  755   2.474   0.783   9.314 -0.9689  0.1290  1.3633
   11CHL1   C14  756   2.451   0.907   9.139  0.4765  0.2070 -0.0586
   11CHL1   H14  757   2.424   1.014   9.126  1.6157  0.1624 -3.1664
   11CHL1   C15  758   2.339   0.836   9.057 -0.2370  0.0299 -0.1232
   11CHL1  H15A  759   2.339   0.729   9.085 -1.6726 -0.2230 -1.0463
   11CHL1  H15B  760   2.236   0.878   9.057 -0.7565 -1.2515  0.5741
   11CHL1   C16  761   2.386   0.836   8.914 -0.2275 -0.1225  0.1277
   11CHL1  H16A  762   2.393   0.735   8.867 -3.9253 -1.1855  1.6377
   11CHL1  H16B  763   2.325   0.895   8.843 -0.3022 -1.4822 -0.9595
   11CHL1   C17  764   2.537   0.895   8.918  0.6350 -0.3513  0.4957
   11CHL1   H17  765   2.525   1.002   8.890  1.2354 -0.1774  0.8837
   11CHL1   C13  766   2.581   0.883   9.069  0.6514 -0.8891  0.4016
   11CHL1   C18  767   2.623   0.736   9.094 -0.2207  0.5585  0.3059
   11CHL1  H18A  768   2.727   0.724   9.057 -0.3493  0.3444  0.0137
   11CHL1  H18B  769   2.621   0.720   9.204 -0.8809  2.1256  0.5326
   11CHL1  H18C  770   2.554   0.664   9.044 -1.1515 -1.9799  4.9587
   11CHL1   C12  771   2.684   0.989   9.125  0.5506 -0.6689  0.5369
   11CHL1  H12A  772   2.786   0.978   9.085 -0.3470  0.2106 -2.0667
   11CHL1  H12B  773   2.655   1.091   9.092  3.0980  0.1356  0.7178
   11CHL1   C11  774   2.696   0.969   9.279  0.0317  0.0272  0.1557
   11CHL1  H11A  775   2.729   0.867   9.308 -0.6097 -0.1749  0.1940
   11CHL1  H11B  776   2.764   1.044   9.323  0.6776 -0.9413  0.8376
   11CHL1    C9  777   2.555   0.980   9.353 -0.3054  0.0477 -0.2122
   11CHL1    H9  778   2.528   1.083   9.322  0.5811 -0.0939 -1.4742
   11CHL1   C10  779   2.563   0.978   9.509 -0.3559 -0.7689  0.1205
   11CHL1   C19  780   2.658   0.849   9.547  0.0919  0.5326  0.6585
   11CHL1  H19A  781   2.602   0.756   9.521  2.9786 -1.1093  0.0535
   11CHL1  H19B  782   2.760   0.845   9.505  1.0979  1.0305  3.0035
   11CHL1  H19C  783   2.675   0.853   9.656 -0.2530 -0.3648  0.7502
   11CHL1    C1  784   2.640   1.104   9.553  0.6117 -0.2090  0.7930
   11CHL1   H1A  785   2.748   1.093   9.529  0.0876 -0.0581 -1.7262
   11CHL1   H1B  786   2.595   1.182   9.488  0.1898 -0.5786  0.6396
   11CHL1    C2  787   2.625   1.127   9.694 -0.7991  0.1469 -0.4452
   11CHL1   H2A  788   2.652   1.228   9.729  3.4080 -0.6736 -1.0677
   11CHL1   H2B  789   2.688   1.067   9.763 -4.5865  0.1525  3.2338
   11CHL1   C20  790   2.632   0.832   8.811 -0.0754 -0.1744 -0.7827
   11CHL1   H20  791   2.658   0.729   8.842 -0.1428 -0.5964 -2.1161
   11CHL1   C21  792   2.763   0.911   8.814 -0.3445 -0.2017 -0.1627
   11CHL1  H21A  793   2.826   0.872   8.897  0.6506  1.1756 -0.2643
   11CHL1  H21B  794   2.737   1.015   8.846 -3.0859 -1.4912  2.1156
   11CHL1  H21C  795   2.828   0.892   8.727 -0.3828 -0.4059 -0.1459
   11CHL1   C22  796   2.569   0.821   8.671  0.0667  0.4698  0.7345
   11CHL1  H22A  797   2.468   0.778   8.655  0.1733  0.7540 -0.8400
   11CHL1  H22B  798   2.570   0.926   8.636 -0.8148 -0.1361 -1.1865
   11CHL1   C23  799   2.653   0.729   8.573 -0.9104 -0.1367  1.2134
   11CHL1  H23A  800   2.748   0.773   8.538  1.3712 -6.0595 -0.6021
   11CHL1  H23B  801   2.688   0.647   8.639  0.4610 -0.6422 -0.1219
   11CHL1   C24  802   2.570   0.670   8.452 -0.3836 -0.3817 -0.3964
   11CHL1  H24A  803   2.488   0.622   8.510  0.4853 -2.8504 -1.1400
   11CHL1  H24B  804   2.526   0.754   8.395  3.1061  1.7524 -0.0503
   11CHL1   C25  805   2.652   0.569   8.368  0.1214  0.3291  0.3196
   11CHL1   H25  806   2.577   0.508   8.313 -0.5395  2.3225 -1.0366
   11CHL1   C26  807   2.756   0.632   8.281  0.5597  0.4950 -0.2864
   11CHL1  H26A  808   2.834   0.672   8.350  0.2683 -0.3171  0.5281
   11CHL1  H26B  809   2.811   0.563   8.214  2.3992  1.1834  0.4837
   11CHL1  H26C  810   2.717   0.716   8.219  1.8434  1.2280 -0.1366
   11CHL1   C27  811   2.722   0.457   8.460 -0.1614  0.0488  0.0893
   11CHL1  H27A  812   2.647   0.428   8.537 -0.3103 -3.4149 -1.2932
   11CHL1  H27B  813   2.758   0.368   8.403  1.8307  0.9015 -0.0409
   11CHL1  H27C  814   2.813   0.498   8.509  0.0883 -0.2907 -0.0884
   12CHL1    C3  815   0.363   3.045   9.716 -0.6579 -0.1696  0.2143
   12CHL1    H3  816   0.430   3.127   9.683  0.8984 -1.3904  0.2560
   12CHL1    O3  817   0.326   3.047   9.853 -0.6065  0.3088  0.2099
   12CHL1   H3'  818   0.262   2.976   9.862  1.2287 -1.3145  1.0316
   12CHL1    C4  819   0.235   3.051   9.636  0.4357 -0.2912  0.4639
   12CHL1   H4A  820   0.165   2.977   9.680 -0.0420  1.1265  2.1772
   12CHL1   H4B  821   0.178   3.144   9.661 -0.3288 -0.6724  0.1615
   12CHL1    C5  822   0.255   3.024   9.490  0.5446  0.7563 -0.2499
   12CHL1    C6  823   0.225   3.112   9.396  0.3168 -0.5403  0.5237
   12CHL1    H6  824   0.175   3.205   9.425 -0.5573 -0.5494 -0.8981
   12CHL1    C7  825   0.250   3.094   9.252  0.0759 -0.2284  0.5517
   12CHL1   H7A  826   0.160   3.128   9.196  0.4336 -0.1988 -0.0069
   12CHL1   H7B  827   0.332   3.156   9.209 -0.9501  1.2759  0.7233
   12CHL1    C8  828   0.269   2.946   9.215 -0.5681  0.2481 -0.2922
   12CHL1    H8  829   0.169   2.899   9.228  0.7107 -2.5684 -0.3958
   12CHL1   C14  830   0.314   2.936   9.072  0.1677  0.3639 -0.0606
   12CHL1   H14  831   0.411   2.989   9.066  0.3098  0.0487 -0.5908
   12CHL1   C15  832   0.227   2.994   8.960 -0.7147 -0.2462 -0.2209
   12CHL1  H15A  833   0.120   2.967   8.968 -1.1253  0.8913 -1.6377
   12CHL1  H15B  834   0.224   3.105   8.955 -1.7036 -0.2335  0.5787
   12CHL1   C16  835   0.280   2.920   8.830  0.5647 -0.3916 -0.3878
   12CHL1  H16A  836   0.197   2.856   8.793  0.2058  0.4892 -1.1061
   12CHL1  H16B  837   0.322   2.994   8.759  4.4611 -0.1566  1.9709
   12CHL1   C17  838   0.396   2.824   8.885  0.3044 -0.0076 -0.3518
   12CHL1   H17  839   0.485   2.891   8.889  0.9690 -0.9484  0.9788
   12CHL1   C13  840   0.356   2.795   9.029 -1.4840  0.2485  0.3280
   12CHL1   C18  841   0.234   2.698   9.012  0.0406 -0.0253  0.4828
   12CHL1  H18A  842   0.153   2.754   8.962 -0.7613 -0.3119  1.4357
   12CHL1  H18B  843   0.254   2.604   8.956  0.5571  0.0296  0.5702
   12CHL1  H18C  844   0.192   2.667   9.110  2.1547 -1.5416  0.9367
   12CHL1   C12  845   0.470   2.748   9.114 -1.0933 -0.0171 -0.7392
   12CHL1  H12A  846   0.499   2.642   9.097 -2.4081 -0.4165 -0.5408
   12CHL1  H12B  847   0.568   2.800   9.109  0.4810 -2.6255  1.3877
   12CHL1   C11  848   0.426   2.745   9.261  0.6870 -0.2798 -0.0371
   12CHL1  H11A  849   0.340   2.674   9.261  0.0635  0.4618  0.7873
   12CHL1  H11B  850   0.507   2.708   9.327  1.2700 -0.6927 -0.9825
   12CHL1    C9  851   0.373   2.887   9.310 -0.1995  0.0385  0.2292
   12CHL1    H9  852   0.458   2.957   9.301  0.6623 -1.1221 -0.8269
   12CHL1   C10  853   0.331   2.890   9.456  0.3370 -0.1559  1.1494
   12CHL1   C19  854   0.241   2.763   9.486  0.2893 -0.7743  0.5358
   12CHL1  H19A  855   0.301   2.669   9.487  3.9641  1.5018  0.6806
   12CHL1  H19B  856   0.191   2.784   9.583  0.5289 -1.9307  0.9269
   12CHL1  H19C  857   0.160   2.769   9.410  0.7622 -0.6747  0.0440
   12CHL1    C1  858   0.463   2.890   9.538  0.4980  0.4322 -0.0640
   12CHL1   H1A  859   0.515   2.793   9.520 -2.6786 -1.1060 -1.3603
   12CHL1   H1B  860   0.531   2.963   9.491  1.3265 -2.0252 -2.8451
   12CHL1    C2  861   0.436   2.909   9.691  0.3775 -0.0815  0.0832
   12CHL1   H2A  862   0.532   2.905   9.746  0.3181  1.2268  0.2865
   12CHL1   H2B  863   0.372   2.825   9.726 -0.9096  0.1112 -1.7224
   12CHL1   C20  864   0.443   2.706   8.789 -0.4394  0.0563  0.4690
   12CHL1   H20  865   0.401   2.609   8.822 -2.4347  0.3983 -0.9639
   12CHL1   C21  866   0.595   2.682   8.799  0.2774  0.1859 -0.0011
   12CHL1  H21A  867   0.624   2.693   8.906 -0.8217  0.3909  0.2893
   12CHL1  H21B  868   0.652   2.765   8.753  1.4505 -2.0467 -2.7225
   12CHL1  H21C  869   0.634   2.590   8.751 -0.6236 -1.7462  2.8212
   12CHL1   C22  870   0.409   2.715   8.636 -0.1633 -0.3446  0.6247
   12CHL1  H22A  871   0.302   2.684   8.629 -0.0850 -0.5308  0.1704
   12CHL1  H22B  872   0.411   2.818   8.595  2.3922 -0.5242  0.2064
   12CHL1   C23  873   0.481   2.620   8.537 -0.2131  0.5510 -0.3842
   12CHL1  H23A  874   0.588   2.652   8.538 -0.2341  0.6116  0.0749
   12CHL1  H23B  875   0.481   2.516   8.578 -0.8163 -0.3124 -2.5033
   12CHL1   C24  876   0.432   2.621   8.396  0.5238 -0.0451 -0.2354
   12CHL1  H24A  877   0.325   2.590   8.401  0.6780 -0.4315  0.8076
   12CHL1  H24B  878   0.431   2.725   8.359 -0.7679  0.1567  0.3464
   12CHL1   C25  879   0.515   2.527   8.301 -0.3075 -0.0024 -0.1992
   12CHL1   H25  880   0.510   2.426   8.347 -2.1464 -0.4959 -1.4274
   12CHL1   C26  881   0.432   2.522   8.171  0.1014  0.1005  0.5470
   12CHL1  H26A  882   0.489   2.459   8.099 -2.4584 -1.8315  0.1020
   12CHL1  H26B  883   0.336   2.473   8.196 -0.5458  1.2562  0.3660
   12CHL1  H26C  884   0.413   2.619   8.121  0.7834 -0.2080 -0.3300
   12CHL1   C27  885   0.654   2.583   8.275 -0.0565 -0.3361 -0.1744
   12CHL1  H27A  886   0.730   2.548   8.202  0.3173 -2.3287  1.1458
   12CHL1  H27B  887   0.629   2.682   8.230 -0.3323  0.2231  1.2065
   12CHL1  H27C  888   0.710   2.594   8.370  0.1304  1.7803 -0.4921
   13CHL1    C3  889   6.209   4.406   9.730 -0.4534  0.7600 -0.2358
   13CHL1    H3  890   6.237   4.514   9.731  0.5398  0.5102  0.0544
   13CHL1    O3  891   6.180   4.361   9.864  0.0383 -0.4480  0.6664
   13CHL1   H3'  892   6.112   4.420   9.898 -0.0446 -0.7912  1.1110
   13CHL1    C4  893   6.077   4.395   9.647  0.4924  0.1134 -0.4704
   13CHL1   H4A  894   6.039   4.291   9.659  1.9838 -0.2048  1.7603
   13CHL1   H4B  895   5.993   4.451   9.691  0.8433  1.2063 -1.1807
   13CHL1    C5  896   6.102   4.433   9.500 -0.4947  0.3365 -0.3854
   13CHL1    C6  897   6.033   4.534   9.452  0.0592 -0.9352 -0.2244
   13CHL1    H6  898   5.958   4.587   9.512  0.4650 -0.4902 -0.1119
   13CHL1    C7  899   6.037   4.568   9.306 -0.1527 -0.0054  0.1053
   13CHL1   H7A  900   5.940   4.562   9.251  0.2275  0.2977 -0.5997
   13CHL1   H7B  901   6.081   4.669   9.298 -0.7381  0.2747  0.4399
   13CHL1    C8  902   6.110   4.461   9.218  0.7820  0.2780 -0.4753
   13CHL1    H8  903   6.033   4.382   9.208 -0.7616  1.2838  2.8867
   13CHL1   C14  904   6.161   4.523   9.090  0.0878 -0.1279 -0.2952
   13CHL1   H14  905   6.229   4.605   9.122 -0.7104  0.2735  0.4027
   13CHL1   C15  906   6.060   4.590   8.998 -0.4120 -0.6692 -0.0223
   13CHL1  H15A  907   5.965   4.533   8.986 -0.0498 -2.0696  3.1217
   13CHL1  H15B  908   6.044   4.697   9.023 -0.6931 -1.1638  2.0600
   13CHL1   C16  909   6.125   4.587   8.860  0.0038 -0.2548  0.4761
   13CHL1  H16A  910   6.059   4.530   8.791 -1.2432  0.2426  1.2524
   13CHL1  H16B  911   6.156   4.685   8.819  0.4832 -1.0863 -1.2118
   13CHL1   C17  912   6.259   4.525   8.886 -0.4638 -0.4527 -0.3706
   13CHL1   H17  913   6.316   4.603   8.941  0.9656 -1.0667 -0.9516
   13CHL1   C13  914   6.236   4.429   9.002 -0.3789  0.2264  0.2313
   13CHL1   C18  915   6.143   4.313   8.953  0.1828 -1.0042 -0.3763
   13CHL1  H18A  916   6.211   4.234   8.913  1.7252 -0.5654  1.3100
   13CHL1  H18B  917   6.086   4.269   9.038 -0.5485 -1.6772 -1.2009
   13CHL1  H18C  918   6.064   4.340   8.880  1.3687  1.3020 -0.8147
   13CHL1   C12  919   6.360   4.374   9.072  0.2314 -0.0063 -0.6339
   13CHL1  H12A  920   6.406   4.293   9.012  2.5478  1.1680 -0.4712
   13CHL1  H12B  921   6.428   4.456   9.102 -0.6666  0.1432  1.0514
   13CHL1   C11  922   6.317   4.305   9.203 -0.1700  0.4956  0.0019
   13CHL1  H11A  923   6.253   4.218   9.176  0.9443  0.3974 -2.4426
   13CHL1  H11B  924   6.411   4.271   9.250  0.8439 -1.2916 -3.1906
   13CHL1    C9  925   6.232   4.398   9.293  0.5352 -0.3691  0.5874
   13CHL1    H9  926   6.295   4.488   9.311  2.6183 -1.5990 -0.3234
   13CHL1   C10  927   6.200   4.346   9.432  0.4232 -0.0491  0.1067
   13CHL1   C19  928   6.137   4.204   9.409 -0.1472  0.6574  0.0161
   13CHL1  H19A  929   6.104   4.167   9.509 -0.7716 -1.2257 -0.8809
   13CHL1  H19B  930   6.049   4.214   9.342 -1.6510  0.6335  1.9262
   13CHL1  H19C  931   6.204   4.124   9.372 -0.8068 -0.1296  0.4897
   13CHL1    C1  932   6.336   4.341   9.514  0.3284  0.5070  0.0880
   13CHL1   H1A  933   6.390   4.255   9.469 -0.6796 -0.4418  0.6669
   13CHL1   H1B  934   6.390   4.438   9.505  0.2424  0.4226 -1.5429
   13CHL1    C2  935   6.313   4.317   9.668 -0.7399 -1.1444  0.3721
   13CHL1   H2A  936   6.412   4.331   9.717 -1.2202 -0.7223  1.2307
   13CHL1   H2B  937   6.299   4.208   9.681 -0.0633 -1.5292 -1.9350
   13CHL1   C20  938   6.331   4.468   8.763 -0.0307  0.1877  0.2208
   13CHL1   H20  939   6.383   4.376   8.800 -2.8788 -1.1084  1.1208
   13CHL1   C21  940   6.450   4.564   8.723  0.2331  0.0487 -0.7234
   13CHL1  H21A  941   6.517   4.516   8.648 -0.1157 -2.7326  0.7029
   13CHL1  H21B  942   6.508   4.592   8.814 -0.9987  2.0678 -0.5303
   13CHL1  H21C  943   6.419   4.662   8.681 -2.0137  0.7455  2.4208
   13CHL1   C22  944   6.240   4.440   8.638  0.6879 -0.2041 -0.3714
   13CHL1  H22A  945   6.148   4.383   8.665  1.3827 -0.1348  2.2485
   13CHL1  H22B  946   6.212   4.542   8.605  3.2525  0.6905  0.0955
   13CHL1   C23  947   6.307   4.358   8.522 -0.6247  0.2552  0.0782
   13CHL1  H23A  948   6.409   4.403   8.517 -0.8356  1.0215  1.9984
   13CHL1  H23B  949   6.296   4.253   8.556 -1.7371  0.9646  1.9781
   13CHL1   C24  950   6.225   4.370   8.395  0.3786  0.2035 -0.0388
   13CHL1  H24A  951   6.131   4.311   8.403 -0.6306  1.8095  0.1541
   13CHL1  H24B  952   6.216   4.477   8.367  1.2797  0.0961 -0.7740
   13CHL1   C25  953   6.291   4.297   8.275 -0.2910  0.1099 -0.0503
   13CHL1   H25  954   6.305   4.191   8.303 -0.0283 -0.0078 -0.6167
   13CHL1   C26  955   6.200   4.302   8.151  0.2269  0.1595 -0.0548
   13CHL1  H26A  956   6.103   4.254   8.175  0.5805 -1.5683 -1.9709
   13CHL1  H26B  957   6.190   4.409   8.122  0.7282 -0.1280 -1.3048
   13CHL1  H26C  958   6.244   4.243   8.068 -1.1949  1.7385 -1.9851
   13CHL1   C27  959   6.426   4.342   8.240 -0.3035 -0.1565 -0.5452
   13CHL1  H27A  960   6.497   4.312   8.320 -1.8549 -1.6507  0.3062
   13CHL1  H27B  961   6.461   4.293   8.146  1.2865  1.0875 -0.6269
   13CHL1  H27C  962   6.419   4.452   8.224 -1.1043  0.4186  3.4243
   14CHL1    C3  963   4.585   0.680   9.916  0.1939 -0.2193  0.0726
   14CHL1    H3  964   4.695   0.689   9.930  0.7158 -1.6710 -2.6929
   14CHL1    O3  965   4.531   0.647  10.044 -0.4052 -0.1537  0.0056
   14CHL1   H3'  966   4.436   0.639  10.034 -0.5554  1.2022  0.2798
   14CHL1    C4  967   4.525   0.816   9.877  0.7034 -0.0980 -0.0054
   14CHL1   H4A  968   4.414   0.821   9.881  0.7128  0.8652 -0.8290
   14CHL1   H4B  969   4.567   0.895   9.942  0.5562  0.7378 -0.9140
   14CHL1    C5  970   4.574   0.837   9.732  0.1293  0.4504 -0.0010
   14CHL1    C6  971   4.650   0.940   9.704 -0.8008 -0.2972  0.9005
   14CHL1    H6  972   4.668   1.015   9.783 -0.1148 -1.3217  1.7289
   14CHL1    C7  973   4.691   0.976   9.567 -0.0135  0.7394  0.2327
   14CHL1   H7A  974   4.688   1.087   9.559  2.2122  0.7502 -1.0953
   14CHL1   H7B  975   4.796   0.941   9.559 -0.7297 -1.1670 -1.0136
   14CHL1    C8  976   4.610   0.904   9.447 -0.5368 -0.3725 -0.1713
   14CHL1    H8  977   4.512   0.955   9.443  0.5002  1.9151  2.2310
   14CHL1   C14  978   4.684   0.916   9.311  0.4367 -0.1493  0.1266
   14CHL1   H14  979   4.786   0.877   9.331 -1.1565 -3.2421  2.6739
   14CHL1   C15  980   4.698   1.058   9.260 -0.0386  0.5191 -0.2422
   14CHL1  H15A  981   4.603   1.115   9.262 -1.4778 -1.8203 -0.0568
   14CHL1  H15B  982   4.780   1.118   9.307 -1.3788  1.5747  0.7961
   14CHL1   C16  983   4.735   1.034   9.108  0.0767  0.0440 -0.6630
   14CHL1  H16A  984   4.669   1.105   9.053 -0.1149 -0.8459 -1.6216
   14CHL1  H16B  985   4.841   1.056   9.085 -0.1579  0.4785 -1.3616
   14CHL1   C17  986   4.710   0.893   9.076 -0.1155  0.0878 -0.4701
   14CHL1   H17  987   4.799   0.829   9.087 -1.6685 -2.2248 -1.0824
   14CHL1   C13  988   4.619   0.843   9.188  0.0774  0.1285 -0.1192
   14CHL1   C18  989   4.480   0.898   9.164 -0.0025  0.5412  0.1186
   14CHL1  H18A  990   4.427   0.845   9.082  2.7064 -0.6568 -0.9029
   14CHL1  H18B  991   4.426   0.886   9.260 -2.4189  0.4388 -1.2174
   14CHL1  H18C  992   4.484   1.005   9.134  0.7276  0.0617 -1.5512
   14CHL1   C12  993   4.612   0.690   9.227  0.0149  0.4845 -0.0270
   14CHL1  H12A  994   4.545   0.641   9.153 -0.0942  0.8063 -0.1442
   14CHL1  H12B  995   4.716   0.651   9.222  0.5936  1.5612  2.7628
   14CHL1   C11  996   4.546   0.666   9.368  0.1855  0.0922  0.3349
   14CHL1  H11A  997   4.436   0.677   9.355  0.3359 -1.0291 -2.2984
   14CHL1  H11B  998   4.560   0.558   9.387  1.7908  0.4129  1.0501
   14CHL1    C9  999   4.602   0.755   9.483  0.8040  0.1188 -0.3499
   14CHL1    H9 1000   4.706   0.715   9.494  1.0199  1.3188  2.4630
   14CHL1   C10 1001   4.545   0.730   9.627  0.3217 -0.1726  0.3861
   14CHL1   C19 1002   4.388   0.728   9.608 -0.2161 -0.0437 -0.0065
   14CHL1  H19A 1003   4.340   0.721   9.708 -2.0171  0.3916 -0.8079
   14CHL1  H19B 1004   4.359   0.824   9.559  2.6498  0.3323 -1.0092
   14CHL1  H19C 1005   4.370   0.635   9.550 -1.5220 -0.9594  1.8143
   14CHL1    C1 1006   4.591   0.590   9.678 -0.2731  0.2709 -0.1622
   14CHL1   H1A 1007   4.549   0.509   9.615 -0.4043  0.4648 -0.3247
   14CHL1   H1B 1008   4.702   0.587   9.673 -0.1546 -0.2530  2.0603
   14CHL1    C2 1009   4.549   0.567   9.822  0.0372 -0.4662  0.6620
   14CHL1   H2A 1010   4.603   0.475   9.851  1.3729  0.0271 -0.2286
   14CHL1   H2B 1011   4.441   0.545   9.812  0.1950 -0.2473 -1.6469
   14CHL1   C20 1012   4.663   0.870   8.933 -0.0180  0.0668  0.5194
   14CHL1   H20 1013   4.568   0.928   8.924  1.0856  1.9836  0.9345
   14CHL1   C21 1014   4.626   0.722   8.906  0.0229  0.5805 -0.3487
   14CHL1  H21A 1015   4.712   0.654   8.926 -1.2816 -1.7704 -2.4786
   14CHL1  H21B 1016   4.612   0.713   8.796  0.6492  0.6275 -0.4369
   14CHL1  H21C 1017   4.538   0.686   8.963  0.0524  1.0907  0.0182
   14CHL1   C22 1018   4.765   0.917   8.829 -0.2951 -0.1717  0.4946
   14CHL1  H22A 1019   4.809   1.007   8.877 -0.2068 -0.1867  0.4408
   14CHL1  H22B 1020   4.845   0.841   8.817  0.7831  0.9616  0.5134
   14CHL1   C23 1021   4.703   0.959   8.699 -0.3914  0.0018 -0.5104
   14CHL1  H23A 1022   4.647   0.868   8.667 -0.3971  0.8502 -3.0312
   14CHL1  H23B 1023   4.634   1.047   8.702  3.0421  2.8412 -1.2917
   14CHL1   C24 1024   4.815   0.986   8.595 -0.3863  0.2253 -0.4066
   14CHL1  H24A 1025   4.888   1.065   8.622  0.8702 -0.7569 -0.8863
   14CHL1  H24B 1026   4.878   0.899   8.569 -0.0139  0.4830 -0.3735
   14CHL1   C25 1027   4.755   1.018   8.453  0.9047 -0.1485 -0.2551
   14CHL1   H25 1028   4.710   1.119   8.462  1.8985  0.4979 -2.1635
   14CHL1   C26 1029   4.859   1.042   8.346 -0.1585 -0.1449  0.7800
   14CHL1  H26A 1030   4.809   1.061   8.249  1.7367  0.7145 -0.0462
   14CHL1  H26B 1031   4.918   1.131   8.374  2.0695 -1.6904  1.1129
   14CHL1  H26C 1032   4.929   0.957   8.335  2.0024  1.7279 -0.1750
   14CHL1   C27 1033   4.649   0.918   8.400  0.2606 -0.3889 -0.5824
   14CHL1  H27A 1034   4.642   0.923   8.290  0.7990  0.0452 -0.6003
   14CHL1  H27B 1035   4.673   0.811   8.413 -1.1190 -0.8781 -1.8804
   14CHL1  H27C 1036   4.548   0.931   8.446  0.0640 -1.1134 -0.8202
   15CHL1    C3 1037   4.012   0.348   9.747  0.6255  0.7829 -0.4011
   15CHL1    H3 1038   3.983   0.455   9.744  4.7338  1.9905  0.2223
   15CHL1    O3 1039   4.007   0.291   9.879  0.6765 -0.1724  0.6768
   15CHL1   H3' 1040   4.037   0.201   9.862 -1.2973 -0.8900  0.8606
   15CHL1    C4 1041   3.918   0.275   9.651 -0.6715 -0.0508 -0.3468
   15CHL1   H4A 1042   3.955   0.170   9.655 -0.1877  0.0070 -2.6874
   15CHL1   H4B 1043   3.814   0.287   9.688 -1.0697  1.8558 -1.9845
   15CHL1    C5 1044   3.940   0.327   9.512  0.4789  0.0023  0.2717
   15CHL1    C6 1045   3.844   0.385   9.446  0.8045 -0.0943  1.4868
   15CHL1    H6 1046   3.749   0.403   9.499  0.5844 -0.8982  1.3735
   15CHL1    C7 1047   3.865   0.452   9.313 -0.4182 -0.6692  0.3937
   15CHL1   H7A 1048   3.776   0.467   9.248 -0.6234  1.6785  1.1985
   15CHL1   H7B 1049   3.895   0.554   9.343 -0.6824  0.3156 -2.4770
   15CHL1    C8 1050   3.991   0.393   9.234  0.1793 -0.8572 -0.9368
   15CHL1    H8 1051   3.971   0.286   9.213  1.6847 -0.8891 -2.2464
   15CHL1   C14 1052   4.021   0.464   9.101  0.3705  0.3236 -0.2850
   15CHL1   H14 1053   4.053   0.567   9.126  0.3707  0.0598  0.8051
   15CHL1   C15 1054   3.905   0.481   9.010  0.3781  0.0853  0.7456
   15CHL1  H15A 1055   3.846   0.387   9.008 -2.0523  1.5820 -2.2119
   15CHL1  H15B 1056   3.844   0.559   9.061 -2.0656  1.1123 -3.5604
   15CHL1   C16 1057   3.970   0.520   8.878  0.3705  0.0560  0.1869
   15CHL1  H16A 1058   3.923   0.449   8.807  3.3241  0.3895 -2.1906
   15CHL1  H16B 1059   3.950   0.624   8.846 -2.1617  0.5023  3.0210
   15CHL1   C17 1060   4.124   0.494   8.895 -0.2740  0.2967  1.0718
   15CHL1   H17 1061   4.166   0.590   8.934 -0.9207  0.1791  2.0856
   15CHL1   C13 1062   4.138   0.403   9.018 -1.1615 -0.3681 -0.6569
   15CHL1   C18 1063   4.105   0.252   8.979  0.4308 -0.7936  0.0173
   15CHL1  H18A 1064   4.104   0.188   9.070 -0.9637 -1.9789 -0.8170
   15CHL1  H18B 1065   4.014   0.246   8.916  1.4870  0.2668 -1.6299
   15CHL1  H18C 1066   4.184   0.210   8.914  0.1710  1.1759 -1.6284
   15CHL1   C12 1067   4.254   0.420   9.112 -0.3999 -0.2583  0.5508
   15CHL1  H12A 1068   4.351   0.388   9.069 -0.4970 -0.7218  0.6696
   15CHL1  H12B 1069   4.266   0.529   9.128 -1.2894 -0.2963  1.5224
   15CHL1   C11 1070   4.238   0.349   9.245 -0.5064 -0.1099 -0.5218
   15CHL1  H11A 1071   4.226   0.242   9.218  0.7007 -0.6836  1.0914
   15CHL1  H11B 1072   4.331   0.363   9.306  0.9029 -2.4528 -2.0349
   15CHL1    C9 1073   4.112   0.391   9.323  0.4452  0.7476 -0.4487
   15CHL1    H9 1074   4.118   0.498   9.350  0.2517  0.5762  0.3023
   15CHL1   C10 1075   4.087   0.324   9.459  0.1418 -0.1060 -0.2146
   15CHL1   C19 1076   4.128   0.183   9.443 -0.2756  0.7065  0.1616
   15CHL1  H19A 1077   4.079   0.129   9.359 -0.2977 -0.5150  0.9412
   15CHL1  H19B 1078   4.239   0.173   9.443 -0.4024 -0.9283 -1.5384
   15CHL1  H19C 1079   4.093   0.125   9.531 -0.1395  2.0542  1.1076
   15CHL1    C1 1080   4.178   0.394   9.564 -0.5825  0.6301 -0.2491
   15CHL1   H1A 1081   4.287   0.381   9.548 -1.0676 -2.3534 -1.3747
   15CHL1   H1B 1082   4.149   0.501   9.572 -2.0347  0.0790  2.9189
   15CHL1    C2 1083   4.161   0.342   9.707  0.8860 -0.3687  0.4843
   15CHL1   H2A 1084   4.221   0.405   9.777 -1.9694  1.3589  1.4529
   15CHL1   H2B 1085   4.197   0.238   9.723 -1.9856 -1.5028 -0.0761
   15CHL1   C20 1086   4.209   0.458   8.764  0.9609 -0.2163  0.0168
   15CHL1   H20 1087   4.168   0.361   8.727  0.3007 -0.1335  0.5147
   15CHL1   C21 1088   4.357   0.432   8.795  0.0601  0.7178  0.1889
   15CHL1  H21A 1089   4.410   0.398   8.704  0.5442  1.0464  0.3474
   15CHL1  H21B 1090   4.363   0.355   8.875  0.1155  0.7492  0.2136
   15CHL1  H21C 1091   4.402   0.525   8.835 -2.6380  1.7052  1.0210
   15CHL1   C22 1092   4.178   0.554   8.651 -0.1052  0.0982 -0.0593
   15CHL1  H22A 1093   4.073   0.564   8.618 -0.2851  0.9227  0.7358
   15CHL1  H22B 1094   4.220   0.656   8.668 -0.6978  0.0314  1.9343
   15CHL1   C23 1095   4.246   0.504   8.521  0.0603 -0.1044  0.3840
   15CHL1  H23A 1096   4.351   0.469   8.539 -0.1973  0.1874  2.5572
   15CHL1  H23B 1097   4.194   0.412   8.486 -1.0857  0.2548  1.1482
   15CHL1   C24 1098   4.248   0.610   8.404  0.1246 -0.0794 -0.1168
   15CHL1  H24A 1099   4.142   0.643   8.397  0.8026  2.0045 -1.1199
   15CHL1  H24B 1100   4.318   0.693   8.426  1.9895 -0.5601 -3.8823
   15CHL1   C25 1101   4.281   0.551   8.261  0.5510 -0.6971  0.2606
   15CHL1   H25 1102   4.229   0.454   8.245 -0.2015  0.0331 -1.9227
   15CHL1   C26 1103   4.230   0.649   8.150 -0.0843  0.4119 -0.1313
   15CHL1  H26A 1104   4.120   0.643   8.163 -0.4048  0.7194 -2.5733
   15CHL1  H26B 1105   4.260   0.753   8.176  0.6976 -0.0064  0.6613
   15CHL1  H26C 1106   4.259   0.619   8.047 -0.1506  1.2010 -0.3876
   15CHL1   C27 1107   4.433   0.536   8.252 -0.5899  0.0727 -0.2091
   15CHL1  H27A 1108   4.486   0.475   8.329  0.5656  2.1003  0.6269
   15CHL1  H27B 1109   4.454   0.499   8.149 -1.0786  0.1250 -0.3287
   15CHL1  H27C 1110   4.471   0.640   8.250  1.8432 -0.7981 -0.9319
   16CHL1    C3 1111   5.035   0.750   9.874 -0.0385  0.0607 -0.1400
   16CHL1    H3 1112   4.954   0.818   9.839 -0.8199  0.7744  2.8851
   16CHL1    O3 1113   4.996   0.704  10.009 -0.0661 -0.1385  0.0913
   16CHL1   H3' 1114   5.062   0.642  10.040  0.7927  0.9705  0.5544
   16CHL1    C4 1115   5.055   0.636   9.778 -0.3106  0.7129 -0.1763
   16CHL1   H4A 1116   5.129   0.561   9.812 -2.2593  0.3422  3.3752
   16CHL1   H4B 1117   4.964   0.573   9.781  0.6105 -0.6553 -0.7394
   16CHL1    C5 1118   5.100   0.688   9.641  0.1753  0.0493 -0.3545
   16CHL1    C6 1119   5.026   0.661   9.534  0.1805 -0.2596  0.2343
   16CHL1    H6 1120   4.938   0.596   9.540  0.0621 -0.2387 -1.0064
   16CHL1    C7 1121   5.061   0.710   9.392  0.1275  0.5818 -0.3477
   16CHL1   H7A 1122   5.037   0.632   9.317 -0.7832  1.1265 -0.6295
   16CHL1   H7B 1123   4.991   0.790   9.360 -0.9135 -0.5375 -0.9163
   16CHL1    C8 1124   5.209   0.758   9.383  0.0895  0.6013 -0.0015
   16CHL1    H8 1125   5.274   0.669   9.397 -0.7063  0.1449  0.8945
   16CHL1   C14 1126   5.231   0.824   9.252  0.3963  0.1991 -0.5969
   16CHL1   H14 1127   5.161   0.910   9.262 -1.6153 -1.5441  0.9819
   16CHL1   C15 1128   5.198   0.740   9.117 -0.1754  0.7171 -0.1267
   16CHL1  H15A 1129   5.245   0.640   9.127  1.0900  1.1189 -1.8414
   16CHL1  H15B 1130   5.089   0.739   9.096  0.1806 -2.7293 -2.1230
   16CHL1   C16 1131   5.280   0.824   9.016 -0.1573  0.4155  0.4758
   16CHL1  H16A 1132   5.349   0.763   8.955  1.4674  2.3328  0.3446
   16CHL1  H16B 1133   5.212   0.881   8.949 -0.7132 -2.5670 -1.5965
   16CHL1   C17 1134   5.364   0.935   9.092 -0.7512  0.5335  0.6665
   16CHL1   H17 1135   5.303   1.028   9.086 -1.0349  0.2216 -1.3282
   16CHL1   C13 1136   5.371   0.890   9.238 -0.0347  0.0801  0.0349
   16CHL1   C18 1137   5.473   0.774   9.258  0.0560  0.0704 -0.1652
   16CHL1  H18A 1138   5.574   0.817   9.242 -0.6580  1.3012 -1.4082
   16CHL1  H18B 1139   5.477   0.723   9.357  1.4615  0.9855  0.2602
   16CHL1  H18C 1140   5.468   0.695   9.180  0.6136  1.1306 -1.2808
   16CHL1   C12 1141   5.380   0.999   9.347  0.1715  0.2002 -0.3313
   16CHL1  H12A 1142   5.480   1.048   9.345  0.2348  0.1763  1.5079
   16CHL1  H12B 1143   5.311   1.083   9.327 -0.4230  0.0252  0.9782
   16CHL1   C11 1144   5.362   0.935   9.484 -0.1960  0.2186 -0.0960
   16CHL1  H11A 1145   5.449   0.871   9.508 -1.1644 -0.8123  0.7002
   16CHL1  H11B 1146   5.376   1.012   9.563 -0.3839  0.5965 -0.4285
   16CHL1    C9 1147   5.236   0.856   9.503  0.6060 -0.4093 -0.3489
   16CHL1    H9 1148   5.160   0.936   9.492  2.5007  1.4808  0.2220
   16CHL1   C10 1149   5.225   0.786   9.641 -0.5106  0.0546 -0.0948
   16CHL1   C19 1150   5.348   0.692   9.664  0.2340  0.2140  0.6183
   16CHL1  H19A 1151   5.361   0.623   9.577 -0.5511  1.1704 -0.2720
   16CHL1  H19B 1152   5.445   0.741   9.690  0.0176 -0.0739  2.0153
   16CHL1  H19C 1153   5.329   0.618   9.745  0.7328 -2.1657 -1.3703
   16CHL1    C1 1154   5.213   0.899   9.749 -0.1820 -0.6175  0.0424
   16CHL1   H1A 1155   5.310   0.951   9.762 -0.5420  0.5984 -1.9004
   16CHL1   H1B 1156   5.137   0.974   9.716 -1.5739 -2.4434 -0.9791
   16CHL1    C2 1157   5.163   0.833   9.884 -0.4872 -0.5820  0.1565
   16CHL1   H2A 1158   5.155   0.916   9.957 -0.6280  0.3373 -0.8916
   16CHL1   H2B 1159   5.242   0.766   9.925 -1.1536 -0.7662  1.1553
   16CHL1   C20 1160   5.492   0.959   9.017 -0.3983  0.2490  1.0882
   16CHL1   H20 1161   5.547   0.864   9.000 -2.1763 -0.6983  0.5382
   16CHL1   C21 1162   5.590   1.066   9.078 -0.3293 -0.6527 -0.2099
   16CHL1  H21A 1163   5.677   1.083   9.010 -1.0287 -2.7979 -1.7239
   16CHL1  H21B 1164   5.633   1.043   9.178  0.8501  1.3086 -0.2376
   16CHL1  H21C 1165   5.537   1.159   9.105  0.6112 -0.5293  1.2309
   16CHL1   C22 1166   5.456   1.011   8.875 -0.4801  0.2657 -0.2641
   16CHL1  H22A 1167   5.384   0.947   8.821  0.8669 -0.0850 -1.6680
   16CHL1  H22B 1168   5.407   1.110   8.891 -0.5836  0.1792 -0.0485
   16CHL1   C23 1169   5.573   1.031   8.779 -0.5695 -0.0648 -0.6648
   16CHL1  H23A 1170   5.638   1.111   8.821 -1.8482  0.1491  0.9495
   16CHL1  H23B 1171   5.629   0.939   8.753 -1.0710 -0.5193 -0.1604
   16CHL1   C24 1172   5.540   1.113   8.657  0.0239  1.0741 -0.5070
   16CHL1  H24A 1173   5.495   1.209   8.692  0.6517  0.5474  1.8719
   16CHL1  H24B 1174   5.625   1.121   8.586 -1.0518 -0.4815 -2.0030
   16CHL1   C25 1175   5.431   1.045   8.565  0.1725 -0.3817  0.0573
   16CHL1   H25 1176   5.340   1.022   8.625 -0.7133  0.3791 -0.9893
   16CHL1   C26 1177   5.378   1.137   8.452 -0.5584 -0.5913 -0.4196
   16CHL1  H26A 1178   5.320   1.218   8.501  1.1316 -0.7846  2.0107
   16CHL1  H26B 1179   5.471   1.177   8.407 -0.4835  1.1440  1.1854
   16CHL1  H26C 1180   5.325   1.077   8.375 -0.0056 -0.6762 -0.7361
   16CHL1   C27 1181   5.483   0.916   8.506 -0.3964 -0.9268 -0.1762
   16CHL1  H27A 1182   5.405   0.855   8.454 -0.0899 -0.3738 -1.2928
   16CHL1  H27B 1183   5.565   0.948   8.438  1.2975 -1.1675  1.7060
   16CHL1  H27C 1184   5.522   0.859   8.593 -0.8444 -0.9102  0.0371
   17CHL1    C3 1185   1.374   5.924   9.628  0.3401  0.0945  0.5295
   17CHL1    H3 1186   1.273   5.968   9.621  0.5448 -0.0189 -4.4007
   17CHL1    O3 1187   1.413   5.910   9.761 -0.0352 -0.4850 -0.2116
   17CHL1   H3' 1188   1.374   5.835   9.807 -0.9490  1.0329  1.5648
   17CHL1    C4 1189   1.375   5.784   9.572  0.4521  0.8988 -0.5033
   17CHL1   H4A 1190   1.459   5.718   9.600 -0.9290 -2.5297 -3.8983
   17CHL1   H4B 1191   1.293   5.729   9.621  1.3980 -0.0561  0.0192
   17CHL1    C5 1192   1.364   5.778   9.415 -0.0117 -0.0904 -0.1689
   17CHL1    C6 1193   1.273   5.697   9.354 -0.9436  0.3498  0.2035
   17CHL1    H6 1194   1.219   5.626   9.419  0.3999 -1.6915 -0.8677
   17CHL1    C7 1195   1.261   5.693   9.204  0.4154  0.1589 -0.3848
   17CHL1   H7A 1196   1.250   5.588   9.169  1.0064  0.2183 -0.7516
   17CHL1   H7B 1197   1.164   5.738   9.176  0.3880  0.3703  0.0398
   17CHL1    C8 1198   1.379   5.764   9.126 -0.0910 -0.4275 -0.3079
   17CHL1    H8 1199   1.466   5.695   9.130  0.4971  0.4208  2.8281
   17CHL1   C14 1200   1.339   5.789   8.984  0.0290 -0.5983  0.2569
   17CHL1   H14 1201   1.253   5.858   8.985 -0.3660 -1.0477 -1.6516
   17CHL1   C15 1202   1.272   5.671   8.907  0.0072 -0.3008  0.0660
   17CHL1  H15A 1203   1.303   5.570   8.940  1.0761 -0.0527 -0.1339
   17CHL1  H15B 1204   1.164   5.672   8.932 -0.1693 -1.3984 -0.6322
   17CHL1   C16 1205   1.300   5.707   8.756 -0.3709  0.0396  0.3743
   17CHL1  H16A 1206   1.358   5.626   8.706  1.7119  2.0816 -0.6092
   17CHL1  H16B 1207   1.204   5.709   8.699  0.1180  0.6327 -0.4458
   17CHL1   C17 1208   1.377   5.838   8.761 -0.2704 -0.0727  0.3462
   17CHL1   H17 1209   1.297   5.915   8.758 -1.0848 -0.9431 -1.7291
   17CHL1   C13 1210   1.451   5.845   8.893  0.1870 -0.4981  0.2020
   17CHL1   C18 1211   1.580   5.758   8.886  0.3172  0.3402 -0.3477
   17CHL1  H18A 1212   1.629   5.755   8.986  2.0440 -0.4082 -1.1763
   17CHL1  H18B 1213   1.563   5.652   8.858 -2.4898  0.6748 -0.0113
   17CHL1  H18C 1214   1.658   5.804   8.822  2.1452  0.1770  1.6573
   17CHL1   C12 1215   1.479   5.985   8.953 -0.6644 -0.5342  0.0869
   17CHL1  H12A 1216   1.563   6.032   8.898 -0.7105  0.9132  1.2051
   17CHL1  H12B 1217   1.384   6.041   8.940 -0.6449 -0.4095  0.4767
   17CHL1   C11 1218   1.509   5.986   9.103 -0.2608  0.2281 -0.2349
   17CHL1  H11A 1219   1.616   5.957   9.104  0.2216  1.8993 -0.8513
   17CHL1  H11B 1220   1.518   6.089   9.145  0.5173 -0.1580  0.5555
   17CHL1    C9 1221   1.410   5.900   9.196 -0.2444 -0.6111  0.0700
   17CHL1    H9 1222   1.314   5.954   9.207  0.6627  1.1573 -0.5583
   17CHL1   C10 1223   1.457   5.884   9.347  1.0539  0.5223 -0.5592
   17CHL1   C19 1224   1.595   5.820   9.358 -0.0423  0.0765 -0.0162
   17CHL1  H19A 1225   1.668   5.891   9.312 -1.3684  1.0299 -0.6953
   17CHL1  H19B 1226   1.620   5.808   9.465 -0.7343 -1.2860 -0.0070
   17CHL1  H19C 1227   1.601   5.722   9.307 -1.5048  0.3557 -0.7777
   17CHL1    C1 1228   1.460   6.027   9.414 -0.2080  0.2890  0.5230
   17CHL1   H1A 1229   1.550   6.076   9.371  1.2591 -0.7667  2.3121
   17CHL1   H1B 1230   1.367   6.087   9.402 -0.1838  0.2757  0.2517
   17CHL1    C2 1231   1.482   6.010   9.562  0.4477 -0.3047 -0.6406
   17CHL1   H2A 1232   1.481   6.095   9.633  0.8272 -0.4616 -0.4491
   17CHL1   H2B 1233   1.583   5.968   9.576  1.0571  1.6252  1.0725
   17CHL1   C20 1234   1.460   5.868   8.630 -0.6122  0.6196 -0.0463
   17CHL1   H20 1235   1.552   5.807   8.637 -0.6841  0.3067 -1.6710
   17CHL1   C21 1236   1.489   6.021   8.620 -0.0939  0.6823  0.1995
   17CHL1  H21A 1237   1.532   6.045   8.520  1.5850 -0.3591  0.6614
   17CHL1  H21B 1238   1.573   6.051   8.687 -0.1856  1.8791 -0.2055
   17CHL1  H21C 1239   1.402   6.087   8.641  0.3144  0.6584  2.0440
   17CHL1   C22 1240   1.400   5.804   8.494 -0.1071  0.2861 -0.4875
   17CHL1  H22A 1241   1.477   5.829   8.417  0.6184  0.3682  0.2671
   17CHL1  H22B 1242   1.389   5.694   8.488 -1.0822  0.2989  0.9052
   17CHL1   C23 1243   1.269   5.884   8.449 -0.3907 -0.6772  0.0238
   17CHL1  H23A 1244   1.195   5.851   8.525  1.2862 -1.7290  1.2608
   17CHL1  H23B 1245   1.275   5.994   8.463  2.6798 -0.6978 -0.7170
   17CHL1   C24 1246   1.219   5.845   8.307  0.6203  0.2540  0.9765
   17CHL1  H24A 1247   1.301   5.835   8.233  0.2991 -0.1614  0.6744
   17CHL1  H24B 1248   1.176   5.743   8.321 -3.0720  1.5198 -0.7031
   17CHL1   C25 1249   1.104   5.937   8.261  0.0340  0.0656  0.2153
   17CHL1   H25 1250   1.039   5.964   8.347  0.6743  1.1447  0.3700
   17CHL1   C26 1251   1.160   6.072   8.206  0.1695 -0.4072 -0.3650
   17CHL1  H26A 1252   1.234   6.052   8.125  1.1632  1.5585  0.0255
   17CHL1  H26B 1253   1.085   6.147   8.173 -0.0572  0.2032  1.4905
   17CHL1  H26C 1254   1.237   6.111   8.276  0.5182 -0.6169 -0.6280
   17CHL1   C27 1255   1.018   5.871   8.147  0.5166 -0.1379  0.0791
   17CHL1  H27A 1256   0.927   5.934   8.142  0.2564 -0.5992 -1.0340
   17CHL1  H27B 1257   1.075   5.867   8.052 -1.0026 -2.9627 -0.7757
   17CHL1  H27C 1258   1.001   5.764   8.172  0.0263  0.0286  0.4756
   18CHL1    C3 1259   0.561   4.022   9.700  0.0214  0.2734 -1.1222
   18CHL1    H3 1260   0.557   4.125   9.658 -0.2321 -0.0930 -1.9984
   18CHL1    O3 1261   0.532   4.026   9.843  0.5921 -0.3683  0.2728
   18CHL1   H3' 1262   0.594   4.089   9.879 -0.6357  0.1304  1.5823
   18CHL1    C4 1263   0.447   3.946   9.635  0.2361  0.3539  0.5890
   18CHL1   H4A 1264   0.434   3.849   9.689 -1.2388  1.3922  2.1323
   18CHL1   H4B 1265   0.353   4.004   9.648 -0.7775 -0.6136 -2.0660
   18CHL1    C5 1266   0.480   3.926   9.489  0.6918 -0.3367  0.4548
   18CHL1    C6 1267   0.380   3.956   9.404  0.1789 -0.4937 -0.5082
   18CHL1    H6 1268   0.283   3.990   9.443  0.4609 -0.4634  0.1719
   18CHL1    C7 1269   0.383   3.924   9.260  0.2652  0.4764 -0.1194
   18CHL1   H7A 1270   0.304   3.853   9.226  0.1005  0.4222  0.3697
   18CHL1   H7B 1271   0.357   4.017   9.205 -0.8504 -0.7971 -1.8003
   18CHL1    C8 1272   0.522   3.873   9.203 -0.5896  0.0915 -0.1791
   18CHL1    H8 1273   0.513   3.762   9.206 -0.7287  0.0885 -0.6563
   18CHL1   C14 1274   0.536   3.929   9.062  0.0454  0.2421  0.0882
   18CHL1   H14 1275   0.547   4.039   9.073 -0.1866  0.2991 -0.2617
   18CHL1   C15 1276   0.418   3.908   8.968 -0.0269  1.3689 -0.5032
   18CHL1  H15A 1277   0.407   3.798   8.977 -0.0911  1.4319  0.2279
   18CHL1  H15B 1278   0.328   3.968   8.993 -1.0333 -0.2233 -0.2966
   18CHL1   C16 1279   0.474   3.936   8.830 -0.1575 -0.3106  0.4886
   18CHL1  H16A 1280   0.453   3.848   8.765 -2.3379  0.8326 -0.3954
   18CHL1  H16B 1281   0.427   4.030   8.794  0.0755 -1.7415 -3.8103
   18CHL1   C17 1282   0.629   3.950   8.855  0.3917  0.2859 -0.3540
   18CHL1   H17 1283   0.650   4.058   8.871 -3.2623  0.9272  0.6072
   18CHL1   C13 1284   0.662   3.879   8.993 -0.0508  0.2202  0.3198
   18CHL1   C18 1285   0.654   3.726   8.958  0.0787 -0.8826 -0.3684
   18CHL1  H18A 1286   0.566   3.710   8.892  0.5175 -1.9628 -0.7036
   18CHL1  H18B 1287   0.730   3.688   8.887  2.6333  2.0537  0.6665
   18CHL1  H18C 1288   0.649   3.662   9.048 -0.6696  3.0545  2.5293
   18CHL1   C12 1289   0.784   3.918   9.078 -0.0585  0.1954 -0.1972
   18CHL1  H12A 1290   0.877   3.866   9.046  0.1943  0.6509 -0.2027
   18CHL1  H12B 1291   0.791   4.028   9.069  0.3842  0.1300 -0.7000
   18CHL1   C11 1292   0.770   3.871   9.231  0.2665 -0.4609  0.2016
   18CHL1  H11A 1293   0.773   3.761   9.216  2.1176 -0.1575 -1.8473
   18CHL1  H11B 1294   0.862   3.906   9.282 -0.5240  3.7821 -1.0790
   18CHL1    C9 1295   0.637   3.919   9.288 -0.7730 -0.2986 -0.3638
   18CHL1    H9 1296   0.627   4.028   9.274 -2.7438 -0.7137 -2.4004
   18CHL1   C10 1297   0.619   3.891   9.438 -0.4282  0.4771 -0.0221
   18CHL1   C19 1298   0.645   3.739   9.466 -1.0270  0.8156  0.7524
   18CHL1  H19A 1299   0.750   3.713   9.441 -1.8258 -1.2788 -0.4695
   18CHL1  H19B 1300   0.647   3.727   9.577 -1.1072  2.0054  0.8913
   18CHL1  H19C 1301   0.580   3.678   9.401 -1.3130 -0.0440  1.8259
   18CHL1    C1 1302   0.732   3.958   9.521  0.1604 -0.2506 -0.0971
   18CHL1   H1A 1303   0.828   3.902   9.507  0.1397 -0.2781 -0.1283
   18CHL1   H1B 1304   0.753   4.060   9.482  1.3616  0.0735  1.3130
   18CHL1    C2 1305   0.703   3.962   9.672  0.3807  0.2358  0.5966
   18CHL1   H2A 1306   0.785   4.027   9.711  1.2613  1.4058 -3.0225
   18CHL1   H2B 1307   0.708   3.861   9.719 -1.3499  0.9343  2.3604
   18CHL1   C20 1308   0.709   3.908   8.734 -0.0986  0.0040  0.2556
   18CHL1   H20 1309   0.683   3.801   8.721 -0.5106  0.1481 -0.1128
   18CHL1   C21 1310   0.855   3.941   8.758  0.7201  0.4978  0.1577
   18CHL1  H21A 1311   0.865   4.043   8.802  1.9320 -0.1893  1.5432
   18CHL1  H21B 1312   0.914   3.942   8.665  1.0671 -2.6420  0.2737
   18CHL1  H21C 1313   0.902   3.864   8.824  0.4716  0.1563 -0.0626
   18CHL1   C22 1314   0.660   3.980   8.598 -0.6356 -0.1744 -0.1242
   18CHL1  H22A 1315   0.549   3.969   8.595 -0.7393 -0.2182  2.4118
   18CHL1  H22B 1316   0.682   4.088   8.600 -0.8925 -0.1158 -0.5101
   18CHL1   C23 1317   0.710   3.907   8.475  0.4769 -0.8396  0.9347
   18CHL1  H23A 1318   0.821   3.907   8.481  0.5792 -3.0258 -0.3400
   18CHL1  H23B 1319   0.691   3.797   8.470  0.5647 -0.7652 -1.6394
   18CHL1   C24 1320   0.662   3.960   8.344 -0.5816 -0.5510 -0.1761
   18CHL1  H24A 1321   0.562   3.919   8.316  0.0799 -1.5592 -1.1114
   18CHL1  H24B 1322   0.657   4.070   8.361 -1.1405 -0.7223  0.8008
   18CHL1   C25 1323   0.764   3.930   8.225  1.1664 -0.7030 -0.9580
   18CHL1   H25 1324   0.866   3.964   8.253  0.1764  1.0837  0.6439
   18CHL1   C26 1325   0.786   3.775   8.191  0.2905 -0.3199  0.3738
   18CHL1  H26A 1326   0.684   3.733   8.179  0.3356 -0.3566  0.1198
   18CHL1  H26B 1327   0.828   3.759   8.089  0.8327 -0.1180  0.5641
   18CHL1  H26C 1328   0.834   3.720   8.274 -0.5029  1.3663  1.9938
   18CHL1   C27 1329   0.725   4.006   8.097  0.5674  0.7522 -0.2817
   18CHL1  H27A 1330   0.734   4.113   8.124  1.6868  0.6112 -0.0245
   18CHL1  H27B 1331   0.799   3.985   8.017 -0.4749  0.0857 -1.0821
   18CHL1  H27C 1332   0.621   3.991   8.064  0.1539 -0.5372  1.5447
   19CHL1    C3 1333   4.715   6.561   9.753  0.5935  0.0841 -1.1157
   19CHL1    H3 1334   4.654   6.653   9.760  0.9206  0.2474 -0.3816
   19CHL1    O3 1335   4.771   6.523   9.877  0.2943  0.5491  0.1827
   19CHL1   H3' 1336   4.804   6.433   9.867 -0.0150  0.6385 -1.8147
   19CHL1    C4 1337   4.599   6.470   9.707  0.3914  0.1824 -0.4266
   19CHL1   H4A 1338   4.640   6.367   9.721  0.7417  0.2329 -1.0478
   19CHL1   H4B 1339   4.512   6.483   9.774  0.9275 -0.0147  0.3086
   19CHL1    C5 1340   4.560   6.499   9.561 -0.7215  0.2832  0.0930
   19CHL1    C6 1341   4.437   6.534   9.531 -0.3958  0.3337 -0.2197
   19CHL1    H6 1342   4.355   6.549   9.603  1.8683  3.2741  1.8433
   19CHL1    C7 1343   4.378   6.544   9.392  0.3767 -0.4192  0.0545
   19CHL1   H7A 1344   4.294   6.472   9.379 -0.8014  0.8429  0.6501
   19CHL1   H7B 1345   4.335   6.645   9.381 -0.7934 -0.8674  0.4706
   19CHL1    C8 1346   4.484   6.511   9.283  0.1330 -0.7778  0.0216
   19CHL1    H8 1347   4.479   6.400   9.278  2.6694 -1.1468  3.7710
   19CHL1   C14 1348   4.442   6.570   9.146  0.4599  0.1686  0.4348
   19CHL1   H14 1349   4.459   6.678   9.162  2.9623 -0.7501  5.0116
   19CHL1   C15 1350   4.298   6.540   9.099  0.2789 -0.3638 -0.3164
   19CHL1  H15A 1351   4.254   6.438   9.096 -0.9515  0.0976  1.4862
   19CHL1  H15B 1352   4.232   6.608   9.157  1.0564 -1.2123  1.5986
   19CHL1   C16 1353   4.305   6.595   8.955  0.3293 -0.3964  0.2751
   19CHL1  H16A 1354   4.262   6.522   8.883  0.4904 -0.2251  0.0047
   19CHL1  H16B 1355   4.251   6.691   8.969 -0.2867 -0.3679 -2.0916
   19CHL1   C17 1356   4.453   6.622   8.919 -0.5194  0.3340  0.6500
   19CHL1   H17 1357   4.479   6.729   8.938 -0.8018  0.4437  0.4140
   19CHL1   C13 1358   4.531   6.542   9.025  0.1131  0.3788 -0.3809
   19CHL1   C18 1359   4.530   6.384   8.995  0.3924  0.2133  0.6772
   19CHL1  H18A 1360   4.576   6.329   9.079  0.0105 -0.6729  0.3079
   19CHL1  H18B 1361   4.427   6.355   8.965  0.9747 -1.5932  0.4102
   19CHL1  H18C 1362   4.608   6.376   8.916 -1.1716 -0.2897 -0.8531
   19CHL1   C12 1363   4.666   6.592   9.069 -1.1542  0.5062  0.4044
   19CHL1  H12A 1364   4.741   6.585   8.988 -1.6815 -0.3138 -0.0186
   19CHL1  H12B 1365   4.662   6.700   9.096 -0.4811 -0.0982  3.0817
   19CHL1   C11 1366   4.718   6.523   9.196  0.2563  0.4480 -0.8203
   19CHL1  H11A 1367   4.726   6.417   9.164 -0.0982  0.1781 -0.0360
   19CHL1  H11B 1368   4.820   6.564   9.214  0.0225  0.7340 -0.1207
   19CHL1    C9 1369   4.623   6.546   9.320  0.0217 -0.4289  0.3286
   19CHL1    H9 1370   4.612   6.656   9.331  1.5552  0.0648 -2.5347
   19CHL1   C10 1371   4.671   6.490   9.451 -0.0052 -0.0042 -0.2518
   19CHL1   C19 1372   4.713   6.344   9.431 -0.2896  0.1598  0.3164
   19CHL1  H19A 1373   4.791   6.342   9.352 -0.0898  1.9118  0.4344
   19CHL1  H19B 1374   4.766   6.316   9.525  0.6805 -2.0651 -0.8582
   19CHL1  H19C 1375   4.625   6.277   9.422 -1.4690  2.0207 -2.5532
   19CHL1    C1 1376   4.786   6.582   9.507  0.3762 -0.1719  0.0916
   19CHL1   H1A 1377   4.881   6.580   9.449  0.8201 -0.8690  0.8250
   19CHL1   H1B 1378   4.744   6.684   9.494 -0.1182 -0.2541  0.9670
   19CHL1    C2 1379   4.836   6.559   9.651 -0.5161 -0.3425 -0.2255
   19CHL1   H2A 1380   4.909   6.637   9.680  0.2099 -0.4482 -1.7676
   19CHL1   H2B 1381   4.884   6.459   9.659 -0.9145 -0.4316  1.4714
   19CHL1   C20 1382   4.483   6.582   8.775 -0.1263 -0.6712 -0.0842
   19CHL1   H20 1383   4.459   6.476   8.753 -2.3270  0.0517 -1.3336
   19CHL1   C21 1384   4.629   6.616   8.737 -0.1359  0.0599 -0.4637
   19CHL1  H21A 1385   4.698   6.544   8.786 -2.1650 -1.0218  0.8516
   19CHL1  H21B 1386   4.656   6.715   8.781  1.2005 -0.1081 -0.8594
   19CHL1  H21C 1387   4.655   6.597   8.631  1.5441 -0.2208 -0.0223
   19CHL1   C22 1388   4.385   6.663   8.676 -0.2893  0.1500  0.1337
   19CHL1  H22A 1389   4.276   6.647   8.691  0.1043 -2.0238  0.8824
   19CHL1  H22B 1390   4.399   6.773   8.682 -0.0679  0.2543 -2.0470
   19CHL1   C23 1391   4.401   6.623   8.528  0.0337  0.4610  0.4251
   19CHL1  H23A 1392   4.336   6.695   8.474 -0.7061 -1.8574 -1.8860
   19CHL1  H23B 1393   4.505   6.638   8.494  0.3570  0.1367  1.2655
   19CHL1   C24 1394   4.370   6.477   8.505 -0.1374 -0.1308 -0.0922
   19CHL1  H24A 1395   4.446   6.402   8.537 -0.3633 -0.2942  0.0718
   19CHL1  H24B 1396   4.274   6.452   8.557  1.3248 -4.8624  0.5533
   19CHL1   C25 1397   4.343   6.449   8.355 -0.4026  0.6208  0.0661
   19CHL1   H25 1398   4.416   6.505   8.294 -0.1302  0.5386  0.3196
   19CHL1   C26 1399   4.368   6.300   8.340 -0.2455 -0.3242 -0.2205
   19CHL1  H26A 1400   4.297   6.234   8.394  0.5349  0.1810  1.4754
   19CHL1  H26B 1401   4.373   6.271   8.233  1.2546 -3.9032  0.7637
   19CHL1  H26C 1402   4.475   6.283   8.365  0.7561 -0.0139 -4.0494
   19CHL1   C27 1403   4.196   6.486   8.308 -0.1788  0.0254 -0.3312
   19CHL1  H27A 1404   4.162   6.587   8.338 -0.4894 -0.0884 -0.3050
   19CHL1  H27B 1405   4.197   6.477   8.197  2.2136  1.5696 -0.4912
   19CHL1  H27C 1406   4.117   6.423   8.353  1.4739 -0.4311  2.0683
   20CHL1    C3 1407   0.886   1.188   9.726  0.4362 -0.3087  0.6384
   20CHL1    H3 1408   0.813   1.107   9.703  1.2222 -0.7535 -0.3404
   20CHL1    O3 1409   0.922   1.169   9.862 -0.2062 -0.2607 -0.2718
   20CHL1   H3' 1410   0.903   1.248   9.913  0.0542 -1.8642  2.4560
   20CHL1    C4 1411   1.005   1.168   9.628  0.0283  0.2516 -0.8908
   20CHL1   H4A 1412   1.089   1.232   9.663 -0.6935  0.3351  0.7121
   20CHL1   H4B 1413   1.023   1.060   9.645 -2.1672 -0.1220 -0.7744
   20CHL1    C5 1414   0.972   1.190   9.482  0.0154 -0.0546  0.1372
   20CHL1    C6 1415   0.986   1.094   9.393  0.2182  0.7599 -0.8798
   20CHL1    H6 1416   1.049   1.005   9.411 -0.5470  0.1738 -1.0653
   20CHL1    C7 1417   0.957   1.116   9.247 -0.6961 -0.3610  0.6037
   20CHL1   H7A 1418   1.023   1.059   9.178  0.8404  0.9954  0.9241
   20CHL1   H7B 1419   0.855   1.074   9.230 -1.3653  0.6762  1.9438
   20CHL1    C8 1420   0.938   1.262   9.209  0.1605  0.3130 -0.6554
   20CHL1    H8 1421   1.040   1.305   9.216  0.1922  0.2539 -0.7572
   20CHL1   C14 1422   0.880   1.270   9.065  0.2445  0.6780  0.1845
   20CHL1   H14 1423   0.779   1.228   9.081 -0.0381  1.2119 -0.1640
   20CHL1   C15 1424   0.934   1.188   8.953 -0.8776  0.9686  0.4984
   20CHL1  H15A 1425   1.045   1.196   8.948 -0.7536 -0.1894  1.1720
   20CHL1  H15B 1426   0.916   1.079   8.964  1.7822  0.1926 -2.0333
   20CHL1   C16 1427   0.871   1.253   8.830  0.1638  0.2301  0.7602
   20CHL1  H16A 1428   0.961   1.275   8.770 -1.1705  2.0969 -0.6091
   20CHL1  H16B 1429   0.808   1.190   8.764  2.0324 -0.4216 -0.4330
   20CHL1   C17 1430   0.802   1.383   8.878 -0.2597 -0.3578  0.6943
   20CHL1   H17 1431   0.698   1.352   8.903 -0.7648  0.5258 -0.2949
   20CHL1   C13 1432   0.862   1.411   9.015 -0.3929  0.0728 -0.2947
   20CHL1   C18 1433   1.003   1.483   9.007 -0.0416 -0.2485 -0.3106
   20CHL1  H18A 1434   1.006   1.569   8.937 -0.5033 -0.2249 -0.3031
   20CHL1  H18B 1435   1.045   1.506   9.107  0.8426 -0.5497 -0.6033
   20CHL1  H18C 1436   1.073   1.406   8.968  0.8768  0.1960  0.4412
   20CHL1   C12 1437   0.770   1.486   9.116  0.2589 -0.1224 -0.5639
   20CHL1  H12A 1438   0.759   1.591   9.082 -1.3294 -0.2606 -0.5278
   20CHL1  H12B 1439   0.666   1.446   9.107  0.2647 -0.5416  1.0798
   20CHL1   C11 1440   0.818   1.475   9.264 -0.3604 -0.4071  0.4166
   20CHL1  H11A 1441   0.906   1.542   9.259  1.5061 -2.8348 -0.3351
   20CHL1  H11B 1442   0.747   1.526   9.332  1.0754  1.8353  0.2904
   20CHL1    C9 1443   0.849   1.336   9.306 -0.0166 -0.4616 -0.6348
   20CHL1    H9 1444   0.757   1.274   9.307 -1.5207  1.6729  1.2836
   20CHL1   C10 1445   0.904   1.325   9.453 -0.0982 -0.4352 -0.0341
   20CHL1   C19 1446   1.016   1.422   9.477  0.3731  0.1619 -1.0409
   20CHL1  H19A 1447   1.082   1.404   9.564  0.2686  0.9814 -0.7866
   20CHL1  H19B 1448   1.083   1.422   9.389  0.5309  0.8190 -0.9231
   20CHL1  H19C 1449   0.976   1.524   9.497 -0.3349 -0.7014  2.3059
   20CHL1    C1 1450   0.791   1.361   9.561 -0.4803  0.2272 -0.5857
   20CHL1   H1A 1451   0.753   1.463   9.539  0.2415  0.6468  0.0918
   20CHL1   H1B 1452   0.699   1.303   9.537  0.6005 -1.3436 -1.0082
   20CHL1    C2 1453   0.821   1.332   9.711  0.5652  1.0118 -0.1413
   20CHL1   H2A 1454   0.727   1.330   9.769  1.2995 -0.8506  1.0401
   20CHL1   H2B 1455   0.887   1.413   9.750  3.0205 -1.3530  0.8416
   20CHL1   C20 1456   0.802   1.491   8.772 -0.1649 -0.0152 -0.2111
   20CHL1   H20 1457   0.896   1.550   8.765  0.3222 -0.8427 -0.5992
   20CHL1   C21 1458   0.694   1.604   8.800  0.3825  0.1144 -0.0381
   20CHL1  H21A 1459   0.732   1.672   8.879  1.4887 -1.2646  0.6314
   20CHL1  H21B 1460   0.597   1.564   8.834  0.5539 -0.5286 -0.3036
   20CHL1  H21C 1461   0.679   1.671   8.712 -2.3194 -1.2342 -0.6346
   20CHL1   C22 1462   0.791   1.443   8.621  0.2823 -0.5968  0.2639
   20CHL1  H22A 1463   0.736   1.347   8.606 -0.4751  0.1000 -1.5680
   20CHL1  H22B 1464   0.728   1.511   8.560 -0.4836 -1.2991  0.2479
   20CHL1   C23 1465   0.926   1.442   8.553 -0.0349  0.2491  0.1685
   20CHL1  H23A 1466   0.955   1.549   8.562 -2.4521  0.7696  2.2543
   20CHL1  H23B 1467   0.996   1.362   8.585 -0.5727 -0.7503 -1.1400
   20CHL1   C24 1468   0.900   1.424   8.402 -0.2754  0.1202  0.4028
   20CHL1  H24A 1469   0.872   1.318   8.380 -1.5759 -0.0345  2.6455
   20CHL1  H24B 1470   0.827   1.495   8.357  0.4292  0.1031 -0.8099
   20CHL1   C25 1471   1.025   1.446   8.302 -0.0339 -0.0153  0.4224
   20CHL1   H25 1472   1.040   1.555   8.295  0.4205  0.0285  2.0875
   20CHL1   C26 1473   1.155   1.385   8.365 -0.0122 -0.5204  0.0936
   20CHL1  H26A 1474   1.126   1.280   8.385 -0.5715 -0.1184  1.4180
   20CHL1  H26B 1475   1.235   1.386   8.288 -0.1804 -0.0443 -0.0822
   20CHL1  H26C 1476   1.194   1.442   8.451 -2.0667  1.5596 -0.2764
   20CHL1   C27 1477   0.995   1.389   8.157 -0.6155  0.6497  0.1784
   20CHL1  H27A 1478   1.004   1.279   8.159 -1.5143  0.4996 -2.6454
   20CHL1  H27B 1479   0.887   1.408   8.135 -1.1801 -3.3198 -0.8445
   20CHL1  H27C 1480   1.059   1.451   8.090  0.5819  1.4795  2.0443
   21CHL1    C3 1481   6.964   3.628   9.827 -0.0829 -0.1547  0.2793
   21CHL1    H3 1482   7.065   3.586   9.844 -1.3204 -3.0463  0.6936
   21CHL1    O3 1483   6.874   3.611   9.935 -0.2973  0.3039  0.6535
   21CHL1   H3' 1484   6.835   3.697   9.952 -0.6966 -0.0019  1.3320
   21CHL1    C4 1485   6.969   3.780   9.804  0.2227 -0.1260  0.2223
   21CHL1   H4A 1486   6.872   3.833   9.800 -0.7145 -1.8980 -0.9578
   21CHL1   H4B 1487   7.035   3.825   9.882 -0.8844  1.6655  0.1524
   21CHL1    C5 1488   7.026   3.811   9.660  0.2155  0.1757 -0.1970
   21CHL1    C6 1489   7.133   3.888   9.647  0.3402 -1.2414 -0.4749
   21CHL1    H6 1490   7.165   3.936   9.740 -1.3939  0.8884 -0.9331
   21CHL1    C7 1491   7.200   3.930   9.525 -0.9014  0.2755  0.5328
   21CHL1   H7A 1492   7.213   4.040   9.514  0.1478  0.0492 -0.5882
   21CHL1   H7B 1493   7.292   3.870   9.512 -1.1407 -0.3241  1.5679
   21CHL1    C8 1494   7.116   3.893   9.399  0.1127  0.1360  0.0419
   21CHL1    H8 1495   7.032   3.965   9.387 -2.1229 -2.4505 -0.5330
   21CHL1   C14 1496   7.203   3.895   9.276 -0.2532  0.5030 -0.2937
   21CHL1   H14 1497   7.261   3.801   9.287 -0.6649  0.1508 -1.0260
   21CHL1   C15 1498   7.292   4.021   9.260 -0.1914 -0.1981 -0.6376
   21CHL1  H15A 1499   7.247   4.111   9.306 -0.9787 -0.9065 -0.0036
   21CHL1  H15B 1500   7.390   4.019   9.311 -0.3978  0.0177 -0.2350
   21CHL1   C16 1501   7.298   4.032   9.102  0.6099 -0.1059 -0.2799
   21CHL1  H16A 1502   7.242   4.128   9.093  0.8702 -0.0170 -0.9658
   21CHL1  H16B 1503   7.403   4.042   9.067  1.1847 -0.1875  1.4157
   21CHL1   C17 1504   7.229   3.895   9.055  0.2733 -0.0552  0.0780
   21CHL1   H17 1505   7.303   3.814   9.075  1.1514  0.5344 -0.7398
   21CHL1   C13 1506   7.118   3.869   9.151 -0.2000  0.5889  0.5028
   21CHL1   C18 1507   7.002   3.959   9.139 -0.1145  0.4010 -0.2092
   21CHL1  H18A 1508   6.926   3.951   9.219 -1.0552 -2.8566 -1.3747
   21CHL1  H18B 1509   7.039   4.064   9.134  0.8716  0.0902  0.4047
   21CHL1  H18C 1510   6.945   3.939   9.046 -0.6841 -2.3108  0.6967
   21CHL1   C12 1511   7.066   3.728   9.163  0.0014  0.3746 -0.0766
   21CHL1  H12A 1512   7.001   3.707   9.076 -2.2524  0.4846  1.5349
   21CHL1  H12B 1513   7.155   3.661   9.161  0.4057  0.9329 -1.1708
   21CHL1   C11 1514   6.974   3.702   9.284 -0.6607  1.3282 -0.2487
   21CHL1  H11A 1515   6.878   3.758   9.275 -1.1394  0.7444  0.9156
   21CHL1  H11B 1516   6.952   3.593   9.285 -1.2026  1.4086  2.3943
   21CHL1    C9 1517   7.049   3.747   9.419  0.4535  0.4693 -0.1820
   21CHL1    H9 1518   7.136   3.680   9.439  0.1567 -0.7411 -2.7654
   21CHL1   C10 1519   6.961   3.733   9.546 -0.3865 -0.5207 -0.9136
   21CHL1   C19 1520   6.820   3.782   9.516  0.8144  0.1342 -0.0746
   21CHL1  H19A 1521   6.760   3.787   9.609  0.4579 -1.1612 -0.2333
   21CHL1  H19B 1522   6.825   3.890   9.489  0.6918  0.8292  2.5596
   21CHL1  H19C 1523   6.770   3.725   9.435 -0.9564 -0.0273  1.0921
   21CHL1    C1 1524   6.953   3.579   9.580 -0.0133 -0.2061 -0.3719
   21CHL1   H1A 1525   6.890   3.531   9.502 -0.1922 -0.7211  0.0812
   21CHL1   H1B 1526   7.059   3.544   9.578  0.7572  2.1122 -1.9746
   21CHL1    C2 1527   6.893   3.552   9.718  0.1717  0.5160  0.6469
   21CHL1   H2A 1528   6.905   3.444   9.740  3.0925  0.5062 -0.7453
   21CHL1   H2B 1529   6.782   3.561   9.720 -0.1707 -2.9897 -0.1855
   21CHL1   C20 1530   7.207   3.892   8.899  0.5594  0.4224 -0.6547
   21CHL1   H20 1531   7.107   3.937   8.881  0.5255  1.2751  1.4764
   21CHL1   C21 1532   7.207   3.746   8.844  0.2526  0.6818 -0.5829
   21CHL1  H21A 1533   7.305   3.700   8.870 -0.3016  0.2601  0.8291
   21CHL1  H21B 1534   7.192   3.741   8.735 -0.4071 -3.9290 -0.3796
   21CHL1  H21C 1535   7.137   3.686   8.906  1.5051  0.8511  1.0330
   21CHL1   C22 1536   7.316   3.956   8.813 -0.1142 -0.3575  0.0917
   21CHL1  H22A 1537   7.337   4.056   8.858  1.7438  0.2903 -2.0935
   21CHL1  H22B 1538   7.409   3.897   8.826 -0.2941 -0.1996  2.2280
   21CHL1   C23 1539   7.280   3.987   8.671  0.7857 -0.2666 -0.3615
   21CHL1  H23A 1540   7.202   3.920   8.627 -2.0066  2.3504  0.4124
   21CHL1  H23B 1541   7.231   4.086   8.671  2.3291  0.5205  0.9482
   21CHL1   C24 1542   7.403   4.019   8.580 -0.0693 -0.0050  0.0682
   21CHL1  H24A 1543   7.362   4.040   8.479 -1.6625 -0.6310  0.5676
   21CHL1  H24B 1544   7.447   4.113   8.620  1.1690  0.0140 -1.2852
   21CHL1   C25 1545   7.506   3.905   8.559  0.3036 -0.1030 -0.2013
   21CHL1   H25 1546   7.544   3.877   8.660 -0.6988  1.8639  0.7580
   21CHL1   C26 1547   7.429   3.781   8.504  0.1148 -0.7863  0.3333
   21CHL1  H26A 1548   7.354   3.750   8.579 -0.8668  2.2932  0.7081
   21CHL1  H26B 1549   7.385   3.816   8.408  1.3813 -1.1333 -0.3959
   21CHL1  H26C 1550   7.500   3.696   8.498  0.1863 -0.6402 -1.1754
   21CHL1   C27 1551   7.618   3.956   8.473 -1.0049 -0.1738  0.6060
   21CHL1  H27A 1552   7.699   3.881   8.468 -1.4256 -0.6809  1.3841
   21CHL1  H27B 1553   7.588   3.971   8.366  1.6009  0.3446 -0.0889
   21CHL1  H27C 1554   7.659   4.050   8.516  0.4183 -0.1584 -0.7107
   22CHL1    C3 1555   6.811   4.165   9.694  0.0165 -0.2087  0.0108
   22CHL1    H3 1556   6.888   4.088   9.673  0.7062  0.1248  1.2854
   22CHL1    O3 1557   6.766   4.135   9.824  0.5856  0.0546 -0.3001
   22CHL1   H3' 1558   6.836   4.151   9.887 -2.4046  1.2069  2.8826
   22CHL1    C4 1559   6.869   4.304   9.670  0.7551 -0.0437 -0.6234
   22CHL1   H4A 1560   6.786   4.375   9.690  1.6917  0.7860  0.3670
   22CHL1   H4B 1561   6.945   4.322   9.749  0.8551 -1.1623 -0.4557
   22CHL1    C5 1562   6.900   4.329   9.530 -0.2355 -0.5964  0.5247
   22CHL1    C6 1563   7.020   4.370   9.493 -0.0603  0.4808 -0.3565
   22CHL1    H6 1564   7.097   4.387   9.570 -1.4339  0.7452  1.0189
   22CHL1    C7 1565   7.062   4.398   9.348  0.4357 -0.0576 -0.0901
   22CHL1   H7A 1566   7.125   4.487   9.329 -2.1953  1.4003 -2.3146
   22CHL1   H7B 1567   7.112   4.302   9.322 -2.4520 -1.3853 -0.8702
   22CHL1    C8 1568   6.935   4.409   9.254  0.7480  0.2385  0.3229
   22CHL1    H8 1569   6.880   4.504   9.269 -0.6420 -0.1764 -1.9704
   22CHL1   C14 1570   6.989   4.413   9.113  0.3892  0.6015 -0.4092
   22CHL1   H14 1571   7.043   4.317   9.102  1.3787  0.9877  0.9814
   22CHL1   C15 1572   7.089   4.523   9.074 -0.2313  0.4740  0.0196
   22CHL1  H15A 1573   7.043   4.622   9.095 -3.9575 -1.1193 -0.1490
   22CHL1  H15B 1574   7.190   4.518   9.120 -0.9148  0.1956  1.5179
   22CHL1   C16 1575   7.097   4.496   8.923 -1.2966  0.6873  0.4258
   22CHL1  H16A 1576   7.114   4.586   8.860  1.5743  1.3160  1.9669
   22CHL1  H16B 1577   7.181   4.426   8.904 -0.4262  0.8627  3.4041
   22CHL1   C17 1578   6.973   4.409   8.874 -0.2275  0.7988 -0.0918
   22CHL1   H17 1579   7.009   4.305   8.859  0.0673  0.5227  2.3684
   22CHL1   C13 1580   6.884   4.408   9.002 -0.0235 -0.8561  0.4685
   22CHL1   C18 1581   6.789   4.531   9.006 -0.6599  0.4289 -0.2606
   22CHL1  H18A 1582   6.845   4.618   8.969  2.8106 -0.8675  1.7113
   22CHL1  H18B 1583   6.713   4.505   8.929 -0.5054  0.0282 -0.2766
   22CHL1  H18C 1584   6.737   4.550   9.103 -2.3340 -0.1217 -1.0164
   22CHL1   C12 1585   6.802   4.280   9.028 -0.0888  0.0433 -0.7376
   22CHL1  H12A 1586   6.716   4.273   8.958  0.4419  0.2569 -1.4134
   22CHL1  H12B 1587   6.857   4.184   9.025 -2.8630 -1.6513  0.3642
   22CHL1   C11 1588   6.735   4.281   9.166 -0.4043  0.2458 -0.3183
   22CHL1  H11A 1589   6.672   4.371   9.178  0.6296  0.6042  2.9168
   22CHL1  H11B 1590   6.682   4.185   9.184  1.3075 -0.3908  1.6893
   22CHL1    C9 1591   6.834   4.301   9.283 -0.9179 -0.5687  0.1605
   22CHL1    H9 1592   6.894   4.207   9.279 -0.0772 -0.0961  1.5218
   22CHL1   C10 1593   6.780   4.298   9.426  0.1750  0.8318 -0.3688
   22CHL1   C19 1594   6.678   4.408   9.443 -0.4130  0.4731  0.0518
   22CHL1  H19A 1595   6.579   4.377   9.402 -0.3668  0.0757  0.2356
   22CHL1  H19B 1596   6.659   4.434   9.549  0.8134  1.9557 -0.0645
   22CHL1  H19C 1597   6.718   4.499   9.393  2.1549 -0.6791 -0.0395
   22CHL1    C1 1598   6.719   4.158   9.450  0.4672  0.8439  0.0919
   22CHL1   H1A 1599   6.618   4.153   9.405 -0.7244 -2.8789  2.8981
   22CHL1   H1B 1600   6.775   4.067   9.417 -0.3500  0.3848 -0.0351
   22CHL1    C2 1601   6.687   4.134   9.605 -0.1327  0.7126 -0.1209
   22CHL1   H2A 1602   6.649   4.032   9.628  0.5793  0.5849  0.5185
   22CHL1   H2B 1603   6.606   4.206   9.630 -1.1305 -0.1939 -0.6716
   22CHL1   C20 1604   6.912   4.453   8.739  0.6163 -0.8700 -0.3119
   22CHL1   H20 1605   6.867   4.554   8.747  1.1305 -0.6034 -0.7109
   22CHL1   C21 1606   6.800   4.346   8.706  0.1542  0.0585 -0.2395
   22CHL1  H21A 1607   6.825   4.247   8.749 -1.4077 -1.0645 -1.8649
   22CHL1  H21B 1608   6.778   4.329   8.598  1.7597 -1.7335 -0.3123
   22CHL1  H21C 1609   6.707   4.388   8.750 -0.0454  0.3568 -0.9309
   22CHL1   C22 1610   7.015   4.475   8.628  0.4061  0.3441 -0.2810
   22CHL1  H22A 1611   6.962   4.486   8.531 -0.5861  1.0394  0.3276
   22CHL1  H22B 1612   7.066   4.574   8.633 -1.7240  1.4397  0.4831
   22CHL1   C23 1613   7.104   4.361   8.599 -0.3396  0.3053 -0.8246
   22CHL1  H23A 1614   7.145   4.324   8.696  0.4433 -0.2188 -1.3390
   22CHL1  H23B 1615   7.045   4.276   8.557  0.9516 -0.5036 -1.0540
   22CHL1   C24 1616   7.228   4.406   8.526  0.3152  0.0639  0.0762
   22CHL1  H24A 1617   7.276   4.500   8.562 -1.7988  0.9252  0.7231
   22CHL1  H24B 1618   7.304   4.326   8.539 -0.8526 -0.9260  1.0017
   22CHL1   C25 1619   7.205   4.432   8.380 -0.3405 -0.1989 -0.2203
   22CHL1   H25 1620   7.120   4.503   8.373  0.1385  0.4594  0.5359
   22CHL1   C26 1621   7.329   4.492   8.318  0.2083 -0.1516 -0.0182
   22CHL1  H26A 1622   7.416   4.423   8.323  1.8993  2.0284  2.1048
   22CHL1  H26B 1623   7.306   4.521   8.213  1.4627  2.1226  0.3002
   22CHL1  H26C 1624   7.356   4.588   8.369 -1.7933  1.4039 -1.8001
   22CHL1   C27 1625   7.168   4.302   8.304  0.2487 -0.6096  0.0471
   22CHL1  H27A 1626   7.123   4.342   8.211 -1.2751  0.4964  1.2504
   22CHL1  H27B 1627   7.260   4.245   8.278 -0.0988 -1.6060  0.9481
   22CHL1  H27C 1628   7.094   4.243   8.362 -0.7394 -1.4453 -2.0041
   23CHL1    C3 1629   3.558   6.859   9.798  0.1403  0.2245  0.2960
   23CHL1    H3 1630   3.609   6.766   9.762  0.9388  0.0047  1.9388
   23CHL1    O3 1631   3.534   6.831   9.931 -0.0720 -0.3528 -0.1121
   23CHL1   H3' 1632   3.524   6.917   9.972  1.2203  0.6566 -1.8134
   23CHL1    C4 1633   3.646   6.983   9.799 -0.6017 -0.0350 -0.0049
   23CHL1   H4A 1634   3.598   7.074   9.842 -0.2702  1.0441 -1.8735
   23CHL1   H4B 1635   3.741   6.957   9.850 -0.2236  0.3458 -0.5105
   23CHL1    C5 1636   3.667   7.032   9.655 -0.7957 -0.6091  0.1489
   23CHL1    C6 1637   3.789   7.060   9.615 -0.2818  0.7228 -0.8282
   23CHL1    H6 1638   3.876   7.056   9.682 -1.7218  1.0293  1.0701
   23CHL1    C7 1639   3.831   7.117   9.483  0.0521 -0.2834 -0.4817
   23CHL1   H7A 1640   3.888   7.210   9.502 -0.7499 -0.3275  2.2800
   23CHL1   H7B 1641   3.893   7.052   9.417 -0.4612 -2.3755  1.0341
   23CHL1    C8 1642   3.703   7.151   9.396  0.3656 -0.1971  0.5965
   23CHL1    H8 1643   3.671   7.246   9.443 -2.8309 -2.1714  2.5018
   23CHL1   C14 1644   3.739   7.184   9.252 -0.1395 -0.0814  0.1546
   23CHL1   H14 1645   3.773   7.092   9.201  0.6892 -0.0008  0.5648
   23CHL1   C15 1646   3.843   7.293   9.232  0.2729 -0.7140 -0.2549
   23CHL1  H15A 1647   3.810   7.385   9.284 -0.6552 -0.0255 -1.9891
   23CHL1  H15B 1648   3.946   7.264   9.263 -0.5565 -1.6704  1.6418
   23CHL1   C16 1649   3.832   7.313   9.086  0.7093 -0.8977  0.0982
   23CHL1  H16A 1650   3.844   7.420   9.057  1.5779 -1.4167 -1.5434
   23CHL1  H16B 1651   3.909   7.250   9.036  0.6218 -0.9998  0.0926
   23CHL1   C17 1652   3.688   7.260   9.038 -0.1374  0.4082  0.2436
   23CHL1   H17 1653   3.704   7.156   9.002  0.2345  0.7970 -0.7353
   23CHL1   C13 1654   3.620   7.230   9.171  0.7095  0.1526 -0.6249
   23CHL1   C18 1655   3.564   7.365   9.224  0.3755  0.7609  0.1021
   23CHL1  H18A 1656   3.466   7.398   9.183 -0.6784 -0.8934  1.2451
   23CHL1  H18B 1657   3.540   7.361   9.333 -1.7201 -1.0417 -0.4017
   23CHL1  H18C 1658   3.630   7.454   9.215  0.3199  0.7538 -0.3879
   23CHL1   C12 1659   3.510   7.116   9.176  0.0745 -0.2612  0.1503
   23CHL1  H12A 1660   3.418   7.151   9.124 -0.9663 -1.0809  1.3785
   23CHL1  H12B 1661   3.542   7.019   9.132 -1.3114 -1.0948  0.9310
   23CHL1   C11 1662   3.464   7.088   9.323  0.3514 -0.6480 -0.5465
   23CHL1  H11A 1663   3.416   7.181   9.358 -0.4831 -1.0857 -0.5115
   23CHL1  H11B 1664   3.389   7.006   9.330  1.6427 -1.9846 -1.9364
   23CHL1    C9 1665   3.583   7.052   9.412 -0.6826  0.6992 -0.4165
   23CHL1    H9 1666   3.632   6.957   9.381  1.5627  1.5162  0.4662
   23CHL1   C10 1667   3.546   7.036   9.564 -0.2921 -0.0398  0.6130
   23CHL1   C19 1668   3.472   7.164   9.608  0.2700  0.0162  0.3955
   23CHL1  H19A 1669   3.460   7.165   9.718  1.2269  0.7385  0.5008
   23CHL1  H19B 1670   3.524   7.257   9.576 -1.5526  1.0377  0.3460
   23CHL1  H19C 1671   3.368   7.169   9.568  1.0428  1.3978 -1.5387
   23CHL1    C1 1672   3.454   6.914   9.583  0.3629 -0.2445 -0.2482
   23CHL1   H1A 1673   3.360   6.945   9.533 -1.4070  0.2897  3.2156
   23CHL1   H1B 1674   3.487   6.820   9.533 -1.0650 -0.9203  0.0411
   23CHL1    C2 1675   3.427   6.879   9.725 -0.2311 -0.9485  0.0881
   23CHL1   H2A 1676   3.359   6.792   9.733 -1.8037  0.2558 -0.0095
   23CHL1   H2B 1677   3.365   6.949   9.785 -2.1836 -1.8338 -0.8642
   23CHL1   C20 1678   3.621   7.342   8.924 -0.5770 -0.3490 -0.8476
   23CHL1   H20 1679   3.580   7.437   8.966 -1.4065 -1.3200  0.5833
   23CHL1   C21 1680   3.510   7.265   8.858 -0.4784  0.4609 -0.7612
   23CHL1  H21A 1681   3.563   7.175   8.820 -0.7694  0.4489 -1.1394
   23CHL1  H21B 1682   3.468   7.319   8.770 -1.8827 -0.1998 -0.4934
   23CHL1  H21C 1683   3.429   7.243   8.931  2.6321  1.1688  3.0715
   23CHL1   C22 1684   3.726   7.390   8.820  0.0602 -0.6074 -0.1864
   23CHL1  H22A 1685   3.819   7.433   8.865 -0.2471  1.0457 -1.1039
   23CHL1  H22B 1686   3.757   7.293   8.776 -0.6982 -1.4301  1.0611
   23CHL1   C23 1687   3.686   7.500   8.720  0.1890  0.0141  0.1170
   23CHL1  H23A 1688   3.591   7.469   8.672  0.9263 -0.3509 -1.1143
   23CHL1  H23B 1689   3.652   7.596   8.765 -0.5206 -0.8883  1.5469
   23CHL1   C24 1690   3.803   7.517   8.628  0.0159 -0.0480  0.0816
   23CHL1  H24A 1691   3.780   7.601   8.560 -0.8113  0.5562  1.1049
   23CHL1  H24B 1692   3.896   7.544   8.682  1.3672 -1.7985 -1.2917
   23CHL1   C25 1693   3.844   7.391   8.542  0.1940 -0.3684  0.5530
   23CHL1   H25 1694   3.866   7.315   8.620  0.1814  1.4797  2.3761
   23CHL1   C26 1695   3.720   7.360   8.453  0.5074 -0.3212  0.3507
   23CHL1  H26A 1696   3.718   7.438   8.374  0.9366 -2.1997 -1.5549
   23CHL1  H26B 1697   3.738   7.267   8.397  0.5630 -0.1261  0.0425
   23CHL1  H26C 1698   3.628   7.337   8.512  1.3537 -0.9198  1.4675
   23CHL1   C27 1699   3.972   7.420   8.468 -0.4233 -0.0141 -0.0925
   23CHL1  H27A 1700   4.032   7.474   8.544 -2.2433  0.3667  1.0962
   23CHL1  H27B 1701   4.034   7.332   8.441 -0.4700 -0.3875  1.0234
   23CHL1  H27C 1702   3.954   7.482   8.377 -0.4372 -0.6838 -0.5481
   24CHL1    C3 1703   4.293   6.873   9.759 -0.3698 -0.1815  0.8909
   24CHL1    H3 1704   4.342   6.776   9.734  0.4770  0.4496  0.1105
   24CHL1    O3 1705   4.288   6.876   9.899  0.4079  0.0585  0.2770
   24CHL1   H3' 1706   4.381   6.876   9.922  0.4628  1.0500  0.0367
   24CHL1    C4 1707   4.387   6.982   9.710  0.2891  0.3134 -0.8065
   24CHL1   H4A 1708   4.351   7.081   9.746  1.6617  0.7195 -0.5497
   24CHL1   H4B 1709   4.487   6.972   9.757 -0.2907 -1.3416  0.1229
   24CHL1    C5 1710   4.401   6.975   9.568 -0.4535  0.3809 -0.5849
   24CHL1    C6 1711   4.515   6.943   9.512 -0.0511  0.1446  0.3369
   24CHL1    H6 1712   4.604   6.941   9.576 -1.5734 -1.0203  2.4860
   24CHL1    C7 1713   4.532   6.955   9.359  0.0528 -0.0007 -0.1948
   24CHL1   H7A 1714   4.625   7.015   9.348 -0.7000  1.0153 -1.0989
   24CHL1   H7B 1715   4.550   6.855   9.314 -2.2002 -0.8341  0.7020
   24CHL1    C8 1716   4.416   7.025   9.291  1.2603  0.1175  0.0074
   24CHL1    H8 1717   4.423   7.130   9.328  2.4861 -0.3323  1.1088
   24CHL1   C14 1718   4.430   7.009   9.135 -0.2404  0.0551 -0.1802
   24CHL1   H14 1719   4.408   6.900   9.135  0.4282 -0.1170  2.6515
   24CHL1   C15 1720   4.569   7.028   9.071  0.3178 -0.0439 -0.2780
   24CHL1  H15A 1721   4.603   7.132   9.092 -0.2311  0.1008 -0.0959
   24CHL1  H15B 1722   4.648   6.957   9.103  0.1434  0.0257  0.3110
   24CHL1   C16 1723   4.528   7.034   8.917  0.7745  0.3869  0.5222
   24CHL1  H16A 1724   4.590   7.115   8.873 -0.0379  1.6521  1.6189
   24CHL1  H16B 1725   4.580   6.946   8.875  3.2139  1.5413  1.0802
   24CHL1   C17 1726   4.376   7.034   8.903  0.1080 -0.3200 -0.2355
   24CHL1   H17 1727   4.356   6.926   8.893 -1.8157 -0.0584  0.6092
   24CHL1   C13 1728   4.323   7.073   9.047  0.2107 -0.5595  0.0773
   24CHL1   C18 1729   4.340   7.225   9.064 -0.0932  0.2647 -0.5347
   24CHL1  H18A 1730   4.328   7.254   9.170  0.1911  0.3604 -0.5279
   24CHL1  H18B 1731   4.442   7.262   9.042 -0.1572  1.7503  1.5434
   24CHL1  H18C 1732   4.265   7.282   9.005 -0.5603 -1.4668 -1.6481
   24CHL1   C12 1733   4.191   7.015   9.086  0.4597 -0.2030  0.0645
   24CHL1  H12A 1734   4.115   7.068   9.024  0.7663 -0.1651 -0.2794
   24CHL1  H12B 1735   4.192   6.906   9.063 -0.3080 -0.8404  2.8823
   24CHL1   C11 1736   4.164   7.022   9.241 -0.5585  0.0632 -0.4187
   24CHL1  H11A 1737   4.135   7.127   9.266  0.4151  0.1447  0.3625
   24CHL1  H11B 1738   4.067   6.969   9.253  0.4993 -1.5989  0.9980
   24CHL1    C9 1739   4.279   6.973   9.334  0.0702 -0.9113 -0.0104
   24CHL1    H9 1740   4.285   6.864   9.317  0.6999 -1.0980  1.3766
   24CHL1   C10 1741   4.270   6.996   9.490  0.1934 -0.8608  0.2190
   24CHL1   C19 1742   4.209   7.137   9.510 -0.8338 -0.2728  0.0347
   24CHL1  H19A 1743   4.242   7.207   9.429 -0.2593 -0.7612 -0.1566
   24CHL1  H19B 1744   4.098   7.137   9.500 -0.9266 -2.8263  0.8400
   24CHL1  H19C 1745   4.240   7.185   9.605  0.1401  0.4685 -0.6411
   24CHL1    C1 1746   4.160   6.895   9.541 -0.2627  0.4120 -0.2127
   24CHL1   H1A 1747   4.061   6.932   9.506  0.0593  0.5525 -0.9781
   24CHL1   H1B 1748   4.174   6.795   9.495  0.2555  0.0964  0.6185
   24CHL1    C2 1749   4.147   6.881   9.700  0.4272  0.2310 -0.8668
   24CHL1   H2A 1750   4.100   6.784   9.726 -0.9061  1.3007  0.8344
   24CHL1   H2B 1751   4.101   6.973   9.743  1.9514 -0.2974  1.9710
   24CHL1   C20 1752   4.330   7.112   8.788  0.1427  0.1053 -0.2937
   24CHL1   H20 1753   4.329   7.222   8.806 -1.4189  0.4196 -2.1123
   24CHL1   C21 1754   4.188   7.059   8.744 -0.4252 -0.0587  0.1265
   24CHL1  H21A 1755   4.121   7.043   8.831  0.9479 -0.2500  1.1757
   24CHL1  H21B 1756   4.199   6.959   8.697 -1.5811 -0.0083 -0.2579
   24CHL1  H21C 1757   4.132   7.117   8.668  1.3463  0.9562 -0.4200
   24CHL1   C22 1758   4.419   7.083   8.661  0.4554  0.1859 -0.0706
   24CHL1  H22A 1759   4.527   7.106   8.678  0.4395 -0.3572  0.7638
   24CHL1  H22B 1760   4.405   6.974   8.651 -0.8897  0.3903 -0.5257
   24CHL1   C23 1761   4.374   7.174   8.544 -0.6808 -0.0897 -0.3870
   24CHL1  H23A 1762   4.269   7.166   8.508 -1.4616  1.3610  1.4759
   24CHL1  H23B 1763   4.370   7.275   8.592 -3.3059 -0.6119  0.6039
   24CHL1   C24 1764   4.462   7.172   8.414  0.1637 -0.3615  0.0329
   24CHL1  H24A 1765   4.569   7.190   8.438  0.3520 -0.8778 -0.4160
   24CHL1  H24B 1766   4.449   7.070   8.373  1.9781 -1.1635  1.3878
   24CHL1   C25 1767   4.401   7.281   8.308 -0.1227 -0.6727 -0.2277
   24CHL1   H25 1768   4.292   7.261   8.305 -0.5811  0.7267  3.6676
   24CHL1   C26 1769   4.399   7.424   8.384  0.1531 -0.0703  0.1418
   24CHL1  H26A 1770   4.312   7.436   8.452 -0.2050  1.7119 -0.6328
   24CHL1  H26B 1771   4.493   7.437   8.442 -0.0261 -1.8666  0.8784
   24CHL1  H26C 1772   4.389   7.494   8.299 -0.3624 -0.7034 -0.3302
   24CHL1   C27 1773   4.487   7.301   8.189 -0.2528  0.4385  0.6832
   24CHL1  H27A 1774   4.433   7.359   8.110  0.1590 -0.4657 -0.2654
   24CHL1  H27B 1775   4.571   7.372   8.208 -0.8044  0.6574  2.3898
   24CHL1  H27C 1776   4.513   7.203   8.145 -0.0374  1.2656 -1.0962
   25CHL1    C3 1777   4.760   0.095   9.794  0.6577 -0.4764  0.5121
   25CHL1    H3 1778   4.865   0.060   9.786  1.9888  3.1434  1.2286
   25CHL1    O3 1779   4.724   0.073   9.924 -0.4900 -0.1360 -0.0072
   25CHL1   H3' 1780   4.757  -0.016   9.939  1.8810  0.8001  0.5041
   25CHL1    C4 1781   4.742   0.240   9.741  0.2613  0.1537 -0.6904
   25CHL1   H4A 1782   4.639   0.275   9.763  0.8197  0.5295  1.4995
   25CHL1   H4B 1783   4.814   0.300   9.801  0.5744 -1.7738  0.9192
   25CHL1    C5 1784   4.766   0.259   9.596  0.3955 -0.0193  0.2913
   25CHL1    C6 1785   4.860   0.343   9.546  0.0843  0.6689 -0.0639
   25CHL1    H6 1786   4.927   0.404   9.609  1.9662 -2.0894  0.7052
   25CHL1    C7 1787   4.894   0.361   9.402 -0.1449  0.5900 -0.0615
   25CHL1   H7A 1788   4.896   0.469   9.377 -0.3065  0.4373 -0.7311
   25CHL1   H7B 1789   4.995   0.317   9.385 -0.5384 -0.4311  0.1954
   25CHL1    C8 1790   4.786   0.294   9.304  0.4282 -0.4816 -0.2089
   25CHL1    H8 1791   4.709   0.374   9.300  1.6889  0.6433 -3.0988
   25CHL1   C14 1792   4.847   0.274   9.171  0.0334 -1.1536 -0.1539
   25CHL1   H14 1793   4.921   0.191   9.173  1.4731  0.0811 -1.1265
   25CHL1   C15 1794   4.933   0.392   9.099  0.7245 -0.2921  0.8775
   25CHL1  H15A 1795   4.876   0.487   9.097  1.5783  0.2090 -1.0556
   25CHL1  H15B 1796   5.019   0.426   9.161 -0.7449  1.2111  2.1323
   25CHL1   C16 1797   4.941   0.336   8.960  0.5519 -0.0814  0.0143
   25CHL1  H16A 1798   4.924   0.413   8.882 -1.8014 -1.1321 -0.5324
   25CHL1  H16B 1799   5.038   0.286   8.938  0.8466 -0.3118  1.7758
   25CHL1   C17 1800   4.839   0.225   8.942  0.8462 -0.3390  0.6175
   25CHL1   H17 1801   4.898   0.131   8.946  0.7943 -0.3645  0.7644
   25CHL1   C13 1802   4.743   0.226   9.062 -0.8790 -0.1136 -0.0192
   25CHL1   C18 1803   4.631   0.329   9.044  1.0827 -0.3985  0.2373
   25CHL1  H18A 1804   4.666   0.431   9.016 -2.5081  0.1629 -2.6382
   25CHL1  H18B 1805   4.561   0.291   8.966  1.4748 -0.9310  0.1467
   25CHL1  H18C 1806   4.578   0.347   9.139 -0.2836  2.3235 -0.9824
   25CHL1   C12 1807   4.690   0.092   9.114  0.6304  0.0800  0.6303
   25CHL1  H12A 1808   4.617   0.053   9.039  1.9378 -3.8398  1.2743
   25CHL1  H12B 1809   4.780   0.028   9.112 -0.5109 -1.5568  0.3473
   25CHL1   C11 1810   4.628   0.101   9.256 -0.4729  0.4182  0.3385
   25CHL1  H11A 1811   4.531   0.155   9.255 -1.9056 -2.0911 -1.4641
   25CHL1  H11B 1812   4.616   0.001   9.302 -0.5233  0.9993  1.6139
   25CHL1    C9 1813   4.727   0.162   9.361 -0.4405  0.0120 -0.1340
   25CHL1    H9 1814   4.814   0.093   9.353 -0.7321 -0.5028  1.0288
   25CHL1   C10 1815   4.685   0.165   9.507  0.8340 -0.3512 -0.1694
   25CHL1   C19 1816   4.541   0.221   9.501  1.1447 -0.6449 -0.6718
   25CHL1  H19A 1817   4.477   0.135   9.475 -0.7964  0.6284 -0.1958
   25CHL1  H19B 1818   4.498   0.250   9.600  1.6671 -2.1878  0.0203
   25CHL1  H19C 1819   4.528   0.294   9.419  3.0660 -2.0467 -2.2703
   25CHL1    C1 1820   4.696   0.020   9.564  0.7992 -0.4709  0.7567
   25CHL1   H1A 1821   4.627  -0.047   9.509 -2.1104  3.0770 -0.0894
   25CHL1   H1B 1822   4.797  -0.019   9.539  0.6555 -1.0566  1.0622
   25CHL1    C2 1823   4.675  -0.004   9.710 -0.1438 -0.3670 -0.2102
   25CHL1   H2A 1824   4.704  -0.109   9.732  0.3507 -0.4345 -1.1390
   25CHL1   H2B 1825   4.568   0.018   9.731 -1.0426 -2.0820 -2.6530
   25CHL1   C20 1826   4.786   0.229   8.806 -0.4363 -0.1295 -0.3861
   25CHL1   H20 1827   4.727   0.320   8.782  1.4337  1.2614  0.1902
   25CHL1   C21 1828   4.690   0.117   8.794 -0.0149 -0.0391  0.4596
   25CHL1  H21A 1829   4.656   0.103   8.689  2.2730  1.1775 -0.4781
   25CHL1  H21B 1830   4.589   0.128   8.839  0.1226  4.4784 -0.1390
   25CHL1  H21C 1831   4.731   0.021   8.833  3.0310  0.9555 -0.1733
   25CHL1   C22 1832   4.902   0.223   8.697  0.5857  0.5996  0.7706
   25CHL1  H22A 1833   4.950   0.316   8.662  0.8561  0.1344 -0.1024
   25CHL1  H22B 1834   4.976   0.154   8.742 -0.2040  0.0763  1.2801
   25CHL1   C23 1835   4.866   0.157   8.562 -0.1021 -0.3175 -1.0822
   25CHL1  H23A 1836   4.826   0.056   8.586 -1.4779  0.9330  2.3706
   25CHL1  H23B 1837   4.786   0.215   8.512  0.4868  0.5704 -1.0168
   25CHL1   C24 1838   4.991   0.141   8.473  0.2459  0.2939  0.0232
   25CHL1  H24A 1839   5.049   0.235   8.460  1.8789 -0.5035  1.5011
   25CHL1  H24B 1840   5.054   0.060   8.514 -2.5639 -1.8108  0.3230
   25CHL1   C25 1841   4.951   0.094   8.328 -0.0915  0.1821  0.2563
   25CHL1   H25 1842   4.874   0.168   8.297 -2.1671 -0.6622  3.1971
   25CHL1   C26 1843   5.077   0.099   8.241  0.2758 -0.3235 -0.2521
   25CHL1  H26A 1844   5.133   0.003   8.241  2.2358  0.7737 -1.0289
   25CHL1  H26B 1845   5.049   0.097   8.133 -0.1121  1.4120 -0.2066
   25CHL1  H26C 1846   5.152   0.175   8.272 -0.3992  0.1174  0.3018
   25CHL1   C27 1847   4.892  -0.039   8.314 -0.5647 -0.8804  0.2748
   25CHL1  H27A 1848   4.786  -0.047   8.348  0.2160  2.2379  3.8264
   25CHL1  H27B 1849   4.886  -0.083   8.212 -2.7493  2.0397 -0.9373
   25CHL1  H27C 1850   4.949  -0.107   8.381  0.7375  1.6390  1.7777
   26CHL1    C3 1851   0.203   4.328   9.778 -0.3895 -0.1173 -0.2901
   26CHL1    H3 1852   0.255   4.230   9.777 -0.4226 -0.1274 -3.0574
   26CHL1    O3 1853   0.162   4.352   9.912 -0.6848  0.1572 -0.0617
   26CHL1   H3' 1854   0.164   4.447   9.925 -1.0835  0.2436 -0.5922
   26CHL1    C4 1855   0.300   4.437   9.731 -0.3144 -0.3700 -0.0859
   26CHL1   H4A 1856   0.270   4.541   9.757  1.6727 -0.1023  1.2456
   26CHL1   H4B 1857   0.391   4.421   9.792 -0.1730 -1.1843 -0.4986
   26CHL1    C5 1858   0.320   4.417   9.585  0.1892 -0.2848  0.2680
   26CHL1    C6 1859   0.447   4.394   9.540 -0.3309 -0.6241  0.2788
   26CHL1    H6 1860   0.530   4.386   9.612 -0.9689 -0.6255  1.0199
   26CHL1    C7 1861   0.477   4.392   9.392  0.4422 -0.2355  0.1570
   26CHL1   H7A 1862   0.559   4.467   9.380  0.3349 -0.0717  0.4572
   26CHL1   H7B 1863   0.513   4.290   9.369  0.4032  0.3570 -2.7734
   26CHL1    C8 1864   0.360   4.427   9.290 -0.0082 -0.0328  0.2505
   26CHL1    H8 1865   0.353   4.537   9.279 -2.0038 -0.3540 -2.1671
   26CHL1   C14 1866   0.393   4.370   9.155 -0.2547 -0.3338 -0.4997
   26CHL1   H14 1867   0.383   4.261   9.175 -2.5174 -0.0711 -0.0661
   26CHL1   C15 1868   0.537   4.391   9.102 -0.2924  0.2873  0.1202
   26CHL1  H15A 1869   0.561   4.497   9.124 -1.7127  1.1566 -2.2956
   26CHL1  H15B 1870   0.609   4.318   9.144  2.2318  2.1451 -0.8364
   26CHL1   C16 1871   0.521   4.364   8.951 -0.5163 -0.1486 -0.2337
   26CHL1  H16A 1872   0.567   4.452   8.901 -0.6299 -0.8428 -1.6027
   26CHL1  H16B 1873   0.584   4.275   8.927  0.6201  0.9741 -1.5048
   26CHL1   C17 1874   0.373   4.345   8.926  0.8404  0.1495  1.0507
   26CHL1   H17 1875   0.349   4.237   8.919 -1.7403  0.8435 -1.7922
   26CHL1   C13 1876   0.293   4.405   9.040  0.6204 -0.1333 -0.3907
   26CHL1   C18 1877   0.261   4.552   9.021 -0.0241  0.4168  0.3070
   26CHL1  H18A 1878   0.348   4.612   8.990 -0.8488  1.1584 -0.6140
   26CHL1  H18B 1879   0.176   4.548   8.949 -0.3460  1.4832  0.6186
   26CHL1  H18C 1880   0.228   4.593   9.118 -0.1502 -1.7086  1.1868
   26CHL1   C12 1881   0.163   4.337   9.092  0.4319  0.0140  0.4500
   26CHL1  H12A 1882   0.083   4.334   9.014 -0.1604 -0.5728  1.0757
   26CHL1  H12B 1883   0.191   4.231   9.104  2.8573  0.3467 -1.7795
   26CHL1   C11 1884   0.112   4.389   9.233  0.0291 -0.4101 -0.1017
   26CHL1  H11A 1885   0.094   4.497   9.220 -1.2230 -0.9048 -3.0238
   26CHL1  H11B 1886   0.026   4.327   9.264  1.1969 -1.8666  0.2951
   26CHL1    C9 1887   0.228   4.371   9.337  0.0168 -0.2256 -0.5940
   26CHL1    H9 1888   0.243   4.262   9.345  3.0424  0.2212  0.8436
   26CHL1   C10 1889   0.198   4.415   9.485 -0.3516  0.1364 -0.2835
   26CHL1   C19 1890   0.125   4.558   9.486 -0.6596  0.3555 -0.3861
   26CHL1  H19A 1891   0.161   4.617   9.399 -0.0014  1.1135  0.3853
   26CHL1  H19B 1892   0.023   4.515   9.474  0.7626 -3.1588 -0.2745
   26CHL1  H19C 1893   0.116   4.610   9.584 -1.1357 -0.0126 -0.2305
   26CHL1    C1 1894   0.108   4.302   9.544 -0.1850 -0.0198 -0.3607
   26CHL1   H1A 1895   0.016   4.301   9.481 -0.8309  1.4718  0.5484
   26CHL1   H1B 1896   0.168   4.209   9.540 -1.6156 -1.1105  2.0856
   26CHL1    C2 1897   0.076   4.321   9.691 -0.1372 -1.1888 -0.4807
   26CHL1   H2A 1898   0.011   4.236   9.723 -1.2211 -0.0329  0.4377
   26CHL1   H2B 1899   0.012   4.411   9.708 -0.2407 -1.5495  1.1430
   26CHL1   C20 1900   0.339   4.396   8.785 -0.6127  0.3156  0.3744
   26CHL1   H20 1901   0.346   4.507   8.789 -0.9128  0.2998  1.3126
   26CHL1   C21 1902   0.194   4.351   8.757 -0.9913  0.2080 -0.0423
   26CHL1  H21A 1903   0.121   4.402   8.823 -2.0828 -1.4681  0.0727
   26CHL1  H21B 1904   0.183   4.243   8.783  1.2016  0.2969  1.4406
   26CHL1  H21C 1905   0.167   4.383   8.655 -2.5821  1.3201  0.7067
   26CHL1   C22 1906   0.425   4.333   8.666 -0.5127  0.3266  0.1970
   26CHL1  H22A 1907   0.533   4.339   8.693  0.0308 -0.5272 -1.6521
   26CHL1  H22B 1908   0.384   4.234   8.637  0.4215 -0.1672  0.5572
   26CHL1   C23 1909   0.408   4.408   8.531  0.1497 -0.0775  0.0711
   26CHL1  H23A 1910   0.303   4.408   8.497  0.1176 -0.0456  0.1683
   26CHL1  H23B 1911   0.436   4.516   8.537 -0.9931  0.2121  0.2889
   26CHL1   C24 1912   0.496   4.345   8.425  0.2123  0.1073  0.7545
   26CHL1  H24A 1913   0.597   4.355   8.471  0.4216  0.0421  0.3132
   26CHL1  H24B 1914   0.484   4.235   8.425 -0.1896  0.1488  0.9567
   26CHL1   C25 1915   0.484   4.403   8.289  0.0022 -0.4496 -0.0044
   26CHL1   H25 1916   0.389   4.358   8.252 -0.4758 -0.9557  1.7651
   26CHL1   C26 1917   0.509   4.553   8.270 -0.0883  0.1727 -0.8311
   26CHL1  H26A 1918   0.606   4.570   8.322 -0.2979  1.4519 -0.8518
   26CHL1  H26B 1919   0.520   4.591   8.166  2.1405  1.6834 -0.0836
   26CHL1  H26C 1920   0.435   4.616   8.324  1.0926  0.0514  0.9799
   26CHL1   C27 1921   0.597   4.336   8.203 -0.3412  0.4306  0.5748
   26CHL1  H27A 1922   0.612   4.391   8.109  0.9501  0.6000  0.8772
   26CHL1  H27B 1923   0.692   4.326   8.259 -0.2865  1.9718  0.7699
   26CHL1  H27C 1924   0.562   4.232   8.183 -2.1880  1.1677 -0.0852
   27CHL1    C3 1925   0.273   1.342   9.801  0.6327  0.0326 -0.5109
   27CHL1    H3 1926   0.234   1.238   9.798  0.9111 -0.0824 -0.2073
   27CHL1    O3 1927   0.293   1.373   9.940 -0.5651  1.0470 -0.1963
   27CHL1   H3' 1928   0.209   1.411   9.966  0.7368  2.7489  1.7003
   27CHL1    C4 1929   0.410   1.338   9.726  0.4150  0.3134 -0.1616
   27CHL1   H4A 1930   0.456   1.437   9.744 -0.6846  0.8107 -0.0196
   27CHL1   H4B 1931   0.466   1.258   9.778 -0.2633 -1.7442 -2.5176
   27CHL1    C5 1932   0.389   1.314   9.577  0.0006 -0.1428  0.5258
   27CHL1    C6 1933   0.448   1.203   9.517  0.1818 -0.4960 -0.3761
   27CHL1    H6 1934   0.507   1.127   9.571 -1.0511 -3.0507 -2.5439
   27CHL1    C7 1935   0.437   1.176   9.368 -0.4204 -0.5691 -0.4315
   27CHL1   H7A 1936   0.535   1.150   9.323  1.0557  0.3091  2.1851
   27CHL1   H7B 1937   0.360   1.096   9.356 -1.6461  0.4855  0.2334
   27CHL1    C8 1938   0.385   1.299   9.294  0.1515 -0.3378 -0.6504
   27CHL1    H8 1939   0.468   1.373   9.300 -0.7079  0.7237 -1.6684
   27CHL1   C14 1940   0.350   1.270   9.148  0.1426  0.4264 -0.3212
   27CHL1   H14 1941   0.268   1.196   9.150  0.2780  0.3008  0.6043
   27CHL1   C15 1942   0.455   1.198   9.063 -0.8572  0.0437 -0.3773
   27CHL1  H15A 1943   0.548   1.256   9.082 -1.1968  0.5887 -0.3680
   27CHL1  H15B 1944   0.478   1.096   9.102 -0.4978 -0.2020 -1.2144
   27CHL1   C16 1945   0.402   1.200   8.925  0.0818 -0.0615  0.5533
   27CHL1  H16A 1946   0.483   1.233   8.856  0.5566 -0.7681  0.7634
   27CHL1  H16B 1947   0.372   1.105   8.876  0.6884 -0.1250  0.2989
   27CHL1   C17 1948   0.280   1.294   8.932  0.1546  0.7544  0.1887
   27CHL1   H17 1949   0.190   1.228   8.932  0.9905 -0.4373 -2.7862
   27CHL1   C13 1950   0.282   1.380   9.057 -0.6937  0.0293  0.0062
   27CHL1   C18 1951   0.382   1.493   9.028  0.1520 -0.4814  0.4375
   27CHL1  H18A 1952   0.334   1.586   8.991  1.2786  1.0703  2.7410
   27CHL1  H18B 1953   0.438   1.509   9.123  1.6409  1.6853 -0.7632
   27CHL1  H18C 1954   0.459   1.470   8.951 -1.5516  0.3410 -1.5554
   27CHL1   C12 1955   0.147   1.423   9.121 -0.0272  0.7157 -0.4552
   27CHL1  H12A 1956   0.098   1.509   9.070  0.7800  1.6547  0.3246
   27CHL1  H12B 1957   0.075   1.339   9.127  0.3877  0.4130  0.4158
   27CHL1   C11 1958   0.173   1.466   9.274 -0.4377  0.2409 -0.0419
   27CHL1  H11A 1959   0.242   1.551   9.256 -0.4763  0.8295  2.4736
   27CHL1  H11B 1960   0.087   1.499   9.335  1.2951  0.9996  2.0416
   27CHL1    C9 1961   0.262   1.359   9.359 -0.4696 -0.4573 -0.3582
   27CHL1    H9 1962   0.191   1.275   9.375 -1.8196  1.0082  1.6724
   27CHL1   C10 1963   0.294   1.408   9.503  0.1502 -0.0456  1.0513
   27CHL1   C19 1964   0.370   1.550   9.496 -0.5457 -0.0730  0.2304
   27CHL1  H19A 1965   0.463   1.536   9.437 -0.3050  1.4104  0.2520
   27CHL1  H19B 1966   0.305   1.625   9.445  2.1485 -0.1491 -3.5192
   27CHL1  H19C 1967   0.387   1.586   9.599  1.0533 -2.0436  0.6748
   27CHL1    C1 1968   0.170   1.424   9.582  0.4558 -0.0540  0.8860
   27CHL1   H1A 1969   0.127   1.516   9.538  1.2566 -0.6295 -1.1874
   27CHL1   H1B 1970   0.092   1.347   9.561  0.0710  0.3268  0.9039
   27CHL1    C2 1971   0.185   1.446   9.735  0.1191 -0.4187  0.0594
   27CHL1   H2A 1972   0.085   1.442   9.783 -0.6513 -1.3836 -1.5836
   27CHL1   H2B 1973   0.239   1.542   9.748 -1.3374  0.3873  0.3218
   27CHL1   C20 1974   0.262   1.358   8.792 -0.6300 -0.3586 -0.5018
   27CHL1   H20 1975   0.343   1.433   8.777 -0.3448 -0.3356  1.0821
   27CHL1   C21 1976   0.127   1.427   8.790 -0.2230  0.0204 -0.2984
   27CHL1  H21A 1977   0.117   1.461   8.684  2.0638 -2.4685 -1.3724
   27CHL1  H21B 1978   0.126   1.503   8.870  1.1649 -1.0098  0.7269
   27CHL1  H21C 1979   0.046   1.356   8.818  0.9418 -1.0866  0.3417
   27CHL1   C22 1980   0.270   1.269   8.662  0.4780 -0.8402  0.8274
   27CHL1  H22A 1981   0.336   1.181   8.673  0.6713 -0.8120 -0.0382
   27CHL1  H22B 1982   0.165   1.235   8.655 -0.1539  1.0803  0.7444
   27CHL1   C23 1983   0.305   1.343   8.531 -0.1742 -0.1706  0.1252
   27CHL1  H23A 1984   0.243   1.434   8.517 -0.1491 -0.2733 -0.7173
   27CHL1  H23B 1985   0.414   1.365   8.519 -0.9629  2.9320 -1.9482
   27CHL1   C24 1986   0.276   1.261   8.403  0.0964 -0.3803 -0.3980
   27CHL1  H24A 1987   0.346   1.175   8.405  0.0938 -0.3514  1.1825
   27CHL1  H24B 1988   0.175   1.216   8.404 -0.4352  0.6765 -2.9336
   27CHL1   C25 1989   0.287   1.346   8.271 -0.2257 -0.3367 -0.8123
   27CHL1   H25 1990   0.221   1.434   8.286  0.5132  0.1344 -0.2782
   27CHL1   C26 1991   0.425   1.407   8.238  0.0397 -0.1628  0.1852
   27CHL1  H26A 1992   0.504   1.333   8.263 -0.1544 -1.0416 -1.6696
   27CHL1  H26B 1993   0.424   1.438   8.131  0.5774  0.6785  0.4238
   27CHL1  H26C 1994   0.427   1.501   8.296 -1.6214 -0.9379  1.5416
   27CHL1   C27 1995   0.229   1.268   8.154  0.3710  0.7514  0.1233
   27CHL1  H27A 1996   0.140   1.207   8.180  0.3101  0.7786 -0.0250
   27CHL1  H27B 1997   0.214   1.329   8.062 -0.2123  2.5854  1.4125
   27CHL1  H27C 1998   0.294   1.181   8.131 -1.6111 -0.4194 -1.2485
   28CHL1    C3 1999   5.939   6.896   9.688  0.0705  0.5789  0.1714
   28CHL1    H3 2000   5.834   6.917   9.658  0.2073  2.5717  0.9687
   28CHL1    O3 2001   5.972   6.941   9.820 -0.2545  0.5323 -0.2823
   28CHL1   H3' 2002   6.066   6.961   9.817 -0.1461 -0.1211 -1.5468
   28CHL1    C4 2003   5.946   6.744   9.674 -0.2118  0.2700 -0.5757
   28CHL1   H4A 2004   6.042   6.703   9.713  0.4967  3.1491  0.8292
   28CHL1   H4B 2005   5.862   6.710   9.737 -1.0762  0.4058 -1.6477
   28CHL1    C5 2006   5.922   6.702   9.529  0.6938  0.0838  0.9444
   28CHL1    C6 2007   5.824   6.616   9.486 -0.1798  0.3055 -0.2635
   28CHL1    H6 2008   5.749   6.570   9.553  0.2628 -0.5924 -0.3795
   28CHL1    C7 2009   5.810   6.564   9.347  0.7597  0.1879 -0.5283
   28CHL1   H7A 2010   5.791   6.455   9.352 -1.8802  0.6346 -0.1107
   28CHL1   H7B 2011   5.721   6.605   9.295  0.3614 -0.5717 -0.4562
   28CHL1    C8 2012   5.935   6.578   9.263  0.0276  0.1687 -0.0963
   28CHL1    H8 2013   6.007   6.504   9.304 -0.1574  0.3053  0.4807
   28CHL1   C14 2014   5.904   6.550   9.113  0.4007  0.2602 -0.2167
   28CHL1   H14 2015   5.836   6.628   9.072  0.5264 -0.1925 -1.2716
   28CHL1   C15 2016   5.858   6.409   9.067  0.1168  0.1851  0.3941
   28CHL1  H15A 2017   5.907   6.344   9.143 -0.3561  0.5430  1.0075
   28CHL1  H15B 2018   5.749   6.389   9.074 -0.3453  1.3236 -2.5070
   28CHL1   C16 2019   5.901   6.405   8.915  0.3715 -0.0455 -0.4244
   28CHL1  H16A 2020   5.966   6.317   8.895  1.7671  0.9848 -0.4891
   28CHL1  H16B 2021   5.808   6.407   8.854  1.2319  0.3683 -1.7205
   28CHL1   C17 2022   5.969   6.541   8.886  0.1031  0.1414  0.2651
   28CHL1   H17 2023   5.880   6.604   8.866  0.9248  1.5682  1.0503
   28CHL1   C13 2024   6.026   6.582   9.027  0.2537 -0.7321  0.1501
   28CHL1   C18 2025   6.149   6.485   9.057 -0.0041 -0.1973  0.2647
   28CHL1  H18A 2026   6.132   6.378   9.030  0.7288 -0.1664 -0.3192
   28CHL1  H18B 2027   6.237   6.526   9.004 -2.2402  0.8994 -2.7036
   28CHL1  H18C 2028   6.180   6.491   9.163  0.8471 -0.7055  0.0495
   28CHL1   C12 2029   6.080   6.728   9.039  0.2541  0.0009  0.1467
   28CHL1  H12A 2030   6.176   6.744   8.984  0.6261 -0.5845  0.6119
   28CHL1  H12B 2031   6.004   6.798   8.998 -0.0321 -0.5284 -0.2287
   28CHL1   C11 2032   6.114   6.758   9.186  0.3437  0.0759  0.2008
   28CHL1  H11A 2033   6.205   6.698   9.209 -0.7056 -2.2784 -1.4797
   28CHL1  H11B 2034   6.133   6.867   9.193 -0.5740  0.3099 -0.7802
   28CHL1    C9 2035   6.002   6.718   9.283 -0.4887 -0.1891  0.6034
   28CHL1    H9 2036   5.926   6.792   9.248 -1.6864 -2.4465 -1.6830
   28CHL1   C10 2037   6.032   6.759   9.431  1.1788 -0.2983  0.4198
   28CHL1   C19 2038   6.173   6.709   9.470 -0.0445  0.6257 -0.2732
   28CHL1  H19A 2039   6.247   6.752   9.399  1.2280 -1.9334 -0.5779
   28CHL1  H19B 2040   6.214   6.733   9.570 -0.0217 -2.4549  0.5030
   28CHL1  H19C 2041   6.168   6.598   9.462  1.2284  0.1402  4.3346
   28CHL1    C1 2042   6.024   6.914   9.439  0.1162 -0.2360 -0.6252
   28CHL1   H1A 2043   6.105   6.957   9.377  1.3181  0.5813  1.4796
   28CHL1   H1B 2044   5.929   6.949   9.393  0.9912  1.0529 -1.4626
   28CHL1    C2 2045   6.032   6.971   9.585 -0.0314 -0.0120  0.5816
   28CHL1   H2A 2046   6.013   7.080   9.590 -0.5913 -0.1557  1.5442
   28CHL1   H2B 2047   6.140   6.964   9.611  0.2992  2.2759 -0.0794
   28CHL1   C20 2048   6.052   6.550   8.761 -0.0761 -0.0709  0.2709
   28CHL1   H20 2049   6.146   6.500   8.793 -0.4817 -1.3677 -0.5228
   28CHL1   C21 2050   6.074   6.691   8.723 -0.3525 -0.1505  0.4126
   28CHL1  H21A 2051   6.148   6.735   8.793  1.2383 -1.0189 -0.6941
   28CHL1  H21B 2052   5.980   6.750   8.721 -0.4113 -0.2921 -2.0492
   28CHL1  H21C 2053   6.114   6.700   8.620  0.1296  0.4599  0.6480
   28CHL1   C22 2054   6.005   6.472   8.634 -0.0258 -0.3992  0.2721
   28CHL1  H22A 2055   6.087   6.441   8.566 -0.5195 -1.1954  0.0407
   28CHL1  H22B 2056   5.969   6.375   8.675  0.4978 -0.7258 -0.0353
   28CHL1   C23 2057   5.884   6.534   8.552 -0.0757 -0.3505  0.5962
   28CHL1  H23A 2058   5.794   6.532   8.618  0.9365  1.7121  2.0654
   28CHL1  H23B 2059   5.892   6.644   8.541 -2.6552 -0.4452 -3.2205
   28CHL1   C24 2060   5.856   6.460   8.418 -0.4538  0.2646 -0.3550
   28CHL1  H24A 2061   5.954   6.441   8.369 -0.5701 -0.0348 -0.4747
   28CHL1  H24B 2062   5.808   6.363   8.444  0.6940 -0.3577 -0.4814
   28CHL1   C25 2063   5.764   6.539   8.323 -0.6418 -0.8799 -0.5794
   28CHL1   H25 2064   5.666   6.527   8.374 -0.6872 -1.2713 -0.7585
   28CHL1   C26 2065   5.799   6.688   8.292 -0.3455  0.1959 -0.4855
   28CHL1  H26A 2066   5.781   6.761   8.375 -0.1546 -0.8231  0.4569
   28CHL1  H26B 2067   5.905   6.695   8.258  0.1405  1.4131  1.2028
   28CHL1  H26C 2068   5.737   6.733   8.212 -1.0674 -0.6694 -0.4193
   28CHL1   C27 2069   5.760   6.462   8.194  0.2042  0.3464  0.1578
   28CHL1  H27A 2070   5.747   6.355   8.222  0.2377  0.7305  1.6646
   28CHL1  H27B 2071   5.675   6.506   8.137  0.0167  0.3753  0.4617
   28CHL1  H27C 2072   5.857   6.470   8.140 -0.9051 -0.3175 -2.0044
   29CHL1    C3 2073   4.257   5.442   6.221 -0.8234 -0.8352 -0.1368
   29CHL1    H3 2074   4.152   5.438   6.187 -0.7954  2.0782 -0.6374
   29CHL1    O3 2075   4.355   5.433   6.116 -0.4731 -0.4012  0.4203
   29CHL1   H3' 2076   4.398   5.349   6.134 -1.3579 -1.1306 -0.6982
   29CHL1    C4 2077   4.284   5.560   6.317 -0.4020 -0.4519  0.0116
   29CHL1   H4A 2078   4.389   5.554   6.353 -0.7673 -0.2088  1.1555
   29CHL1   H4B 2079   4.263   5.644   6.248  0.6083  0.2392  0.5316
   29CHL1    C5 2080   4.178   5.554   6.435  0.2528  0.3700  1.0312
   29CHL1    C6 2081   4.093   5.658   6.458  0.2769  0.6511  0.4432
   29CHL1    H6 2082   4.098   5.745   6.390  1.3208 -0.3903 -0.8268
   29CHL1    C7 2083   4.012   5.662   6.584  0.2526 -0.4921  0.1728
   29CHL1   H7A 2084   4.027   5.759   6.636 -0.7612  0.6777 -1.6707
   29CHL1   H7B 2085   3.903   5.674   6.563  0.4750 -0.9156 -1.2213
   29CHL1    C8 2086   4.029   5.559   6.691  0.1446 -0.0348  0.4167
   29CHL1    H8 2087   4.121   5.589   6.747 -0.4118  2.8637 -0.1270
   29CHL1   C14 2088   3.903   5.538   6.784  0.3540 -0.2973 -0.3652
   29CHL1   H14 2089   3.829   5.478   6.727  0.2368  0.8412 -1.4361
   29CHL1   C15 2090   3.830   5.667   6.822 -0.2126  0.0556 -0.0888
   29CHL1  H15A 2091   3.896   5.752   6.849  0.1115  0.0088 -0.7157
   29CHL1  H15B 2092   3.773   5.706   6.735 -0.5691  1.9506  0.9776
   29CHL1   C16 2093   3.749   5.622   6.945 -0.2139  0.4129 -0.2956
   29CHL1  H16A 2094   3.785   5.689   7.026 -1.2632  1.5778 -0.7832
   29CHL1  H16B 2095   3.642   5.624   6.917 -0.2909  0.2088 -0.0153
   29CHL1   C17 2096   3.788   5.471   6.970 -0.2727 -0.1074  0.1313
   29CHL1   H17 2097   3.731   5.406   6.900  1.3015 -1.7009  0.3001
   29CHL1   C13 2098   3.924   5.453   6.904  0.1455 -0.6192  0.1968
   29CHL1   C18 2099   4.037   5.519   6.990 -0.0180  0.2224 -0.3434
   29CHL1  H18A 2100   4.130   5.534   6.932  0.3688  0.3158  0.2861
   29CHL1  H18B 2101   4.014   5.621   7.029  3.8277  2.4051 -3.4754
   29CHL1  H18C 2102   4.060   5.439   7.064 -3.0621 -1.4025 -1.0807
   29CHL1   C12 2103   3.963   5.310   6.853 -0.5208 -0.0599 -0.0503
   29CHL1  H12A 2104   4.002   5.256   6.941  1.7870  1.1883 -0.2498
   29CHL1  H12B 2105   3.878   5.254   6.808 -0.0034 -0.0152 -1.1075
   29CHL1   C11 2106   4.083   5.322   6.751  0.9143  0.8776 -0.1213
   29CHL1  H11A 2107   4.169   5.349   6.815  1.2397  0.1739 -0.2575
   29CHL1  H11B 2108   4.104   5.224   6.702  0.0676  0.9675 -0.6800
   29CHL1    C9 2109   4.062   5.419   6.627  0.7271 -0.0698 -0.2033
   29CHL1    H9 2110   3.967   5.392   6.575 -0.3397  0.6253  1.3289
   29CHL1   C10 2111   4.177   5.428   6.519  0.2108 -0.2019  0.4486
   29CHL1   C19 2112   4.309   5.427   6.597 -1.0320  0.1243 -0.3753
   29CHL1  H19A 2113   4.316   5.519   6.659  0.9210  1.8382 -3.0875
   29CHL1  H19B 2114   4.309   5.342   6.670 -0.4381  0.2237 -0.2654
   29CHL1  H19C 2115   4.397   5.400   6.535 -0.6631  0.6931 -0.1001
   29CHL1    C1 2116   4.171   5.304   6.427 -0.4245  0.3105 -0.9275
   29CHL1   H1A 2117   4.183   5.208   6.481  0.0572  0.6671 -0.3970
   29CHL1   H1B 2118   4.071   5.294   6.378 -0.2352 -0.4144 -1.1735
   29CHL1    C2 2119   4.271   5.305   6.308 -0.8362 -1.2100 -0.0370
   29CHL1   H2A 2120   4.249   5.212   6.251  0.4089 -0.5490 -1.6570
   29CHL1   H2B 2121   4.372   5.294   6.353  0.1090  0.4399 -1.6683
   29CHL1   C20 2122   3.779   5.405   7.112 -0.0740 -0.2944  0.2411
   29CHL1   H20 2123   3.852   5.321   7.108  0.9285  0.5304  1.0165
   29CHL1   C21 2124   3.641   5.325   7.127 -0.5392 -0.3663 -0.8692
   29CHL1  H21A 2125   3.635   5.269   7.223  0.0809  1.3348  0.1848
   29CHL1  H21B 2126   3.633   5.251   7.045 -0.6462  1.9075 -2.9624
   29CHL1  H21C 2127   3.561   5.399   7.102  1.5700  2.7652  1.2152
   29CHL1   C22 2128   3.802   5.503   7.231 -0.3933 -0.2694  0.2307
   29CHL1  H22A 2129   3.885   5.572   7.205  0.6031 -1.1898  0.9269
   29CHL1  H22B 2130   3.709   5.564   7.239  0.6640  1.0948  2.2796
   29CHL1   C23 2131   3.824   5.432   7.372  0.0739  0.2173  0.2176
   29CHL1  H23A 2132   3.749   5.353   7.391  0.1629  0.1165  0.1508
   29CHL1  H23B 2133   3.925   5.386   7.365  0.5127  1.3849 -1.5627
   29CHL1   C24 2134   3.820   5.527   7.499 -0.1253 -0.6238  0.4382
   29CHL1  H24A 2135   3.917   5.579   7.515 -0.0539 -1.0113  1.3122
   29CHL1  H24B 2136   3.745   5.604   7.475 -0.4983 -0.9122  0.6837
   29CHL1   C25 2137   3.785   5.457   7.633  0.8517 -0.0524  0.4345
   29CHL1   H25 2138   3.696   5.392   7.617 -0.1756  1.7527 -1.2766
   29CHL1   C26 2139   3.898   5.370   7.686 -0.7346 -0.0556  0.3542
   29CHL1  H26A 2140   3.936   5.293   7.615 -1.0422  1.3695 -1.3834
   29CHL1  H26B 2141   3.977   5.437   7.725 -0.0457  0.2994 -1.5643
   29CHL1  H26C 2142   3.864   5.306   7.770 -2.0382 -1.0180 -0.8630
   29CHL1   C27 2143   3.731   5.560   7.729 -0.4585  0.0632 -1.0116
   29CHL1  H27A 2144   3.792   5.652   7.738 -0.5407 -0.0340  0.7846
   29CHL1  H27B 2145   3.631   5.591   7.692 -1.0414  0.0201  0.4728
   29CHL1  H27C 2146   3.706   5.520   7.830 -0.6256 -1.5211 -1.6662
   30CHL1    C3 2147   2.320   2.147   6.223  0.0466  0.4402 -0.0416
   30CHL1    H3 2148   2.410   2.199   6.186 -0.9688  2.7041  0.6025
   30CHL1    O3 2149   2.237   2.105   6.112 -0.5866  0.2372 -0.2847
   30CHL1   H3' 2150   2.179   2.031   6.133 -1.0989  0.1350 -2.0484
   30CHL1    C4 2151   2.352   2.027   6.308  0.3001  0.1778 -0.2843
   30CHL1   H4A 2152   2.256   1.985   6.344  1.5139 -2.2061  0.2400
   30CHL1   H4B 2153   2.394   1.941   6.251  0.3122 -0.7434  1.1011
   30CHL1    C5 2154   2.421   2.071   6.435  0.2049 -0.0506  0.5321
   30CHL1    C6 2155   2.545   2.027   6.468  0.5578 -0.3031 -0.3119
   30CHL1    H6 2156   2.606   1.958   6.407  1.6684  1.1807 -0.9242
   30CHL1    C7 2157   2.620   2.054   6.597  0.2805 -0.7903  0.1789
   30CHL1   H7A 2158   2.647   1.962   6.653  0.7553 -0.8224 -0.1073
   30CHL1   H7B 2159   2.719   2.097   6.571  0.7508 -1.7153  0.4415
   30CHL1    C8 2160   2.534   2.143   6.701  0.2714 -0.6779  0.3019
   30CHL1    H8 2161   2.468   2.075   6.759 -1.6587  0.7034 -0.2011
   30CHL1   C14 2162   2.635   2.222   6.786  0.1576  0.0123  0.2819
   30CHL1   H14 2163   2.685   2.285   6.709  0.5154  0.3608  0.7889
   30CHL1   C15 2164   2.754   2.150   6.851  0.0219  0.3331  0.4927
   30CHL1  H15A 2165   2.719   2.051   6.890 -1.7066  0.5599 -0.4070
   30CHL1  H15B 2166   2.832   2.140   6.773 -0.2658  1.7217  0.0194
   30CHL1   C16 2167   2.799   2.247   6.962 -0.1245  0.0564 -0.5785
   30CHL1  H16A 2168   2.802   2.193   7.058  0.6947 -1.6273 -1.5264
   30CHL1  H16B 2169   2.907   2.269   6.947  0.7449 -4.1899 -1.0642
   30CHL1   C17 2170   2.695   2.370   6.964  0.9366 -1.2990  0.5453
   30CHL1   H17 2171   2.732   2.446   6.892  0.2432 -1.1736  0.3233
   30CHL1   C13 2172   2.568   2.314   6.896 -0.5667 -0.3993  0.1852
   30CHL1   C18 2173   2.495   2.224   6.999  0.0596 -0.4969  0.2979
   30CHL1  H18A 2174   2.468   2.290   7.084  1.7262  0.8200 -0.1686
   30CHL1  H18B 2175   2.402   2.185   6.952  0.0772  1.6076 -1.5893
   30CHL1  H18C 2176   2.561   2.146   7.041  0.7617 -0.8102 -1.3360
   30CHL1   C12 2177   2.470   2.415   6.830  0.2099 -0.2968 -0.1300
   30CHL1  H12A 2178   2.428   2.466   6.919  0.7137  1.3958 -0.8443
   30CHL1  H12B 2179   2.522   2.495   6.774 -0.2767  0.5632  0.6446
   30CHL1   C11 2180   2.375   2.340   6.732 -0.3775  0.5712  0.2323
   30CHL1  H11A 2181   2.292   2.296   6.792 -0.4869 -2.1477 -1.8417
   30CHL1  H11B 2182   2.311   2.412   6.677  0.2978  1.1265  0.1674
   30CHL1    C9 2183   2.444   2.242   6.628  0.3925 -0.2201 -0.2880
   30CHL1    H9 2184   2.516   2.311   6.579  0.7186 -0.7003 -0.4885
   30CHL1   C10 2185   2.345   2.178   6.527 -0.0783  0.1110  0.1708
   30CHL1   C19 2186   2.223   2.122   6.593 -0.2603 -0.3254  0.3177
   30CHL1  H19A 2187   2.148   2.087   6.518  1.4435 -0.5982 -1.2840
   30CHL1  H19B 2188   2.253   2.039   6.660 -0.4608 -3.2157 -3.0172
   30CHL1  H19C 2189   2.184   2.198   6.663 -2.0626 -1.0136  0.0992
   30CHL1    C1 2190   2.306   2.299   6.440  0.0431  0.3955  0.5063
   30CHL1   H1A 2191   2.234   2.368   6.489 -0.3039  1.6871 -1.7498
   30CHL1   H1B 2192   2.399   2.349   6.408 -2.1847  3.6854 -1.0783
   30CHL1    C2 2193   2.233   2.246   6.308 -0.6303 -0.5444 -0.0211
   30CHL1   H2A 2194   2.216   2.334   6.242 -0.0892 -1.6762 -1.7059
   30CHL1   H2B 2195   2.136   2.205   6.341  0.0912 -2.3197 -0.0880
   30CHL1   C20 2196   2.668   2.461   7.091  0.6976  0.3341 -0.3632
   30CHL1   H20 2197   2.574   2.518   7.070  0.1626  0.0665  1.2242
   30CHL1   C21 2198   2.777   2.567   7.093 -0.2159 -0.6276 -0.2907
   30CHL1  H21A 2199   2.878   2.522   7.082  0.3060  0.8045 -1.4893
   30CHL1  H21B 2200   2.787   2.622   7.189  0.4345  1.4293 -1.4902
   30CHL1  H21C 2201   2.772   2.641   7.011  2.0080  0.8312  0.8204
   30CHL1   C22 2202   2.680   2.387   7.228 -0.7071  0.3080 -0.3462
   30CHL1  H22A 2203   2.632   2.289   7.206 -0.1691  0.2879 -1.4574
   30CHL1  H22B 2204   2.784   2.358   7.256 -1.1889  0.2814  1.4565
   30CHL1   C23 2205   2.606   2.457   7.340  0.1848  0.6693 -0.5898
   30CHL1  H23A 2206   2.614   2.568   7.333  1.6979  0.5199 -1.5681
   30CHL1  H23B 2207   2.502   2.420   7.347  0.5181  0.0361  1.3555
   30CHL1   C24 2208   2.682   2.443   7.476 -0.9008 -0.0760 -0.2199
   30CHL1  H24A 2209   2.696   2.335   7.495  0.2728 -0.1427 -1.4024
   30CHL1  H24B 2210   2.775   2.503   7.471 -0.4746 -0.5597  1.6073
   30CHL1   C25 2211   2.603   2.480   7.605 -0.2065 -0.1011 -0.8503
   30CHL1   H25 2212   2.510   2.421   7.596 -0.5751  0.3893 -0.2548
   30CHL1   C26 2213   2.686   2.440   7.735  0.0987 -0.8951 -0.0968
   30CHL1  H26A 2214   2.630   2.447   7.831  0.8257 -0.1846  0.2880
   30CHL1  H26B 2215   2.729   2.340   7.714  3.3971  0.4248 -0.0809
   30CHL1  H26C 2216   2.776   2.504   7.751 -0.1627 -0.4272 -0.4775
   30CHL1   C27 2217   2.567   2.627   7.609  0.2292 -0.3959 -0.1266
   30CHL1  H27A 2218   2.657   2.687   7.583  1.6935 -1.6781  1.8589
   30CHL1  H27B 2219   2.485   2.655   7.539 -0.0498 -1.0213 -0.0599
   30CHL1  H27C 2220   2.540   2.666   7.709  1.6924  0.3332 -0.0115
   31CHL1    C3 2221   2.858   4.855   6.342 -0.1111  0.0743  0.4489
   31CHL1    H3 2222   2.910   4.758   6.354  0.6700  0.5618  0.9922
   31CHL1    O3 2223   2.878   4.899   6.208 -0.0838 -0.2097  0.3946
   31CHL1   H3' 2224   2.860   4.825   6.150 -0.1754  0.4977 -0.4748
   31CHL1    C4 2225   2.714   4.836   6.366  0.6594  0.6005  0.0509
   31CHL1   H4A 2226   2.656   4.929   6.350  1.3778  1.1126  0.4096
   31CHL1   H4B 2227   2.674   4.757   6.299 -0.0465 -0.9373  2.2115
   31CHL1    C5 2228   2.681   4.786   6.503 -0.0058  0.7525 -0.3398
   31CHL1    C6 2229   2.608   4.672   6.518  0.0024 -0.5507 -0.2647
   31CHL1    H6 2230   2.554   4.622   6.436  0.6011 -0.3807 -0.7652
   31CHL1    C7 2231   2.584   4.615   6.656  0.2743  0.1592 -0.4604
   31CHL1   H7A 2232   2.474   4.597   6.655  0.3297 -0.1404 -1.4901
   31CHL1   H7B 2233   2.634   4.517   6.665 -0.1908  0.1481  2.7842
   31CHL1    C8 2234   2.625   4.712   6.763 -0.1794  1.2931 -0.6803
   31CHL1    H8 2235   2.544   4.787   6.778 -1.9422 -0.4589 -1.2709
   31CHL1   C14 2236   2.638   4.631   6.898  0.3359 -0.4327 -0.0255
   31CHL1   H14 2237   2.724   4.561   6.892  0.1946 -0.4642 -2.2531
   31CHL1   C15 2238   2.516   4.543   6.935 -0.1197 -0.1720 -0.6821
   31CHL1  H15A 2239   2.423   4.595   6.901 -0.0081  0.4496 -0.0295
   31CHL1  H15B 2240   2.515   4.452   6.870 -3.1855 -0.3187 -0.5243
   31CHL1   C16 2241   2.529   4.521   7.083 -0.4626  0.6113 -0.2756
   31CHL1  H16A 2242   2.432   4.530   7.136 -0.0330 -2.7845  1.2116
   31CHL1  H16B 2243   2.570   4.418   7.096  0.6329  0.9207 -1.1273
   31CHL1   C17 2244   2.632   4.628   7.133  0.6516  0.0140  0.7261
   31CHL1   H17 2245   2.727   4.571   7.149 -0.5525 -2.0615  0.5535
   31CHL1   C13 2246   2.656   4.725   7.015  0.0940  0.4402 -0.3440
   31CHL1   C18 2247   2.539   4.832   7.020 -0.0230 -0.2203  0.2872
   31CHL1  H18A 2248   2.437   4.788   7.034  0.8393 -2.3484  0.0798
   31CHL1  H18B 2249   2.548   4.884   7.118 -1.1049 -0.9197  0.7687
   31CHL1  H18C 2250   2.539   4.901   6.934  2.8924  1.7091  1.7646
   31CHL1   C12 2251   2.791   4.782   6.994  0.1694  0.1117 -0.5384
   31CHL1  H12A 2252   2.828   4.847   7.076  0.3798  0.3333 -0.8062
   31CHL1  H12B 2253   2.852   4.689   6.996  0.9762  0.4619 -4.6905
   31CHL1   C11 2254   2.812   4.846   6.860  0.6314  0.1340 -0.0769
   31CHL1  H11A 2255   2.756   4.941   6.868  0.4202 -0.1568  2.1613
   31CHL1  H11B 2256   2.916   4.882   6.843  0.8949 -0.1734  0.8453
   31CHL1    C9 2257   2.760   4.771   6.733  0.3426 -0.1860  0.4347
   31CHL1    H9 2258   2.839   4.696   6.711  0.1631 -0.1501 -0.3404
   31CHL1   C10 2259   2.759   4.864   6.605  0.3119 -0.5916 -0.1987
   31CHL1   C19 2260   2.684   4.996   6.641 -0.9887 -0.7027  0.3420
   31CHL1  H19A 2261   2.754   5.075   6.674 -0.7535 -0.7741  0.0185
   31CHL1  H19B 2262   2.643   5.041   6.548  1.4056  0.0268 -0.3929
   31CHL1  H19C 2263   2.597   4.975   6.706 -1.7397 -0.6899 -0.6412
   31CHL1    C1 2264   2.911   4.898   6.575  0.3911 -0.2482  0.3030
   31CHL1   H1A 2265   2.943   4.975   6.648  1.1143 -0.6257  0.3803
   31CHL1   H1B 2266   2.973   4.809   6.601  2.2449  1.0631  0.3878
   31CHL1    C2 2267   2.933   4.953   6.436  0.0443  0.2728  0.5684
   31CHL1   H2A 2268   3.042   4.949   6.413 -0.3670  1.3433 -1.7557
   31CHL1   H2B 2269   2.889   5.055   6.431 -0.1309  0.1234 -1.3008
   31CHL1   C20 2270   2.600   4.673   7.273  0.5265  0.3264 -0.4704
   31CHL1   H20 2271   2.506   4.733   7.276 -0.4444 -1.0999 -1.7197
   31CHL1   C21 2272   2.701   4.775   7.324 -0.7628 -0.3212  0.6306
   31CHL1  H21A 2273   2.713   4.852   7.245  1.1974 -2.2359 -0.9959
   31CHL1  H21B 2274   2.801   4.732   7.348 -0.0474  2.3339  2.7098
   31CHL1  H21C 2275   2.660   4.825   7.415  0.1005  0.3506  0.6629
   31CHL1   C22 2276   2.585   4.551   7.368  0.1806 -0.2629  0.4257
   31CHL1  H22A 2277   2.512   4.473   7.337  0.6990  0.4864 -2.8348
   31CHL1  H22B 2278   2.679   4.495   7.347  0.0108  0.0504 -1.2720
   31CHL1   C23 2279   2.575   4.589   7.518 -0.4581 -0.1692  0.2090
   31CHL1  H23A 2280   2.586   4.501   7.584 -0.0726 -2.6229 -3.0018
   31CHL1  H23B 2281   2.652   4.666   7.541  0.5663 -0.8599 -0.8415
   31CHL1   C24 2282   2.447   4.670   7.554 -0.0480  0.2369  0.3659
   31CHL1  H24A 2283   2.461   4.772   7.514  1.1761 -0.1330 -0.1769
   31CHL1  H24B 2284   2.355   4.634   7.503  0.8259  0.5267 -1.4559
   31CHL1   C25 2285   2.408   4.666   7.705 -0.0386 -0.8022  0.7512
   31CHL1   H25 2286   2.412   4.560   7.738 -1.8773 -0.9921  0.4193
   31CHL1   C26 2287   2.523   4.730   7.781 -0.6430 -0.6504  0.1725
   31CHL1  H26A 2288   2.552   4.832   7.746  0.1764 -1.6723 -2.2272
   31CHL1  H26B 2289   2.492   4.739   7.887  1.7933  3.1165  0.6774
   31CHL1  H26C 2290   2.608   4.659   7.777 -1.0859 -1.1990  0.5099
   31CHL1   C27 2291   2.268   4.725   7.737  0.1344 -0.1936 -0.1368
   31CHL1  H27A 2292   2.206   4.663   7.669  0.6614  0.7345 -1.4824
   31CHL1  H27B 2293   2.255   4.834   7.717  1.7382 -0.0327 -0.3846
   31CHL1  H27C 2294   2.244   4.707   7.844  1.7204  2.3371  0.6929
   32CHL1    C3 2295   2.451   3.530   6.381 -0.2746  0.5750 -0.4877
   32CHL1    H3 2296   2.560   3.547   6.369  0.0418 -1.2094 -0.3288
   32CHL1    O3 2297   2.405   3.532   6.248 -0.1227 -0.0684 -0.0168
   32CHL1   H3' 2298   2.479   3.490   6.203 -1.1565  0.8419 -2.6663
   32CHL1    C4 2299   2.437   3.389   6.442 -0.0463 -0.3511  0.0574
   32CHL1   H4A 2300   2.335   3.347   6.434 -0.6503  1.3342 -1.4306
   32CHL1   H4B 2301   2.504   3.320   6.386  0.9730  1.1418 -0.5935
   32CHL1    C5 2302   2.489   3.392   6.586 -0.1074 -1.1048  0.0475
   32CHL1    C6 2303   2.579   3.300   6.632  0.6262  0.3416  0.9077
   32CHL1    H6 2304   2.625   3.232   6.558  1.2145  0.9281  0.7301
   32CHL1    C7 2305   2.636   3.279   6.765  0.0205  0.5033 -0.2252
   32CHL1   H7A 2306   2.637   3.175   6.804 -0.6375  1.2270  1.7560
   32CHL1   H7B 2307   2.740   3.316   6.755  0.6733 -1.2962 -0.2783
   32CHL1    C8 2308   2.564   3.380   6.860 -0.5582 -0.0902  0.8171
   32CHL1    H8 2309   2.469   3.330   6.887 -2.2010  1.3989 -1.9745
   32CHL1   C14 2310   2.637   3.394   6.991  0.0221  0.1873 -0.5530
   32CHL1   H14 2311   2.731   3.444   6.959  0.3307  1.9148  2.9070
   32CHL1   C15 2312   2.681   3.261   7.064 -0.1917 -0.6535 -0.4036
   32CHL1  H15A 2313   2.594   3.192   7.064  0.7794 -1.9048 -1.0608
   32CHL1  H15B 2314   2.769   3.211   7.018 -0.6237 -1.4966 -0.3082
   32CHL1   C16 2315   2.706   3.311   7.210  0.0173 -0.1158 -0.0291
   32CHL1  H16A 2316   2.646   3.258   7.288 -1.1241  1.1952  0.0003
   32CHL1  H16B 2317   2.814   3.293   7.231  0.0133 -2.3381 -1.8054
   32CHL1   C17 2318   2.670   3.467   7.211 -0.3981  0.7959  0.1246
   32CHL1   H17 2319   2.763   3.516   7.174 -0.5220  2.5528  1.9881
   32CHL1   C13 2320   2.573   3.487   7.095 -0.1159 -0.1246  0.2535
   32CHL1   C18 2321   2.425   3.440   7.120  0.6461  0.5631  0.1120
   32CHL1  H18A 2322   2.389   3.501   7.205 -3.2695 -2.7881  1.0065
   32CHL1  H18B 2323   2.356   3.438   7.033  1.4722  1.2059 -0.5680
   32CHL1  H18C 2324   2.432   3.336   7.158 -0.5338  0.8846  1.2304
   32CHL1   C12 2325   2.563   3.631   7.035 -0.1535  0.3926  0.0313
   32CHL1  H12A 2326   2.517   3.702   7.108  2.0687  2.2904 -0.3484
   32CHL1  H12B 2327   2.666   3.662   7.009 -0.5664  0.2695 -1.8621
   32CHL1   C11 2328   2.482   3.631   6.900 -0.6964  0.7942 -0.7202
   32CHL1  H11A 2329   2.375   3.624   6.929 -0.9660  1.5471 -1.5482
   32CHL1  H11B 2330   2.493   3.736   6.867 -2.2773  0.9774 -0.6981
   32CHL1    C9 2331   2.531   3.517   6.804 -0.0202 -0.5900 -0.0370
   32CHL1    H9 2332   2.623   3.564   6.764  0.3796 -1.6757 -0.4284
   32CHL1   C10 2333   2.443   3.505   6.677  0.3333 -0.4137  0.3836
   32CHL1   C19 2334   2.291   3.484   6.717 -0.8146  0.0900  0.4558
   32CHL1  H19A 2335   2.224   3.460   6.632 -0.7019 -2.0106  0.9319
   32CHL1  H19B 2336   2.290   3.390   6.777 -2.0180 -0.5664 -0.5725
   32CHL1  H19C 2337   2.246   3.566   6.777  1.1336  1.0481  0.6489
   32CHL1    C1 2338   2.450   3.645   6.602  0.2580  0.5268 -0.3395
   32CHL1   H1A 2339   2.405   3.724   6.665 -0.0698  1.3237 -1.5555
   32CHL1   H1B 2340   2.557   3.670   6.585  0.1029  2.5558  1.4634
   32CHL1    C2 2341   2.388   3.641   6.466  0.5325 -0.2116 -0.7174
   32CHL1   H2A 2342   2.391   3.737   6.410 -0.6735  1.0948  1.4208
   32CHL1   H2B 2343   2.278   3.633   6.482  1.1143 -0.5758  3.4334
   32CHL1   C20 2344   2.619   3.520   7.342 -0.4827  0.1184 -0.4255
   32CHL1   H20 2345   2.560   3.611   7.317 -2.9609 -1.2313  0.2981
   32CHL1   C21 2346   2.736   3.549   7.429  0.3341 -0.1875 -0.1750
   32CHL1  H21A 2347   2.721   3.589   7.531 -0.1063 -1.8917  0.4502
   32CHL1  H21B 2348   2.793   3.628   7.376  1.2414  0.5009  1.7909
   32CHL1  H21C 2349   2.801   3.459   7.432 -0.1615 -0.5339  0.3037
   32CHL1   C22 2350   2.515   3.428   7.412  0.5505  0.0367  0.4425
   32CHL1  H22A 2351   2.463   3.348   7.356 -0.7326  0.5678  0.8762
   32CHL1  H22B 2352   2.572   3.390   7.500 -0.8145  0.0980  1.3603
   32CHL1   C23 2353   2.399   3.488   7.479  0.7977 -0.5916  0.2082
   32CHL1  H23A 2354   2.339   3.539   7.400 -1.9113 -0.5316  2.2479
   32CHL1  H23B 2355   2.337   3.416   7.537 -1.3926  1.7759  0.8610
   32CHL1   C24 2356   2.430   3.583   7.590 -0.4587 -0.0170 -0.8263
   32CHL1  H24A 2357   2.505   3.539   7.659  0.2038  1.5192 -0.5408
   32CHL1  H24B 2358   2.472   3.679   7.553 -0.8185  0.3895 -0.1909
   32CHL1   C25 2359   2.306   3.630   7.674 -0.2656  0.3441  0.5552
   32CHL1   H25 2360   2.240   3.540   7.674 -0.3713  0.4201  0.2774
   32CHL1   C26 2361   2.340   3.680   7.814  0.4128 -0.1697 -0.2540
   32CHL1  H26A 2362   2.363   3.597   7.883 -2.1554 -0.7264 -0.0217
   32CHL1  H26B 2363   2.426   3.750   7.823  0.0900 -0.1520  3.1266
   32CHL1  H26C 2364   2.249   3.726   7.859  0.4660 -0.4464  0.1293
   32CHL1   C27 2365   2.232   3.741   7.595 -0.2302  0.7398 -0.8314
   32CHL1  H27A 2366   2.294   3.831   7.612  0.1500 -0.1984  3.2619
   32CHL1  H27B 2367   2.206   3.706   7.493 -1.6880 -1.1820  0.1718
   32CHL1  H27C 2368   2.132   3.759   7.641 -0.6061 -1.2215 -0.8117
   33CHL1    C3 2369   5.153   3.643   6.230  1.4877 -0.7892  0.4582
   33CHL1    H3 2370   5.122   3.731   6.292  1.8173 -0.0229 -0.4579
   33CHL1    O3 2371   5.137   3.687   6.096 -0.3878 -0.0003 -0.9451
   33CHL1   H3' 2372   5.159   3.611   6.040 -0.1394 -1.4237  1.0358
   33CHL1    C4 2373   5.306   3.609   6.250  0.0166 -0.6285 -0.2247
   33CHL1   H4A 2374   5.326   3.519   6.188 -0.0019  2.3153 -4.7831
   33CHL1   H4B 2375   5.362   3.699   6.218  2.2190 -1.6786  0.6364
   33CHL1    C5 2376   5.333   3.570   6.394  0.8638 -0.5827  0.3423
   33CHL1    C6 2377   5.432   3.619   6.470  0.1049  0.1608 -0.7326
   33CHL1    H6 2378   5.503   3.693   6.429  2.4307  0.4007  3.5129
   33CHL1    C7 2379   5.447   3.582   6.610  0.9640 -0.0611  0.4274
   33CHL1   H7A 2380   5.557   3.576   6.628  0.7456  0.4810  2.0467
   33CHL1   H7B 2381   5.415   3.664   6.678  3.8001  1.2028  0.3206
   33CHL1    C8 2382   5.373   3.452   6.658  0.0955 -0.7182 -0.6930
   33CHL1    H8 2383   5.432   3.366   6.621  2.0282  0.7019 -1.0224
   33CHL1   C14 2384   5.354   3.443   6.810 -0.4498 -0.4105  0.0144
   33CHL1   H14 2385   5.295   3.531   6.844  0.3206  0.6433 -1.3243
   33CHL1   C15 2386   5.483   3.478   6.892  0.2625 -0.3697  0.6848
   33CHL1  H15A 2387   5.574   3.434   6.846  1.8723  1.9811  1.5351
   33CHL1  H15B 2388   5.492   3.588   6.890 -0.4274 -0.3232 -0.8194
   33CHL1   C16 2389   5.451   3.424   7.033  0.4501  0.2211 -0.2335
   33CHL1  H16A 2390   5.538   3.370   7.075 -1.9969 -2.7998  1.1972
   33CHL1  H16B 2391   5.436   3.516   7.094  0.3122  0.1927 -0.2244
   33CHL1   C17 2392   5.313   3.350   7.033  0.6523 -0.4387  0.8691
   33CHL1   H17 2393   5.244   3.436   7.043  0.8452 -0.1186 -0.4296
   33CHL1   C13 2394   5.290   3.318   6.876 -0.2255 -0.3198  0.4442
   33CHL1   C18 2395   5.382   3.192   6.846  0.2604  0.4316  0.5316
   33CHL1  H18A 2396   5.403   3.172   6.738  2.0780  1.2212  0.7328
   33CHL1  H18B 2397   5.484   3.188   6.889 -0.2352 -0.8878  1.6028
   33CHL1  H18C 2398   5.336   3.101   6.889  0.0070  0.6742  0.7788
   33CHL1   C12 2399   5.152   3.320   6.820 -0.2044  0.1829  0.4804
   33CHL1  H12A 2400   5.102   3.223   6.842  0.6052 -1.3138 -3.8340
   33CHL1  H12B 2401   5.093   3.407   6.855  1.3388  0.8028  1.6225
   33CHL1   C11 2402   5.158   3.327   6.666 -0.4866  0.1217  0.2638
   33CHL1  H11A 2403   5.184   3.226   6.626  0.7114  0.5012  0.0728
   33CHL1  H11B 2404   5.053   3.330   6.630 -0.0300  0.2366 -1.0827
   33CHL1    C9 2405   5.236   3.449   6.604 -0.7163  0.9791 -0.0779
   33CHL1    H9 2406   5.190   3.543   6.642 -3.9014 -0.1258 -1.1096
   33CHL1   C10 2407   5.241   3.461   6.449  0.5279 -0.4808 -0.2098
   33CHL1   C19 2408   5.293   3.324   6.390  0.1180  0.1892 -0.4496
   33CHL1  H19A 2409   5.284   3.325   6.280  0.1902 -0.6422 -0.4713
   33CHL1  H19B 2410   5.398   3.306   6.423  0.3985  0.5092 -1.1760
   33CHL1  H19C 2411   5.234   3.240   6.434  1.1212 -0.7031 -0.7702
   33CHL1    C1 2412   5.094   3.479   6.406  0.5116 -0.4529 -0.4806
   33CHL1   H1A 2413   5.046   3.380   6.422  1.9943 -1.0978  0.0475
   33CHL1   H1B 2414   5.045   3.559   6.466  1.9584 -2.0313  2.9693
   33CHL1    C2 2415   5.074   3.515   6.259  0.4237  0.1149  0.0286
   33CHL1   H2A 2416   4.965   3.533   6.248  0.6717  2.5476  1.1947
   33CHL1   H2B 2417   5.106   3.432   6.193  1.9599  0.1529  0.7113
   33CHL1   C20 2418   5.287   3.243   7.142  0.4676  0.0635  0.3546
   33CHL1   H20 2419   5.351   3.154   7.123 -0.1081 -0.6226  1.5689
   33CHL1   C21 2420   5.141   3.196   7.136 -0.1070 -0.3396  0.4042
   33CHL1  H21A 2421   5.093   3.289   7.098  1.5624 -0.2526 -1.5570
   33CHL1  H21B 2422   5.102   3.152   7.230  0.3490  0.5005  0.9826
   33CHL1  H21C 2423   5.122   3.124   7.053  2.6989 -0.3032 -0.3140
   33CHL1   C22 2424   5.331   3.290   7.283 -0.0903 -0.6114 -1.0892
   33CHL1  H22A 2425   5.437   3.325   7.289 -1.0187  2.2124 -0.0584
   33CHL1  H22B 2426   5.263   3.376   7.305  1.7807  1.1057 -1.8160
   33CHL1   C23 2427   5.311   3.184   7.403  0.1064 -0.8871 -0.0005
   33CHL1  H23A 2428   5.201   3.186   7.419  0.3883  0.0963  2.0707
   33CHL1  H23B 2429   5.335   3.081   7.370  0.2156 -1.1481  0.8829
   33CHL1   C24 2430   5.389   3.216   7.529 -0.4215  1.1777 -0.0323
   33CHL1  H24A 2431   5.498   3.208   7.507 -0.3659 -0.6580  0.8538
   33CHL1  H24B 2432   5.355   3.318   7.558 -0.1628  1.7370 -1.6600
   33CHL1   C25 2433   5.345   3.149   7.661 -0.5493 -0.8462 -0.2962
   33CHL1   H25 2434   5.401   3.053   7.655  1.5322  0.1854  2.0860
   33CHL1   C26 2435   5.401   3.218   7.781  0.1286  0.2197  0.0561
   33CHL1  H26A 2436   5.349   3.316   7.784 -0.1056  0.0722  0.9937
   33CHL1  H26B 2437   5.384   3.169   7.880 -0.8835  0.0351 -0.2026
   33CHL1  H26C 2438   5.511   3.224   7.763 -0.0304 -0.4521 -1.1297
   33CHL1   C27 2439   5.193   3.121   7.678 -0.8322  0.0618 -0.0762
   33CHL1  H27A 2440   5.156   3.068   7.588  2.5140 -1.7346 -0.4840
   33CHL1  H27B 2441   5.176   3.064   7.772 -1.5208 -0.9189 -0.7818
   33CHL1  H27C 2442   5.134   3.215   7.689 -1.2090 -0.1524 -0.2337
   34CHL1    C3 2443   4.961   2.207   6.188  0.7582  0.6766  0.5329
   34CHL1    H3 2444   4.906   2.294   6.230 -1.2357  0.2465 -1.1137
   34CHL1    O3 2445   4.982   2.234   6.054 -0.0473  0.4682 -0.2463
   34CHL1   H3' 2446   4.897   2.244   6.011  0.4633 -1.6790 -1.8199
   34CHL1    C4 2447   5.099   2.201   6.253 -0.3113 -0.1432  1.0839
   34CHL1   H4A 2448   5.149   2.109   6.217 -0.6450  0.3262 -0.6114
   34CHL1   H4B 2449   5.148   2.298   6.228  1.1777 -0.9329  0.9016
   34CHL1    C5 2450   5.074   2.190   6.403 -1.0513 -0.1219  0.2172
   34CHL1    C6 2451   5.116   2.287   6.490 -0.3976  0.0080  0.0091
   34CHL1    H6 2452   5.161   2.377   6.445  1.8865 -0.2602  1.6933
   34CHL1    C7 2453   5.098   2.278   6.641  0.2214  0.4203 -0.7232
   34CHL1   H7A 2454   5.196   2.308   6.685 -1.2045  1.3429  1.9600
   34CHL1   H7B 2455   5.016   2.350   6.659  0.0705  0.2288 -0.6489
   34CHL1    C8 2456   5.063   2.140   6.686  0.1971 -0.1332  0.0767
   34CHL1    H8 2457   5.158   2.084   6.674  0.6392  0.6589 -0.1246
   34CHL1   C14 2458   5.016   2.161   6.831 -0.2485  0.2684 -0.3921
   34CHL1   H14 2459   4.923   2.221   6.825 -0.6027 -0.3404 -0.9706
   34CHL1   C15 2460   5.097   2.239   6.939  0.2744  0.1796  0.7771
   34CHL1  H15A 2461   5.202   2.205   6.923  0.2218 -0.2268  1.2674
   34CHL1  H15B 2462   5.094   2.347   6.915 -0.6605 -0.0128  0.0024
   34CHL1   C16 2463   5.039   2.186   7.075  0.3537 -0.0125  0.0333
   34CHL1  H16A 2464   5.119   2.122   7.120  1.0754  0.9494  0.1224
   34CHL1  H16B 2465   5.001   2.261   7.148  1.9100 -1.0287  1.9703
   34CHL1   C17 2466   4.918   2.098   7.035 -0.0987 -0.3509  0.0229
   34CHL1   H17 2467   4.833   2.169   7.025 -0.0258 -0.2830 -0.1233
   34CHL1   C13 2468   4.958   2.038   6.891  0.4364  0.4469  0.5025
   34CHL1   C18 2469   5.070   1.935   6.907  0.2217 -0.2916  0.4308
   34CHL1  H18A 2470   5.022   1.841   6.941  0.9059 -0.9721 -0.4820
   34CHL1  H18B 2471   5.120   1.906   6.813  1.2394 -1.6306  1.3720
   34CHL1  H18C 2472   5.151   1.969   6.975 -0.7773 -1.0254  2.0145
   34CHL1   C12 2473   4.844   1.982   6.807 -0.2533 -0.0773 -0.4335
   34CHL1  H12A 2474   4.806   1.890   6.856  0.7867  0.8467  2.1881
   34CHL1  H12B 2475   4.759   2.053   6.804 -0.5300 -0.3887 -0.0431
   34CHL1   C11 2476   4.892   1.955   6.665  0.4905  0.2533 -1.3092
   34CHL1  H11A 2477   4.972   1.878   6.667  0.1990 -0.0489  1.3860
   34CHL1  H11B 2478   4.804   1.922   6.606 -0.5570 -0.6607  0.6867
   34CHL1    C9 2479   4.954   2.081   6.600 -0.1393  0.3629 -0.0880
   34CHL1    H9 2480   4.877   2.161   6.599 -0.2108  0.3031  0.3552
   34CHL1   C10 2481   4.995   2.067   6.451 -0.4354 -0.1931  0.2330
   34CHL1   C19 2482   5.095   1.957   6.425 -0.2238  0.1024 -0.4453
   34CHL1  H19A 2483   5.098   1.943   6.315  2.1879 -2.8603 -0.0460
   34CHL1  H19B 2484   5.200   1.968   6.461  0.2119 -0.3704 -1.5431
   34CHL1  H19C 2485   5.054   1.862   6.465  2.4302  0.3211  3.0083
   34CHL1    C1 2486   4.863   2.040   6.359 -0.1891  0.0421  0.0683
   34CHL1   H1A 2487   4.835   1.936   6.388 -0.1792 -0.7893 -2.7753
   34CHL1   H1B 2488   4.782   2.104   6.402  1.5640  1.5196  1.2368
   34CHL1    C2 2489   4.885   2.081   6.204 -0.2281 -0.2192 -0.9032
   34CHL1   H2A 2490   4.781   2.071   6.168 -1.1605  0.5622  1.4925
   34CHL1   H2B 2491   4.935   1.996   6.152 -1.2925  0.1451 -2.5439
   34CHL1   C20 2492   4.879   1.993   7.144 -0.5111  0.3315  0.3352
   34CHL1   H20 2493   4.936   1.900   7.125 -2.8254 -1.2190  0.8410
   34CHL1   C21 2494   4.735   1.956   7.124  0.3694 -0.3740  0.3032
   34CHL1  H21A 2495   4.676   2.050   7.123 -0.4459 -0.8843 -0.9766
   34CHL1  H21B 2496   4.688   1.901   7.207  1.2723  1.2642  1.9489
   34CHL1  H21C 2497   4.717   1.900   7.030 -1.1453 -1.4079  1.1969
   34CHL1   C22 2498   4.906   2.036   7.291 -0.2547  0.5001 -0.5680
   34CHL1  H22A 2499   5.009   2.076   7.301 -0.1195  0.7751 -2.7991
   34CHL1  H22B 2500   4.831   2.112   7.323 -0.2409 -0.2969  1.4562
   34CHL1   C23 2501   4.912   1.908   7.383 -0.1873  0.4319  0.4928
   34CHL1  H23A 2502   4.815   1.854   7.383  0.3494 -0.5550  1.8913
   34CHL1  H23B 2503   4.983   1.839   7.333  0.0076  2.3934 -2.0504
   34CHL1   C24 2504   4.952   1.928   7.529  0.0119 -0.4573  0.2956
   34CHL1  H24A 2505   5.063   1.924   7.534  0.1450  0.6794 -1.2895
   34CHL1  H24B 2506   4.919   2.029   7.559 -0.0632 -0.6062  0.7138
   34CHL1   C25 2507   4.886   1.830   7.629  0.2724 -0.3274 -0.1822
   34CHL1   H25 2508   4.776   1.837   7.617  0.0446 -0.1352  1.8761
   34CHL1   C26 2509   4.937   1.686   7.604 -0.0850  0.3058  0.3788
   34CHL1  H26A 2510   4.889   1.613   7.673 -1.1817  0.5387 -0.1435
   34CHL1  H26B 2511   4.920   1.658   7.498 -0.7859  1.4989  0.1634
   34CHL1  H26C 2512   5.047   1.684   7.622 -0.2209  3.0502  1.8111
   34CHL1   C27 2513   4.932   1.868   7.774  0.6740 -0.0599 -0.2521
   34CHL1  H27A 2514   4.878   1.963   7.795  1.5041 -0.0489  2.0418
   34CHL1  H27B 2515   4.882   1.797   7.844  2.0348 -0.2194  0.5740
   34CHL1  H27C 2516   5.042   1.878   7.786  0.5507  1.4247 -0.3196
   35CHL1    C3 2517   1.914   4.740   6.444  0.2644 -0.3620  0.0780
   35CHL1    H3 2518   1.992   4.818   6.458  1.3268 -1.7335  2.0134
   35CHL1    O3 2519   1.850   4.761   6.322  0.3328 -0.1625  0.3212
   35CHL1   H3' 2520   1.796   4.839   6.337  0.6270  0.4702 -1.6801
   35CHL1    C4 2521   1.985   4.609   6.445  0.6666 -0.0660  0.1901
   35CHL1   H4A 2522   1.926   4.539   6.383  1.1494  0.1716 -0.5531
   35CHL1   H4B 2523   2.077   4.607   6.382  1.1790  2.0889  0.7929
   35CHL1    C5 2524   2.018   4.558   6.586  0.2074 -0.0201  0.1479
   35CHL1    C6 2525   2.143   4.504   6.606  0.1922 -0.2933 -0.6529
   35CHL1    H6 2526   2.220   4.494   6.529  1.5427 -1.1243  0.7908
   35CHL1    C7 2527   2.191   4.443   6.738  0.0034  0.4316 -0.4176
   35CHL1   H7A 2528   2.244   4.347   6.719  1.3823  1.2069 -0.5443
   35CHL1   H7B 2529   2.265   4.508   6.789  0.4347  0.0062 -0.4948
   35CHL1    C8 2530   2.075   4.420   6.837 -0.4586 -0.6067  0.2182
   35CHL1    H8 2531   2.033   4.328   6.792  0.7531 -0.3277 -1.5615
   35CHL1   C14 2532   2.127   4.392   6.979  0.0896 -0.0596 -0.1012
   35CHL1   H14 2533   2.173   4.486   7.016 -0.9197 -0.0863  1.2813
   35CHL1   C15 2534   2.228   4.285   6.985 -0.2520  0.0027 -0.1963
   35CHL1  H15A 2535   2.196   4.199   6.922 -2.7846 -0.2435  1.3900
   35CHL1  H15B 2536   2.328   4.313   6.945 -1.5750  2.0179 -2.2253
   35CHL1   C16 2537   2.222   4.241   7.138  0.0804  0.3014 -0.0264
   35CHL1  H16A 2538   2.212   4.130   7.139 -1.0692  0.4053  0.1310
   35CHL1  H16B 2539   2.316   4.276   7.187  1.5308 -2.1137 -0.9483
   35CHL1   C17 2540   2.106   4.322   7.202  0.0031 -0.3125  0.0067
   35CHL1   H17 2541   2.149   4.419   7.235 -0.0030 -0.7525  1.3451
   35CHL1   C13 2542   2.018   4.354   7.076 -0.9914  0.0375 -0.7436
   35CHL1   C18 2543   1.945   4.221   7.041  0.5729  0.4539 -0.3575
   35CHL1  H18A 2544   1.862   4.223   7.115 -0.2398  0.0176 -1.2467
   35CHL1  H18B 2545   1.898   4.236   6.942  0.4725  1.0992 -0.2158
   35CHL1  H18C 2546   2.005   4.128   7.048  1.4743  0.8821 -2.0811
   35CHL1   C12 2547   1.923   4.474   7.087 -0.5336  1.2729  0.1928
   35CHL1  H12A 2548   1.839   4.440   7.151 -2.8888  0.1709 -3.2999
   35CHL1  H12B 2549   1.982   4.559   7.128 -0.0770  0.9262  0.2593
   35CHL1   C11 2550   1.864   4.510   6.949  0.5192 -0.0862  0.1239
   35CHL1  H11A 2551   1.791   4.433   6.918 -1.4486  1.1280  1.6533
   35CHL1  H11B 2552   1.807   4.605   6.956 -2.0744 -1.6827  1.1467
   35CHL1    C9 2553   1.974   4.534   6.838 -0.3242  0.0828 -0.6617
   35CHL1    H9 2554   2.038   4.619   6.870  0.3762 -0.3559 -0.8929
   35CHL1   C10 2555   1.915   4.565   6.699  0.1346 -0.4232 -0.5842
   35CHL1   C19 2556   1.804   4.458   6.668  0.0744 -0.1664  0.2040
   35CHL1  H19A 2557   1.840   4.353   6.660 -1.5988 -0.5811 -2.5258
   35CHL1  H19B 2558   1.718   4.455   6.739  2.2529 -1.0855  2.9113
   35CHL1  H19C 2559   1.757   4.477   6.569 -1.6323  0.4188  1.1188
   35CHL1    C1 2560   1.849   4.704   6.693 -0.0039  0.1167  0.0284
   35CHL1   H1A 2561   1.763   4.703   6.763  0.1237 -0.7045  0.1697
   35CHL1   H1B 2562   1.919   4.774   6.744  0.9885 -1.1350  0.4095
   35CHL1    C2 2563   1.802   4.752   6.551 -0.1334  0.0233  0.3749
   35CHL1   H2A 2564   1.765   4.857   6.549  0.8195  0.3651  0.5336
   35CHL1   H2B 2565   1.706   4.705   6.521  0.1143  0.6976 -1.5395
   35CHL1   C20 2566   2.027   4.268   7.325 -0.7666  0.1665 -0.2664
   35CHL1   H20 2567   1.926   4.312   7.326  0.4294  3.0328  1.6485
   35CHL1   C21 2568   2.108   4.332   7.443  0.2995 -0.0958 -0.7017
   35CHL1  H21A 2569   2.060   4.304   7.539 -0.3372  0.1662 -0.9404
   35CHL1  H21B 2570   2.113   4.442   7.434 -0.2888  0.1369  1.4951
   35CHL1  H21C 2571   2.207   4.282   7.447  0.6708  0.4882 -2.1806
   35CHL1   C22 2572   2.036   4.110   7.348  0.6160  1.3863 -0.0919
   35CHL1  H22A 2573   1.990   4.058   7.262  2.2475 -1.9525  0.9660
   35CHL1  H22B 2574   2.142   4.086   7.325 -0.5089 -0.3013 -3.9613
   35CHL1   C23 2575   1.966   4.048   7.468  0.1961 -0.5061 -0.1125
   35CHL1  H23A 2576   2.004   3.944   7.475  0.2789 -0.7784 -3.8817
   35CHL1  H23B 2577   1.991   4.097   7.565 -2.0254  0.0607  0.1967
   35CHL1   C24 2578   1.814   4.047   7.453 -0.0395 -0.7992  0.4863
   35CHL1  H24A 2579   1.795   4.157   7.462  0.9721 -0.6100  0.3427
   35CHL1  H24B 2580   1.791   4.019   7.348  2.1687  1.1277 -0.5477
   35CHL1   C25 2581   1.744   3.961   7.555  0.1605  0.7278 -0.2325
   35CHL1   H25 2582   1.796   3.866   7.576 -0.0368  1.4993  4.2487
   35CHL1   C26 2583   1.734   4.031   7.689  0.4765  0.3244 -0.5862
   35CHL1  H26A 2584   1.657   3.981   7.751 -0.2206  0.9119 -0.9666
   35CHL1  H26B 2585   1.825   4.025   7.752 -0.2608 -1.2591  0.3436
   35CHL1  H26C 2586   1.713   4.140   7.679 -1.4809  0.0588  0.4223
   35CHL1   C27 2587   1.595   3.926   7.508  0.4957 -0.7751 -0.4512
   35CHL1  H27A 2588   1.536   4.020   7.496  1.7750  0.1761  0.5357
   35CHL1  H27B 2589   1.553   3.855   7.582 -2.2034  0.0373 -1.1349
   35CHL1  H27C 2590   1.584   3.880   7.408 -1.0676 -1.7782  0.1621
   36CHL1    C3 2591   1.843   2.406   6.320  0.2060 -0.0480  0.8192
   36CHL1    H3 2592   1.943   2.367   6.291 -0.4801  0.2831 -2.1547
   36CHL1    O3 2593   1.786   2.442   6.195 -0.0688 -0.0126 -0.1974
   36CHL1   H3' 2594   1.727   2.515   6.218 -2.0483 -1.5765 -0.1947
   36CHL1    C4 2595   1.766   2.299   6.390 -0.7163 -0.7583 -0.1049
   36CHL1   H4A 2596   1.655   2.309   6.390 -0.5961  0.6168  0.0065
   36CHL1   H4B 2597   1.798   2.222   6.317  0.3565 -0.3188 -0.1124
   36CHL1    C5 2598   1.810   2.271   6.532  0.0653 -0.0945  0.7313
   36CHL1    C6 2599   1.836   2.146   6.575  0.3845  0.3450 -0.4655
   36CHL1    H6 2600   1.820   2.065   6.503 -1.4494  1.7384 -1.6684
   36CHL1    C7 2601   1.887   2.118   6.709 -0.1400 -0.0177 -0.8369
   36CHL1   H7A 2602   1.822   2.037   6.746 -0.5789  0.8581  0.3441
   36CHL1   H7B 2603   1.987   2.071   6.704 -0.0146  0.0137  1.2031
   36CHL1    C8 2604   1.892   2.227   6.817 -0.0445 -0.4969 -0.3544
   36CHL1    H8 2605   1.795   2.240   6.869  0.9685  0.6549  1.3345
   36CHL1   C14 2606   2.000   2.191   6.926  0.2058  0.1274 -0.4290
   36CHL1   H14 2607   2.097   2.168   6.878 -0.0202  1.6137 -1.6264
   36CHL1   C15 2608   1.976   2.058   7.004  0.1527 -0.1772  0.4981
   36CHL1  H15A 2609   1.875   2.058   7.050  0.0708  1.9192  0.3320
   36CHL1  H15B 2610   1.997   1.985   6.923 -0.9405 -0.5066  0.5005
   36CHL1   C16 2611   2.070   2.072   7.117 -0.3494  0.0790  0.9893
   36CHL1  H16A 2612   2.019   2.047   7.212 -3.7330 -1.0430 -1.0275
   36CHL1  H16B 2613   2.156   2.002   7.112  0.2809  0.8438  1.1098
   36CHL1   C17 2614   2.116   2.224   7.119 -0.7244  0.7899 -1.1795
   36CHL1   H17 2615   2.215   2.229   7.068 -0.4263 -1.7555 -0.9268
   36CHL1   C13 2616   2.014   2.299   7.033  0.3712 -0.1011  1.0159
   36CHL1   C18 2617   1.886   2.315   7.114 -0.1515  0.4815  0.0318
   36CHL1  H18A 2618   1.867   2.220   7.168  0.0055  0.0170 -0.7150
   36CHL1  H18B 2619   1.900   2.396   7.189  2.6890  0.3126 -0.2577
   36CHL1  H18C 2620   1.795   2.346   7.059 -0.0004  0.3633 -0.2883
   36CHL1   C12 2621   2.059   2.430   6.964 -0.0435 -0.3190  0.2187
   36CHL1  H12A 2622   2.055   2.511   7.040  1.6375  0.0930 -0.0950
   36CHL1  H12B 2623   2.165   2.419   6.931  0.0151 -5.1068  1.6321
   36CHL1   C11 2624   1.964   2.466   6.849  0.0801  0.2594 -0.4248
   36CHL1  H11A 2625   1.868   2.494   6.897  0.5167  0.3671  0.3902
   36CHL1  H11B 2626   2.006   2.550   6.790  0.0724  0.2508 -0.4425
   36CHL1    C9 2627   1.932   2.355   6.744  0.5380 -0.4215  0.1637
   36CHL1    H9 2628   2.030   2.331   6.696  1.5406 -1.2427  2.5259
   36CHL1   C10 2629   1.839   2.397   6.621 -0.4432 -0.0505 -0.5444
   36CHL1   C19 2630   1.715   2.452   6.678  0.7391 -0.6054 -0.3542
   36CHL1  H19A 2631   1.628   2.451   6.608 -0.2822  1.0736  0.8810
   36CHL1  H19B 2632   1.683   2.398   6.769 -1.8027  2.4887  0.6487
   36CHL1  H19C 2633   1.729   2.552   6.724  0.7259 -2.0248  2.8573
   36CHL1    C1 2634   1.916   2.506   6.537 -0.2148 -0.3907  0.2033
   36CHL1   H1A 2635   1.914   2.595   6.604 -3.5503 -0.6384  0.5251
   36CHL1   H1B 2636   2.021   2.474   6.519 -0.3116 -0.2625 -0.6031
   36CHL1    C2 2637   1.858   2.531   6.401  0.8447  0.1647 -0.2327
   36CHL1   H2A 2638   1.920   2.605   6.346 -0.0964  1.4027  0.3482
   36CHL1   H2B 2639   1.756   2.574   6.413  0.5855  0.3649 -2.9521
   36CHL1   C20 2640   2.154   2.281   7.259  0.4708  0.5092 -0.0850
   36CHL1   H20 2641   2.057   2.282   7.312  0.9526 -1.0033  0.8616
   36CHL1   C21 2642   2.211   2.423   7.250  0.1185  0.1291  0.2136
   36CHL1  H21A 2643   2.300   2.432   7.184 -1.5027  1.8715 -1.8015
   36CHL1  H21B 2644   2.259   2.453   7.345  1.1431 -0.6919 -0.0323
   36CHL1  H21C 2645   2.131   2.496   7.224 -1.0990 -0.5925  1.8703
   36CHL1   C22 2646   2.239   2.190   7.345  0.2439  0.0880 -0.6622
   36CHL1  H22A 2647   2.224   2.083   7.319 -0.5082 -0.1624  0.7434
   36CHL1  H22B 2648   2.347   2.200   7.319 -0.3880  1.2844 -2.9327
   36CHL1   C23 2649   2.222   2.210   7.500  0.2876 -0.3867 -0.5522
   36CHL1  H23A 2650   2.261   2.308   7.535 -0.7212  0.0963 -0.7614
   36CHL1  H23B 2651   2.115   2.192   7.523  0.8070 -0.4978  1.8993
   36CHL1   C24 2652   2.299   2.106   7.596 -0.2587  0.0051 -0.2700
   36CHL1  H24A 2653   2.278   2.003   7.560  0.7803 -0.1599 -0.4217
   36CHL1  H24B 2654   2.408   2.126   7.581 -0.1724  1.7366  2.2879
   36CHL1   C25 2655   2.272   2.133   7.748 -0.3114  0.4164  0.5079
   36CHL1   H25 2656   2.169   2.096   7.769 -0.0380 -0.0968  0.9536
   36CHL1   C26 2657   2.366   2.046   7.830 -0.9416 -0.7677  0.4382
   36CHL1  H26A 2658   2.339   2.048   7.938  2.0613  1.0266  1.2073
   36CHL1  H26B 2659   2.356   1.941   7.794  1.0007 -0.4117 -1.2330
   36CHL1  H26C 2660   2.469   2.083   7.814 -1.2893 -0.2047 -0.5379
   36CHL1   C27 2661   2.303   2.276   7.787  0.8241  0.1770  1.0925
   36CHL1  H27A 2662   2.315   2.305   7.893  0.7339  1.9269  0.6521
   36CHL1  H27B 2663   2.398   2.303   7.737  1.5488 -0.6836  1.9950
   36CHL1  H27C 2664   2.221   2.335   7.739  1.2131  0.4429  0.7525
   37CHL1    C3 2665   4.478   5.902   6.292  0.5570  0.3701 -1.4941
   37CHL1    H3 2666   4.411   5.816   6.274  0.1427  0.1504  0.8565
   37CHL1    O3 2667   4.497   5.965   6.166 -1.3938  0.3100 -0.2595
   37CHL1   H3' 2668   4.539   6.048   6.191  1.8552 -1.6571  1.0071
   37CHL1    C4 2669   4.416   6.000   6.396  0.1310 -0.0023 -0.0099
   37CHL1   H4A 2670   4.489   6.083   6.395 -0.2512  0.3339 -0.3725
   37CHL1   H4B 2671   4.317   6.030   6.354  0.0397  1.0896  0.9793
   37CHL1    C5 2672   4.408   5.937   6.533 -0.6010 -0.8964  0.7318
   37CHL1    C6 2673   4.289   5.920   6.594  0.4446 -0.5440  0.3788
   37CHL1    H6 2674   4.203   5.955   6.535  1.5535  0.9535 -0.3915
   37CHL1    C7 2675   4.271   5.867   6.735 -0.1406 -0.9003  0.6300
   37CHL1   H7A 2676   4.203   5.941   6.783  2.0329  0.2591  1.9910
   37CHL1   H7B 2677   4.226   5.765   6.733  0.4943 -1.1814  0.7718
   37CHL1    C8 2678   4.411   5.870   6.808 -0.6542 -0.0096  0.4721
   37CHL1    H8 2679   4.423   5.977   6.836 -0.6933 -0.2378  1.3969
   37CHL1   C14 2680   4.394   5.784   6.933 -0.0409  0.9340 -0.5958
   37CHL1   H14 2681   4.390   5.680   6.894 -0.8580  0.5092  0.5765
   37CHL1   C15 2682   4.274   5.797   7.016 -0.1885 -0.0904 -0.1074
   37CHL1  H15A 2683   4.247   5.904   7.033  2.2867  0.4468  0.7870
   37CHL1  H15B 2684   4.189   5.749   6.965 -0.2426  1.1361 -1.1969
   37CHL1   C16 2685   4.311   5.719   7.146 -0.2748 -0.1172 -0.8049
   37CHL1  H16A 2686   4.278   5.775   7.237  2.4262 -0.4910  0.4656
   37CHL1  H16B 2687   4.269   5.617   7.151  0.1553 -0.2245  0.9020
   37CHL1   C17 2688   4.463   5.699   7.139 -0.7222  0.4564  0.4163
   37CHL1   H17 2689   4.476   5.597   7.095  1.0878  0.8794 -0.0644
   37CHL1   C13 2690   4.518   5.784   7.025  0.5990  0.3157 -0.3329
   37CHL1   C18 2691   4.541   5.926   7.076 -0.2453  0.4807 -0.2350
   37CHL1  H18A 2692   4.634   5.949   7.133 -0.6809  0.5628  0.4498
   37CHL1  H18B 2693   4.555   5.997   6.991  2.0884  0.0248 -0.2770
   37CHL1  H18C 2694   4.455   5.966   7.133  0.4430  0.7288  0.6418
   37CHL1   C12 2695   4.630   5.734   6.939 -0.0855 -0.0260 -0.2873
   37CHL1  H12A 2696   4.717   5.728   7.009 -0.9063 -0.6280  0.6842
   37CHL1  H12B 2697   4.620   5.629   6.906  4.4251 -0.6892  0.1254
   37CHL1   C11 2698   4.660   5.812   6.815 -0.7605 -0.3273 -0.2991
   37CHL1  H11A 2699   4.706   5.910   6.841 -2.1186  0.7900 -1.9372
   37CHL1  H11B 2700   4.733   5.762   6.747  0.3223  0.1455  0.5038
   37CHL1    C9 2701   4.535   5.831   6.730 -0.0699 -0.4254 -0.4025
   37CHL1    H9 2702   4.503   5.731   6.692  0.9650 -1.0305  0.3165
   37CHL1   C10 2703   4.545   5.908   6.595 -0.3174  0.2209 -0.2391
   37CHL1   C19 2704   4.626   6.040   6.616  0.2057 -0.3573 -0.4642
   37CHL1  H19A 2705   4.727   6.017   6.656 -0.3755 -2.6861 -0.2727
   37CHL1  H19B 2706   4.639   6.090   6.518  1.1635 -0.5356 -0.4386
   37CHL1  H19C 2707   4.574   6.107   6.688 -0.0515 -1.7264  0.6499
   37CHL1    C1 2708   4.621   5.816   6.492 -0.9288 -0.4675 -0.0299
   37CHL1   H1A 2709   4.723   5.809   6.534 -0.9740  1.4087  0.4662
   37CHL1   H1B 2710   4.571   5.717   6.497  1.1758 -1.7048 -2.2855
   37CHL1    C2 2711   4.618   5.868   6.348 -0.0376  0.1315 -0.2455
   37CHL1   H2A 2712   4.659   5.784   6.289 -2.0312 -0.5339 -0.7232
   37CHL1   H2B 2713   4.676   5.961   6.332  0.2475  0.0580  0.3303
   37CHL1   C20 2714   4.541   5.705   7.275  0.5489  0.2664  0.0416
   37CHL1   H20 2715   4.518   5.809   7.309  0.2241  0.3469 -0.4124
   37CHL1   C21 2716   4.694   5.687   7.263  0.9813  0.3206  0.4386
   37CHL1  H21A 2717   4.724   5.604   7.195  0.4911  2.4668 -2.4747
   37CHL1  H21B 2718   4.728   5.648   7.361  1.7673 -1.3435 -0.4661
   37CHL1  H21C 2719   4.754   5.774   7.227  1.7916  0.3332  1.7671
   37CHL1   C22 2720   4.482   5.608   7.376 -0.4887 -0.0958 -0.0014
   37CHL1  H22A 2721   4.373   5.628   7.370 -0.2097  0.9620 -1.9975
   37CHL1  H22B 2722   4.504   5.505   7.340 -1.4563 -0.9488  1.7414
   37CHL1   C23 2723   4.519   5.625   7.524  0.3081  0.0062  0.2377
   37CHL1  H23A 2724   4.626   5.604   7.550 -0.0305 -2.8286 -0.4397
   37CHL1  H23B 2725   4.487   5.727   7.550  1.5343  0.6255 -0.6140
   37CHL1   C24 2726   4.441   5.518   7.608 -0.2422 -0.7305  0.2286
   37CHL1  H24A 2727   4.334   5.517   7.580 -0.5818 -1.6876  1.5343
   37CHL1  H24B 2728   4.485   5.417   7.592  0.6806 -0.5537  1.5885
   37CHL1   C25 2729   4.442   5.553   7.758  0.8350 -0.3346  0.0446
   37CHL1   H25 2730   4.392   5.652   7.753 -0.6022 -1.1007 -1.2350
   37CHL1   C26 2731   4.351   5.458   7.836  0.2166 -0.1450 -0.1839
   37CHL1  H26A 2732   4.251   5.452   7.788 -0.3562  3.7044  0.3981
   37CHL1  H26B 2733   4.393   5.357   7.856 -0.3952 -0.8261 -2.2013
   37CHL1  H26C 2734   4.325   5.508   7.931  0.8676 -1.1842  0.5407
   37CHL1   C27 2735   4.586   5.565   7.813 -0.0955  0.4804 -0.4392
   37CHL1  H27A 2736   4.632   5.657   7.772  0.1673 -0.1050 -1.4903
   37CHL1  H27B 2737   4.577   5.580   7.922 -1.2454  3.5880 -0.9207
   37CHL1  H27C 2738   4.650   5.479   7.783  0.1161  0.5558 -0.2052
   38CHL1    C3 2739   2.421   5.752   6.424  0.1303  0.3286 -0.3266
   38CHL1    H3 2740   2.381   5.803   6.514  1.3443 -1.0690  1.0426
   38CHL1    O3 2741   2.374   5.802   6.300  0.3419 -0.3443 -0.5586
   38CHL1   H3' 2742   2.302   5.747   6.269 -2.1558  2.3889  0.1208
   38CHL1    C4 2743   2.566   5.770   6.445 -0.6255 -0.0236  0.3590
   38CHL1   H4A 2744   2.621   5.720   6.362 -0.4998  0.1750  0.3196
   38CHL1   H4B 2745   2.590   5.877   6.426 -0.0376 -0.3406 -0.7405
   38CHL1    C5 2746   2.608   5.714   6.580 -0.4405 -0.0751 -0.4606
   38CHL1    C6 2747   2.689   5.779   6.661 -0.4157  0.2860 -0.0825
   38CHL1    H6 2748   2.749   5.864   6.626  0.5880  0.0817  1.1129
   38CHL1    C7 2749   2.746   5.721   6.792 -0.6121 -0.6737  0.6353
   38CHL1   H7A 2750   2.856   5.737   6.789 -0.8778  1.0359 -1.6558
   38CHL1   H7B 2751   2.706   5.775   6.880 -0.4543  0.8433 -0.2050
   38CHL1    C8 2752   2.719   5.569   6.811  0.7841  0.2042  0.2335
   38CHL1    H8 2753   2.795   5.524   6.744  0.9229 -1.7128  1.6325
   38CHL1   C14 2754   2.730   5.531   6.953  0.6082  0.3258 -0.1810
   38CHL1   H14 2755   2.645   5.578   7.008  0.2007 -1.2528  0.5899
   38CHL1   C15 2756   2.858   5.583   7.026  0.1359 -0.0727 -0.3772
   38CHL1  H15A 2757   2.955   5.562   6.976  0.1134  2.4899 -1.5544
   38CHL1  H15B 2758   2.854   5.693   7.038 -0.4460 -0.2756  1.4917
   38CHL1   C16 2759   2.848   5.506   7.158  0.1244  0.7088 -0.3176
   38CHL1  H16A 2760   2.946   5.482   7.205  0.3866  2.0962 -0.1382
   38CHL1  H16B 2761   2.799   5.574   7.231 -0.9285  0.8075 -1.1076
   38CHL1   C17 2762   2.747   5.390   7.136 -0.4624 -0.0553 -0.1754
   38CHL1   H17 2763   2.652   5.432   7.175 -0.2413  1.0087 -0.7759
   38CHL1   C13 2764   2.730   5.382   6.980  0.1097 -0.7389  0.2665
   38CHL1   C18 2765   2.856   5.311   6.915  0.1369 -0.3756 -0.2422
   38CHL1  H18A 2766   2.953   5.333   6.962 -1.1244  0.2576  2.1182
   38CHL1  H18B 2767   2.830   5.203   6.905 -1.2963  0.0022 -0.8251
   38CHL1  H18C 2768   2.877   5.352   6.813  0.0855  1.7477  0.5803
   38CHL1   C12 2769   2.590   5.328   6.925 -1.2640 -0.5833 -0.0744
   38CHL1  H12A 2770   2.588   5.218   6.935 -1.5433 -0.6135 -0.4365
   38CHL1  H12B 2771   2.505   5.373   6.979  0.3484  1.8420  0.5314
   38CHL1   C11 2772   2.577   5.368   6.773 -0.7886 -0.3223  0.0215
   38CHL1  H11A 2773   2.656   5.317   6.713  0.5442  1.3983  0.2636
   38CHL1  H11B 2774   2.481   5.330   6.734 -1.6115  2.0410 -0.3250
   38CHL1    C9 2775   2.586   5.523   6.755 -0.0773  0.1987  0.2175
   38CHL1    H9 2776   2.523   5.578   6.828 -0.8274  1.6769 -1.5109
   38CHL1   C10 2777   2.557   5.575   6.614  0.0667  0.0852 -0.6580
   38CHL1   C19 2778   2.625   5.478   6.517  0.1770  0.3384 -0.4505
   38CHL1  H19A 2779   2.577   5.378   6.525  1.7618 -0.3655  0.6375
   38CHL1  H19B 2780   2.632   5.510   6.410  3.2872  0.1164 -0.3646
   38CHL1  H19C 2781   2.731   5.454   6.540  0.5514  0.2365 -2.2027
   38CHL1    C1 2782   2.402   5.577   6.585 -0.2080  0.2107  0.3116
   38CHL1   H1A 2783   2.358   5.476   6.600 -0.1487 -0.0738 -1.3027
   38CHL1   H1B 2784   2.351   5.635   6.665 -1.4330 -1.7150  0.9670
   38CHL1    C2 2785   2.363   5.617   6.445  0.1083  0.7847  0.1252
   38CHL1   H2A 2786   2.253   5.612   6.436  0.0973  0.2413  0.5804
   38CHL1   H2B 2787   2.405   5.544   6.372 -0.1968  0.5766  0.1587
   38CHL1   C20 2788   2.792   5.263   7.217 -0.3571  0.5547 -0.2463
   38CHL1   H20 2789   2.890   5.232   7.174  0.0121  0.5377  0.6068
   38CHL1   C21 2790   2.694   5.151   7.195 -0.0508 -0.4848 -0.3433
   38CHL1  H21A 2791   2.593   5.178   7.231 -0.4851 -0.5806 -1.4766
   38CHL1  H21B 2792   2.726   5.061   7.252 -0.9440 -1.0479 -0.7111
   38CHL1  H21C 2793   2.681   5.109   7.093 -0.2616 -2.2962  0.4127
   38CHL1   C22 2794   2.816   5.294   7.366 -0.1121 -0.6437 -0.0956
   38CHL1  H22A 2795   2.903   5.360   7.384 -1.6361  0.7468  2.5544
   38CHL1  H22B 2796   2.726   5.355   7.388  0.3116 -0.3542  0.8798
   38CHL1   C23 2797   2.836   5.183   7.464 -0.3900 -0.0579  0.1463
   38CHL1  H23A 2798   2.738   5.133   7.481 -0.8444  1.2283  1.4334
   38CHL1  H23B 2799   2.914   5.117   7.422  1.3149  1.9711  0.0500
   38CHL1   C24 2800   2.885   5.246   7.597  0.4775  0.6083 -0.2864
   38CHL1  H24A 2801   2.988   5.286   7.597  0.1244  1.8107  3.8009
   38CHL1  H24B 2802   2.826   5.334   7.631 -1.0029  0.5002 -2.4604
   38CHL1   C25 2803   2.877   5.147   7.711  0.3182  0.4956 -0.0345
   38CHL1   H25 2804   2.931   5.194   7.796  1.8463  0.5984 -1.0453
   38CHL1   C26 2805   2.736   5.109   7.751 -0.2814 -0.3388  0.4941
   38CHL1  H26A 2806   2.686   5.201   7.787 -3.5614 -1.9302  0.2994
   38CHL1  H26B 2807   2.673   5.055   7.677  0.8721 -0.4752 -0.3934
   38CHL1  H26C 2808   2.747   5.044   7.841 -0.7725 -0.2243  0.6387
   38CHL1   C27 2809   2.957   5.016   7.681 -0.9528  0.6335  0.2738
   38CHL1  H27A 2810   2.966   4.953   7.772  2.3244  0.4589 -0.1125
   38CHL1  H27B 2811   2.903   4.953   7.606  0.5255 -0.3424  0.0013
   38CHL1  H27C 2812   3.062   5.042   7.656 -1.8066  3.2741 -0.8266
   39CHL1    C3 2813   2.304   5.080   6.337  0.0472 -0.3561 -0.0178
   39CHL1    H3 2814   2.400   5.045   6.380  0.9461  0.4689 -1.3148
   39CHL1    O3 2815   2.314   5.071   6.199 -0.5847  0.3728 -0.2166
   39CHL1   H3' 2816   2.225   5.086   6.168 -1.1787 -2.3984  0.0601
   39CHL1    C4 2817   2.211   4.974   6.384 -0.3954 -0.4494  0.0789
   39CHL1   H4A 2818   2.113   5.002   6.339 -0.7778 -0.1899  1.0601
   39CHL1   H4B 2819   2.236   4.874   6.342  1.2010  0.6094 -1.5088
   39CHL1    C5 2820   2.208   4.979   6.536 -0.3957  0.5664  0.1516
   39CHL1    C6 2821   2.244   4.864   6.599  0.1527  0.3191 -0.3609
   39CHL1    H6 2822   2.265   4.774   6.539 -1.3047 -0.3780  0.1480
   39CHL1    C7 2823   2.241   4.851   6.749  0.1100 -0.4104  0.6272
   39CHL1   H7A 2824   2.186   4.757   6.772 -0.2748 -0.9686 -2.2770
   39CHL1   H7B 2825   2.345   4.857   6.787  0.8436 -0.9407 -1.2104
   39CHL1    C8 2826   2.151   4.969   6.805 -0.5641 -0.5410 -0.2354
   39CHL1    H8 2827   2.044   4.962   6.775 -0.7334  0.2944  0.1493
   39CHL1   C14 2828   2.155   4.966   6.956 -0.3938  0.0544  0.0628
   39CHL1   H14 2829   2.260   4.977   6.990 -0.6405 -0.3350  0.9462
   39CHL1   C15 2830   2.101   4.839   7.032  0.2425  0.4324  0.1381
   39CHL1  H15A 2831   2.018   4.800   6.969  0.8933  0.0979 -0.5262
   39CHL1  H15B 2832   2.184   4.765   7.033 -0.5277 -0.4267  0.8782
   39CHL1   C16 2833   2.058   4.883   7.170  0.6399 -0.0815 -0.2570
   39CHL1  H16A 2834   1.955   4.842   7.182  1.1182 -0.5530  2.4740
   39CHL1  H16B 2835   2.120   4.836   7.249  0.3467 -0.3269 -0.1724
   39CHL1   C17 2836   2.086   5.031   7.173  0.1057 -0.0836  0.4076
   39CHL1   H17 2837   2.193   5.040   7.203  0.0715  1.3372  0.1416
   39CHL1   C13 2838   2.083   5.081   7.024 -0.5192 -0.2681 -0.3045
   39CHL1   C18 2839   1.933   5.081   6.985 -0.6313 -0.6050  0.0541
   39CHL1  H18A 2840   1.889   5.165   7.043 -0.2825 -1.7165  1.9829
   39CHL1  H18B 2841   1.910   5.096   6.878 -0.1903  0.1490  0.0676
   39CHL1  H18C 2842   1.880   4.987   7.014 -1.0669 -0.5940 -0.6893
   39CHL1   C12 2843   2.154   5.207   6.982 -0.7955 -0.1554 -0.2243
   39CHL1  H12A 2844   2.106   5.300   7.020 -0.3283  0.0464 -0.1254
   39CHL1  H12B 2845   2.261   5.208   7.010 -0.9465 -1.6031  0.4837
   39CHL1   C11 2846   2.146   5.233   6.825 -0.0039  0.5591 -0.3198
   39CHL1  H11A 2847   2.039   5.258   6.810 -0.1934 -0.3817 -0.5400
   39CHL1  H11B 2848   2.211   5.317   6.790  0.0619  0.7705  0.3053
   39CHL1    C9 2849   2.189   5.109   6.750  0.1496 -0.0889 -0.1570
   39CHL1    H9 2850   2.299   5.105   6.765  0.2551  2.7192 -0.0719
   39CHL1   C10 2851   2.178   5.118   6.599 -0.0328  0.0343  0.1667
   39CHL1   C19 2852   2.026   5.148   6.563  1.1751 -0.6829  0.3783
   39CHL1  H19A 2853   1.993   5.241   6.614  2.4294 -0.0521  0.0430
   39CHL1  H19B 2854   2.011   5.155   6.453 -1.4777 -3.1292  0.5258
   39CHL1  H19C 2855   1.969   5.055   6.586  0.3055 -0.0941  0.6229
   39CHL1    C1 2856   2.267   5.223   6.534 -0.3178  0.7279 -0.2395
   39CHL1   H1A 2857   2.234   5.315   6.586 -5.2274 -0.8883 -0.2457
   39CHL1   H1B 2858   2.371   5.198   6.562 -0.1999  0.2344 -1.0848
   39CHL1    C2 2859   2.267   5.226   6.382 -0.1147  0.0046  0.7174
   39CHL1   H2A 2860   2.340   5.298   6.340  0.2033 -2.4881 -3.2964
   39CHL1   H2B 2861   2.168   5.248   6.335 -1.0344 -4.3193  0.3924
   39CHL1   C20 2862   2.008   5.112   7.276 -0.3052 -0.3505  0.3712
   39CHL1   H20 2863   1.918   5.161   7.233 -1.9027 -2.2665  1.3852
   39CHL1   C21 2864   2.090   5.235   7.322 -0.1796  0.9145  0.2616
   39CHL1  H21A 2865   2.158   5.210   7.406  2.5252  2.4940 -1.3744
   39CHL1  H21B 2866   2.010   5.304   7.358 -0.1999 -0.3369  2.6995
   39CHL1  H21C 2867   2.148   5.279   7.238  0.5829 -0.7236 -0.0855
   39CHL1   C22 2868   1.980   5.032   7.405 -0.3906 -0.6129 -0.3096
   39CHL1  H22A 2869   1.924   4.936   7.401 -3.3370  1.0289  0.3451
   39CHL1  H22B 2870   2.076   4.998   7.449 -0.6327 -2.7010 -1.3290
   39CHL1   C23 2871   1.904   5.106   7.514 -0.1411  0.0053 -0.3399
   39CHL1  H23A 2872   1.973   5.185   7.552 -0.0664 -0.0576 -0.3463
   39CHL1  H23B 2873   1.817   5.165   7.475 -0.9452 -0.4425  0.7561
   39CHL1   C24 2874   1.869   5.022   7.640 -0.4397 -0.1876 -0.3362
   39CHL1  H24A 2875   1.828   4.922   7.619 -1.2063  0.0755 -0.1205
   39CHL1  H24B 2876   1.964   5.005   7.695 -1.2232  1.3441  1.5817
   39CHL1   C25 2877   1.784   5.093   7.744 -0.0961  0.3270 -0.4912
   39CHL1   H25 2878   1.693   5.120   7.685 -1.8184 -2.6381  0.7538
   39CHL1   C26 2879   1.729   4.995   7.853  0.2581  0.2527  0.2272
   39CHL1  H26A 2880   1.701   4.899   7.803 -0.6420  0.2697  0.6990
   39CHL1  H26B 2881   1.815   4.969   7.919 -0.0155  2.1030  1.3288
   39CHL1  H26C 2882   1.651   5.048   7.911 -0.1602  0.8240 -0.8528
   39CHL1   C27 2883   1.847   5.210   7.817 -0.3439 -0.0384  0.6825
   39CHL1  H27A 2884   1.888   5.290   7.751  1.3976 -0.3701  1.3286
   39CHL1  H27B 2885   1.768   5.258   7.878 -1.1192 -0.8226  0.3133
   39CHL1  H27C 2886   1.921   5.171   7.890 -0.4826  0.8269  1.2934
   40CHL1    C3 2887   5.808   3.489   6.027  0.4446  0.0478 -0.3473
   40CHL1    H3 2888   5.858   3.394   5.999  3.3124  1.7430 -1.2330
   40CHL1    O3 2889   5.759   3.548   5.907 -0.4825 -0.5762  0.3467
   40CHL1   H3' 2890   5.730   3.639   5.920 -0.2638 -0.6633  1.4408
   40CHL1    C4 2891   5.700   3.472   6.138 -0.4435 -0.0776 -0.2608
   40CHL1   H4A 2892   5.651   3.572   6.132  2.6834  1.4763 -0.8592
   40CHL1   H4B 2893   5.625   3.401   6.096 -0.1425 -1.0435  0.7981
   40CHL1    C5 2894   5.741   3.426   6.276  0.6077  0.3378 -0.7542
   40CHL1    C6 2895   5.684   3.319   6.333  0.2076  0.2812 -0.4813
   40CHL1    H6 2896   5.600   3.273   6.280  0.3943 -1.3852  0.6248
   40CHL1    C7 2897   5.723   3.277   6.471  0.5051 -0.1347  0.9364
   40CHL1   H7A 2898   5.633   3.248   6.529  0.5933 -1.0547  0.6291
   40CHL1   H7B 2899   5.773   3.178   6.462  1.7813  0.3803  2.1505
   40CHL1    C8 2900   5.814   3.372   6.549  0.4814 -0.0054 -0.3804
   40CHL1    H8 2901   5.753   3.457   6.585  1.4471  2.2866 -3.8807
   40CHL1   C14 2902   5.877   3.291   6.652  0.0442 -0.4669 -0.4070
   40CHL1   H14 2903   5.943   3.216   6.603  2.2496  1.7697 -0.9759
   40CHL1   C15 2904   5.784   3.207   6.747  0.0440 -0.3996  0.6679
   40CHL1  H15A 2905   5.690   3.261   6.771 -0.5129 -0.0055 -2.1767
   40CHL1  H15B 2906   5.769   3.107   6.703  0.1144  0.2285 -0.8245
   40CHL1   C16 2907   5.864   3.190   6.875  0.3582 -0.6486  0.1238
   40CHL1  H16A 2908   5.811   3.224   6.966 -2.0751  1.2167 -1.9344
   40CHL1  H16B 2909   5.885   3.080   6.879  1.2849 -0.4167  2.7873
   40CHL1   C17 2910   5.995   3.271   6.860  0.2537  0.5810  0.7786
   40CHL1   H17 2911   6.060   3.188   6.822  0.7328  1.6105 -0.7072
   40CHL1   C13 2912   5.972   3.371   6.742  0.7874 -0.4506 -0.4891
   40CHL1   C18 2913   5.888   3.489   6.803 -0.3198 -0.2815  0.1676
   40CHL1  H18A 2914   5.803   3.447   6.861 -1.7916  0.7726 -1.1692
   40CHL1  H18B 2915   5.954   3.550   6.867  0.1232 -0.7739  0.1828
   40CHL1  H18C 2916   5.846   3.559   6.727  0.3724  0.3846  0.3959
   40CHL1   C12 2917   6.084   3.426   6.648  0.7261  0.3315 -0.1022
   40CHL1  H12A 2918   6.149   3.490   6.711  1.3051 -0.3560  0.0136
   40CHL1  H12B 2919   6.133   3.329   6.625 -0.3901  0.5581 -3.7735
   40CHL1   C11 2920   6.042   3.501   6.528  0.1575 -0.3480 -0.1072
   40CHL1  H11A 2921   6.017   3.603   6.566  3.4867  0.4294  0.1034
   40CHL1  H11B 2922   6.132   3.500   6.464  0.9653 -1.2137  1.0298
   40CHL1    C9 2923   5.921   3.428   6.455 -0.6585 -0.2207 -0.5982
   40CHL1    H9 2924   5.973   3.341   6.409  0.1314  0.7669 -1.5990
   40CHL1   C10 2925   5.857   3.503   6.335  0.2305  0.1039 -0.2168
   40CHL1   C19 2926   5.806   3.641   6.382  0.5229 -0.2596 -0.3029
   40CHL1  H19A 2927   5.895   3.706   6.398  0.2316  0.4215 -1.4528
   40CHL1  H19B 2928   5.748   3.697   6.306  0.0128  1.6171  1.3891
   40CHL1  H19C 2929   5.740   3.626   6.471  1.0312 -1.5883 -0.1416
   40CHL1    C1 2930   5.964   3.516   6.221 -0.0519 -0.0177 -0.6251
   40CHL1   H1A 2931   6.046   3.578   6.263 -0.1356 -0.7867  0.6970
   40CHL1   H1B 2932   5.999   3.412   6.202 -0.0012 -0.4259  1.5526
   40CHL1    C2 2933   5.924   3.567   6.079  0.0894 -0.1451 -0.1641
   40CHL1   H2A 2934   6.016   3.554   6.018  0.4584 -2.4746  0.8499
   40CHL1   H2B 2935   5.899   3.675   6.077  0.3385 -0.0428  1.6466
   40CHL1   C20 2936   6.050   3.314   6.994 -0.7765 -0.3541  0.0878
   40CHL1   H20 2937   5.986   3.393   7.039  2.4755  1.9663  0.8467
   40CHL1   C21 2938   6.186   3.382   6.960  1.3864 -0.0572  0.1029
   40CHL1  H21A 2939   6.245   3.317   6.892  2.1905 -1.3713  2.0368
   40CHL1  H21B 2940   6.242   3.408   7.052  0.7493 -1.5185  0.9138
   40CHL1  H21C 2941   6.171   3.479   6.907  1.1699 -0.4560 -0.5704
   40CHL1   C22 2942   6.070   3.204   7.105  0.0609 -0.3893  0.7635
   40CHL1  H22A 2943   5.970   3.157   7.116  0.9963 -2.0563  2.2941
   40CHL1  H22B 2944   6.139   3.126   7.067  1.1286  1.3715 -1.0443
   40CHL1   C23 2945   6.103   3.266   7.245  0.1626 -0.1732  0.3403
   40CHL1  H23A 2946   6.194   3.328   7.234  0.1686 -0.3746 -0.7633
   40CHL1  H23B 2947   6.017   3.331   7.272 -1.6592 -1.1743 -2.8071
   40CHL1   C24 2948   6.120   3.159   7.357 -0.7261 -0.2985 -0.5200
   40CHL1  H24A 2949   6.128   3.217   7.451  0.5352  0.8364 -1.3074
   40CHL1  H24B 2950   6.022   3.110   7.371 -0.5457  0.5486  4.6320
   40CHL1   C25 2951   6.235   3.057   7.354  0.7418 -0.0986  0.4738
   40CHL1   H25 2952   6.222   3.004   7.257  0.5569  1.0999 -0.1599
   40CHL1   C26 2953   6.379   3.122   7.361 -0.2423 -0.4592 -0.3894
   40CHL1  H26A 2954   6.410   3.166   7.263  2.2077 -1.8952 -0.2996
   40CHL1  H26B 2955   6.382   3.209   7.430 -3.2436  0.0240 -0.8028
   40CHL1  H26C 2956   6.452   3.042   7.383  1.2285  1.2901  1.2448
   40CHL1   C27 2957   6.214   2.961   7.468  0.5707 -0.7243 -0.0187
   40CHL1  H27A 2958   6.295   2.886   7.454  1.7796  0.7741 -1.2495
   40CHL1  H27B 2959   6.210   3.026   7.558  0.8736 -0.9369  0.1485
   40CHL1  H27C 2960   6.117   2.908   7.466 -0.7452  1.6689 -3.1468
   41CHL1    C3 2961   6.106   4.111   6.210 -0.2200 -0.0545 -0.2948
   41CHL1    H3 2962   6.215   4.123   6.227 -0.6511  0.5312  2.3037
   41CHL1    O3 2963   6.074   4.112   6.075 -0.5835  0.1768  1.0074
   41CHL1   H3' 2964   6.063   4.202   6.044 -0.8806 -0.0869  0.3282
   41CHL1    C4 2965   6.053   3.984   6.279 -0.0129  0.1579  0.1282
   41CHL1   H4A 2966   5.944   3.973   6.259  0.4774 -0.0401 -2.6172
   41CHL1   H4B 2967   6.091   3.888   6.236 -1.3660 -0.9052  1.2486
   41CHL1    C5 2968   6.060   3.976   6.428 -0.0432  0.2505 -0.0884
   41CHL1    C6 2969   6.127   3.878   6.488  0.2108  0.1635 -0.2482
   41CHL1    H6 2970   6.167   3.793   6.430  0.7181  0.4712 -0.3427
   41CHL1    C7 2971   6.143   3.868   6.638 -0.2637  0.3481  0.4974
   41CHL1   H7A 2972   6.122   3.763   6.670  0.3680  0.6194  1.8439
   41CHL1   H7B 2973   6.247   3.900   6.662 -0.3277  1.2008 -0.3255
   41CHL1    C8 2974   6.043   3.966   6.714  0.3953 -0.1200  0.4027
   41CHL1    H8 2975   5.945   3.913   6.712 -0.2689  1.1352 -0.9369
   41CHL1   C14 2976   6.087   3.976   6.857 -0.3679 -0.2286 -0.0658
   41CHL1   H14 2977   6.185   4.026   6.848  0.5969 -2.0993 -0.2741
   41CHL1   C15 2978   6.115   3.848   6.936  0.5861  0.2735  0.8761
   41CHL1  H15A 2979   6.044   3.766   6.910 -1.6211  1.6865  2.2593
   41CHL1  H15B 2980   6.216   3.809   6.913  0.4078 -1.5325  2.9654
   41CHL1   C16 2981   6.106   3.884   7.082 -0.0800  0.1126 -0.2189
   41CHL1  H16A 2982   6.031   3.819   7.132  0.0847  0.1757  0.1079
   41CHL1  H16B 2983   6.204   3.856   7.127  1.1853  1.0351 -2.3210
   41CHL1   C17 2984   6.066   4.031   7.090 -0.1360 -0.2236 -0.0235
   41CHL1   H17 2985   6.151   4.101   7.082 -0.7176  0.4100 -0.7977
   41CHL1   C13 2986   5.998   4.059   6.952 -0.4090  0.5919 -0.8735
   41CHL1   C18 2987   5.853   4.003   6.944  0.2624  0.4338 -0.2332
   41CHL1  H18A 2988   5.814   4.009   6.840  0.0695 -1.6786 -0.2962
   41CHL1  H18B 2989   5.848   3.898   6.979  1.3107  0.4440 -0.0347
   41CHL1  H18C 2990   5.778   4.056   7.007  0.4185  0.1581  0.1866
   41CHL1   C12 2991   6.004   4.201   6.891 -0.0776 -0.0046 -0.0169
   41CHL1  H12A 2992   5.928   4.262   6.943  0.9795  1.5979 -0.3086
   41CHL1  H12B 2993   6.108   4.236   6.912  0.2809  0.6099 -2.6299
   41CHL1   C11 2994   5.979   4.206   6.740  0.1927  0.2015 -0.0467
   41CHL1  H11A 2995   5.868   4.202   6.737  0.0204  2.5528  1.5138
   41CHL1  H11B 2996   6.002   4.309   6.705  0.6383 -0.0551 -0.5103
   41CHL1    C9 2997   6.051   4.102   6.654  0.1800 -0.7979 -0.0916
   41CHL1    H9 2998   6.160   4.121   6.659  0.5167 -3.0165  3.7976
   41CHL1   C10 2999   6.013   4.102   6.501 -0.3244 -0.6856  0.0036
   41CHL1   C19 3000   5.862   4.112   6.492 -0.3352 -0.0206  0.1544
   41CHL1  H19A 3001   5.828   4.215   6.518 -0.2655  0.0768 -0.1374
   41CHL1  H19B 3002   5.818   4.102   6.391 -0.1720 -0.5591  0.1353
   41CHL1  H19C 3003   5.822   4.038   6.565  2.1100  0.0676  1.6383
   41CHL1    C1 3004   6.068   4.229   6.429 -0.1557 -1.2052 -0.6289
   41CHL1   H1A 3005   6.021   4.315   6.480  0.0551 -2.0016  0.9318
   41CHL1   H1B 3006   6.178   4.230   6.448 -0.2284 -0.4480 -0.2566
   41CHL1    C2 3007   6.045   4.231   6.279  0.1090  0.0412  0.3050
   41CHL1   H2A 3008   6.090   4.325   6.241 -1.8988  0.9622  0.1469
   41CHL1   H2B 3009   5.937   4.228   6.254 -0.2918 -1.9862  2.1213
   41CHL1   C20 3010   5.985   4.053   7.218  0.0117  0.1150  0.7905
   41CHL1   H20 3011   5.897   3.985   7.219  0.3600 -0.3765 -0.3875
   41CHL1   C21 3012   5.943   4.202   7.227 -0.6873  0.0705 -0.6119
   41CHL1  H21A 3013   6.027   4.273   7.236 -0.5399 -0.1870  0.0593
   41CHL1  H21B 3014   5.874   4.213   7.314  0.1336 -2.9574  0.4895
   41CHL1  H21C 3015   5.880   4.231   7.140  0.1618  1.4624 -0.7762
   41CHL1   C22 3016   6.066   4.004   7.337 -0.2032  0.3304  0.6904
   41CHL1  H22A 3017   6.100   3.899   7.321 -3.8290 -0.7637 -0.3546
   41CHL1  H22B 3018   6.139   4.081   7.370  0.5232 -0.6790  1.4738
   41CHL1   C23 3019   5.976   3.994   7.468 -0.3874  0.1488 -0.3970
   41CHL1  H23A 3020   5.953   4.097   7.503 -0.9699 -1.0225  2.8131
   41CHL1  H23B 3021   5.887   3.929   7.456 -0.0023 -0.4689  0.0229
   41CHL1   C24 3022   6.058   3.962   7.594  0.5235 -0.0627 -0.1510
   41CHL1  H24A 3023   6.079   3.853   7.592  0.2450 -0.1215  0.0269
   41CHL1  H24B 3024   6.150   4.024   7.585  0.2196  0.4656  0.2937
   41CHL1   C25 3025   5.982   3.979   7.724  0.2588  0.5817 -0.2304
   41CHL1   H25 3026   5.963   4.087   7.745  1.8632  0.9410 -0.5043
   41CHL1   C26 3027   5.855   3.894   7.736  0.2859 -0.3158 -1.0832
   41CHL1  H26A 3028   5.885   3.790   7.708  1.7882  0.5129 -2.5914
   41CHL1  H26B 3029   5.813   3.892   7.839  2.0521 -0.3576 -0.3461
   41CHL1  H26C 3030   5.779   3.938   7.668  1.5273 -0.4441 -2.5778
   41CHL1   C27 3031   6.071   3.927   7.842  0.4098 -0.1738 -0.4016
   41CHL1  H27A 3032   6.160   3.994   7.852 -2.6785  4.0212  0.1086
   41CHL1  H27B 3033   6.012   3.922   7.936  0.6745 -1.5252 -0.2969
   41CHL1  H27C 3034   6.110   3.827   7.811 -1.2539 -0.8310 -0.4300
   42CHL1    C3 3035   6.056   2.155   6.233 -0.2019  0.1448 -0.1337
   42CHL1    H3 3036   5.960   2.103   6.213  0.1895 -0.8361  0.5126
   42CHL1    O3 3037   6.107   2.164   6.107  0.4783 -0.2436  0.0109
   42CHL1   H3' 3038   6.134   2.073   6.096 -0.5821 -0.6508  0.6764
   42CHL1    C4 3039   6.035   2.296   6.285  0.1869  0.2560  0.1033
   42CHL1   H4A 3040   6.126   2.360   6.277 -1.3788  2.3096 -1.8154
   42CHL1   H4B 3041   5.979   2.354   6.209 -1.8833 -1.5204  0.2411
   42CHL1    C5 3042   5.981   2.298   6.429 -0.2504  0.1323  0.5373
   42CHL1    C6 3043   5.874   2.373   6.460  0.3817  0.1857 -0.0915
   42CHL1    H6 3044   5.827   2.432   6.380 -0.0125 -0.5838 -0.4321
   42CHL1    C7 3045   5.829   2.379   6.604 -0.2024 -0.1606 -0.9991
   42CHL1   H7A 3046   5.807   2.487   6.622  2.2540  0.0560  0.9799
   42CHL1   H7B 3047   5.733   2.325   6.612 -1.1341  1.3207 -2.0831
   42CHL1    C8 3048   5.920   2.321   6.716  0.0975  0.1375 -1.2074
   42CHL1    H8 3049   5.996   2.402   6.723 -2.0418  2.0338  0.5371
   42CHL1   C14 3050   5.855   2.296   6.853 -0.1806  0.2972  0.3202
   42CHL1   H14 3051   5.794   2.205   6.835 -1.5173  1.4607 -1.1775
   42CHL1   C15 3052   5.769   2.406   6.909 -0.2029 -0.0016 -0.3546
   42CHL1  H15A 3053   5.825   2.500   6.894 -1.2591  0.8848  1.1571
   42CHL1  H15B 3054   5.671   2.408   6.858 -0.6627  0.9307  0.5637
   42CHL1   C16 3055   5.749   2.366   7.053  0.4212  0.2252 -0.0362
   42CHL1  H16A 3056   5.760   2.460   7.112  2.7023  0.7134 -1.1777
   42CHL1  H16B 3057   5.645   2.337   7.078  0.2994  0.9679  0.3405
   42CHL1   C17 3058   5.853   2.245   7.069  0.7655 -0.8724 -0.9506
   42CHL1   H17 3059   5.794   2.152   7.053 -0.6281 -0.0720 -0.5730
   42CHL1   C13 3060   5.949   2.245   6.956 -0.4153 -1.0640  0.1129
   42CHL1   C18 3061   6.058   2.351   6.980 -0.0006  0.4018  0.3281
   42CHL1  H18A 3062   6.113   2.319   7.071 -0.8387  0.3475  0.8214
   42CHL1  H18B 3063   6.132   2.369   6.900  0.1204  0.1235  0.3768
   42CHL1  H18C 3064   6.015   2.451   7.001  1.9473  1.4286 -0.4595
   42CHL1   C12 3065   6.003   2.105   6.909 -0.3768 -1.0467 -0.4094
   42CHL1  H12A 3066   6.078   2.055   6.975 -0.4815 -0.7705 -0.0828
   42CHL1  H12B 3067   5.920   2.031   6.902 -1.8844  0.6587 -0.6602
   42CHL1   C11 3068   6.068   2.115   6.774  0.2750  0.5459 -0.1335
   42CHL1  H11A 3069   6.166   2.164   6.791  1.6460 -0.6485 -4.0658
   42CHL1  H11B 3070   6.091   2.012   6.739  0.1489  1.5424 -3.3319
   42CHL1    C9 3071   5.979   2.186   6.667  0.1351 -0.3619  0.3915
   42CHL1    H9 3072   5.891   2.123   6.644 -0.2749  0.7011 -1.0632
   42CHL1   C10 3073   6.055   2.210   6.528 -0.6014  0.0594 -0.2753
   42CHL1   C19 3074   6.192   2.271   6.557  0.4673  0.0492 -0.0648
   42CHL1  H19A 3075   6.244   2.329   6.478  0.2994 -0.0883 -0.2741
   42CHL1  H19B 3076   6.183   2.354   6.631  1.8033  1.2527 -1.2029
   42CHL1  H19C 3077   6.260   2.189   6.589 -1.7510 -2.5321 -1.7588
   42CHL1    C1 3078   6.079   2.068   6.464  0.3346  0.1480 -0.6670
   42CHL1   H1A 3079   6.153   2.015   6.527 -1.0634 -1.2551 -0.1640
   42CHL1   H1B 3080   5.990   2.001   6.465  1.3438 -1.2196 -1.3637
   42CHL1    C2 3081   6.137   2.065   6.324 -0.2741  0.2672 -0.6544
   42CHL1   H2A 3082   6.132   1.962   6.281 -1.5482  0.6091 -1.3315
   42CHL1   H2B 3083   6.243   2.099   6.318  0.0021 -0.5645 -0.7137
   42CHL1   C20 3084   5.904   2.215   7.209 -0.1679  0.2347 -0.2479
   42CHL1   H20 3085   6.007   2.179   7.189  0.1889  0.2465  1.4605
   42CHL1   C21 3086   5.824   2.109   7.281  0.0029  0.4852  0.7173
   42CHL1  H21A 3087   5.877   2.083   7.375 -1.2592  2.4528  2.0183
   42CHL1  H21B 3088   5.819   2.010   7.230  3.2769  1.6747 -2.0530
   42CHL1  H21C 3089   5.726   2.143   7.322 -1.9530 -0.3469 -3.0781
   42CHL1   C22 3090   5.916   2.349   7.287  0.1421  0.0019  0.3313
   42CHL1  H22A 3091   5.964   2.415   7.212  0.4008  0.1927  0.6649
   42CHL1  H22B 3092   5.817   2.380   7.326  0.8269  1.1039  1.2488
   42CHL1   C23 3093   6.010   2.355   7.408  0.0780 -0.6198  1.2780
   42CHL1  H23A 3094   5.962   2.298   7.491  1.3010 -0.8699  1.8210
   42CHL1  H23B 3095   6.103   2.300   7.384  0.6245  0.2296  1.4055
   42CHL1   C24 3096   6.068   2.496   7.439  0.2917 -0.3752  0.2981
   42CHL1  H24A 3097   6.120   2.549   7.356  2.3268 -1.1912  1.0284
   42CHL1  H24B 3098   5.975   2.555   7.457  0.4479 -0.1482  0.3579
   42CHL1   C25 3099   6.156   2.473   7.560 -0.1190  1.2025  0.4690
   42CHL1   H25 3100   6.104   2.389   7.610 -2.2540  2.3193  0.1702
   42CHL1   C26 3101   6.302   2.431   7.529  0.4072 -0.0691 -0.8656
   42CHL1  H26A 3102   6.314   2.341   7.465  1.2214  1.1159 -2.4141
   42CHL1  H26B 3103   6.356   2.516   7.482  2.4970  0.0943  1.6752
   42CHL1  H26C 3104   6.355   2.420   7.626  3.5715 -0.6171 -2.5798
   42CHL1   C27 3105   6.149   2.603   7.657 -0.2402  1.0340  0.1918
   42CHL1  H27A 3106   6.195   2.684   7.597 -0.8699  0.5826 -0.9224
   42CHL1  H27B 3107   6.186   2.584   7.760 -0.0207 -0.7640 -0.2007
   42CHL1  H27C 3108   6.044   2.637   7.670 -0.1560  1.1419  0.5879
   43CHL1    C3 3109   5.633   5.685   6.156  0.1902  0.7353 -0.4406
   43CHL1    H3 3110   5.702   5.616   6.103 -0.0643  1.6566 -1.9981
   43CHL1    O3 3111   5.601   5.778   6.053  0.6259  0.6342 -0.3129
   43CHL1   H3' 3112   5.685   5.820   6.033  0.1184  1.0478 -1.7187
   43CHL1    C4 3113   5.506   5.605   6.197 -0.1213  0.0264  0.2006
   43CHL1   H4A 3114   5.425   5.680   6.206 -0.0660  0.1475 -0.2874
   43CHL1   H4B 3115   5.465   5.532   6.124  2.6109 -0.2211 -1.1694
   43CHL1    C5 3116   5.507   5.549   6.342 -0.2248 -0.4886  0.5332
   43CHL1    C6 3117   5.459   5.433   6.369  0.2958  0.2527  0.1464
   43CHL1    H6 3118   5.412   5.366   6.296 -0.1947  2.0762 -1.2516
   43CHL1    C7 3119   5.463   5.365   6.504 -0.0451  0.0090 -0.3004
   43CHL1   H7A 3120   5.370   5.313   6.534  1.5605 -3.1008 -0.4446
   43CHL1   H7B 3121   5.543   5.288   6.491 -0.2379 -0.4763  1.2893
   43CHL1    C8 3122   5.499   5.461   6.622 -0.3405  0.2134 -0.0790
   43CHL1    H8 3123   5.402   5.515   6.630  0.2313  1.1318  0.8905
   43CHL1   C14 3124   5.549   5.390   6.754 -0.2359 -0.3350 -0.4354
   43CHL1   H14 3125   5.646   5.343   6.725 -0.5389 -0.4349 -1.3130
   43CHL1   C15 3126   5.474   5.262   6.787 -0.0267  0.3707 -0.5312
   43CHL1  H15A 3127   5.364   5.277   6.786  0.0659  1.0491 -1.0720
   43CHL1  H15B 3128   5.511   5.176   6.728 -0.6212 -0.3915  0.2098
   43CHL1   C16 3129   5.512   5.244   6.934 -0.8977 -0.1502 -0.1793
   43CHL1  H16A 3130   5.421   5.240   6.997 -2.1916 -1.5745 -2.0723
   43CHL1  H16B 3131   5.571   5.150   6.942  0.7903  0.7447 -1.7029
   43CHL1   C17 3132   5.603   5.360   6.977  0.0316  0.4718  0.6188
   43CHL1   H17 3133   5.709   5.333   6.956  0.2638  1.8983 -0.1400
   43CHL1   C13 3134   5.571   5.470   6.874 -0.0360 -1.0543  0.5197
   43CHL1   C18 3135   5.438   5.551   6.904 -0.1132  0.0587 -0.9659
   43CHL1  H18A 3136   5.408   5.615   6.818 -1.0900  0.8920 -0.0191
   43CHL1  H18B 3137   5.351   5.485   6.919  2.0044 -2.4166  0.8100
   43CHL1  H18C 3138   5.457   5.616   6.992  0.2672  0.8765 -1.6395
   43CHL1   C12 3139   5.688   5.571   6.832  0.0864 -0.3353 -0.3204
   43CHL1  H12A 3140   5.715   5.644   6.911 -2.0791  1.0028 -0.7860
   43CHL1  H12B 3141   5.784   5.516   6.817  0.7400  0.2749  1.5061
   43CHL1   C11 3142   5.662   5.644   6.702 -0.1304  0.0193 -0.7621
   43CHL1  H11A 3143   5.579   5.714   6.723  0.3982  0.5852 -0.5480
   43CHL1  H11B 3144   5.754   5.701   6.678  0.1280  0.5176  1.3399
   43CHL1    C9 3145   5.616   5.559   6.585  0.0439  0.3143 -0.0764
   43CHL1    H9 3146   5.707   5.499   6.563  1.4773  1.3537  2.7116
   43CHL1   C10 3147   5.580   5.631   6.450  0.0532  0.3323 -0.0689
   43CHL1   C19 3148   5.484   5.748   6.481 -0.1304  0.2626 -0.0935
   43CHL1  H19A 3149   5.438   5.791   6.389 -0.8076 -1.4935 -0.5963
   43CHL1  H19B 3150   5.393   5.730   6.543 -0.5244  1.7407 -0.2059
   43CHL1  H19C 3151   5.542   5.828   6.532  2.0305 -0.8596 -0.7568
   43CHL1    C1 3152   5.720   5.681   6.395  0.1367 -0.3636 -0.3973
   43CHL1   H1A 3153   5.757   5.747   6.475 -0.0738 -1.7509  0.8686
   43CHL1   H1B 3154   5.795   5.601   6.378  1.9946  1.6509 -1.9851
   43CHL1    C2 3155   5.702   5.762   6.262  0.1078 -0.1875  0.1027
   43CHL1   H2A 3156   5.801   5.784   6.217  0.3660 -3.7438 -1.2365
   43CHL1   H2B 3157   5.642   5.854   6.281 -1.0717 -1.4091  2.4624
   43CHL1   C20 3158   5.587   5.385   7.132  0.2846  0.1586  0.7296
   43CHL1   H20 3159   5.480   5.406   7.153 -0.2795 -1.5072 -0.3835
   43CHL1   C21 3160   5.665   5.507   7.186  0.2782  0.9154  0.5006
   43CHL1  H21A 3161   5.775   5.496   7.176  0.1616  3.1113 -5.1903
   43CHL1  H21B 3162   5.653   5.516   7.296  2.2811  3.2133  0.5757
   43CHL1  H21C 3163   5.629   5.596   7.130 -1.3884 -0.2697 -0.3451
   43CHL1   C22 3164   5.630   5.260   7.218  0.1945 -0.5059  0.3469
   43CHL1  H22A 3165   5.582   5.170   7.174  1.2875 -1.7662  1.6848
   43CHL1  H22B 3166   5.739   5.243   7.223  0.3315  0.0688 -0.7006
   43CHL1   C23 3167   5.587   5.278   7.366 -0.6404  0.8757 -1.2191
   43CHL1  H23A 3168   5.675   5.320   7.419  0.5994 -1.8566 -1.0205
   43CHL1  H23B 3169   5.498   5.342   7.380 -2.2507 -1.4936 -0.2705
   43CHL1   C24 3170   5.556   5.141   7.423  0.4953 -0.3638  0.8557
   43CHL1  H24A 3171   5.453   5.107   7.398  0.0987  2.6415 -1.9019
   43CHL1  H24B 3172   5.626   5.070   7.374 -0.0523 -0.3483  0.0417
   43CHL1   C25 3173   5.567   5.120   7.576  0.0803 -0.1142 -0.7336
   43CHL1   H25 3174   5.665   5.162   7.609 -0.8337  0.6112  1.1152
   43CHL1   C26 3175   5.456   5.193   7.655  0.9305 -0.7574 -0.3744
   43CHL1  H26A 3176   5.469   5.163   7.761  1.3121 -1.7294 -0.6906
   43CHL1  H26B 3177   5.473   5.303   7.652 -4.5048  0.1942 -0.0440
   43CHL1  H26C 3178   5.351   5.182   7.623 -0.3286  1.1928  2.7983
   43CHL1   C27 3179   5.571   4.966   7.604  1.1939 -0.1121 -0.5417
   43CHL1  H27A 3180   5.471   4.928   7.574  1.2629  1.5134 -3.0033
   43CHL1  H27B 3181   5.652   4.909   7.553  0.2360 -1.4114 -0.6374
   43CHL1  H27C 3182   5.575   4.949   7.714 -1.0862  1.0612 -0.2448
   44CHL1    C3 3183   6.521   4.323   6.296  0.3043 -0.2930  0.1545
   44CHL1    H3 3184   6.432   4.384   6.321  1.3254  0.9233  0.8627
   44CHL1    O3 3185   6.553   4.338   6.158 -0.1088  0.1430 -0.8855
   44CHL1   H3' 3186   6.612   4.265   6.141 -0.9179 -1.0783  1.2792
   44CHL1    C4 3187   6.636   4.390   6.374 -0.9575  0.1309 -0.1887
   44CHL1   H4A 3188   6.726   4.326   6.361 -3.3151 -3.1328 -1.1130
   44CHL1   H4B 3189   6.666   4.490   6.336 -1.3323 -0.4117 -1.9477
   44CHL1    C5 3190   6.610   4.394   6.519  0.0524  0.0146 -0.4878
   44CHL1    C6 3191   6.617   4.509   6.589 -0.0827 -0.0872  0.5509
   44CHL1    H6 3192   6.637   4.604   6.537 -0.7868 -0.9137 -1.2412
   44CHL1    C7 3193   6.622   4.499   6.745  0.6468  0.4124  0.9080
   44CHL1   H7A 3194   6.714   4.552   6.778  0.6240  0.0883  1.5064
   44CHL1   H7B 3195   6.538   4.556   6.790 -1.1679 -1.1517 -0.3920
   44CHL1    C8 3196   6.612   4.355   6.801  0.0453  0.1131  0.1502
   44CHL1    H8 3197   6.712   4.307   6.794  0.1922 -0.0175  2.7106
   44CHL1   C14 3198   6.561   4.355   6.945  0.4689  1.0575 -0.3210
   44CHL1   H14 3199   6.456   4.389   6.937  0.0546 -0.3381 -0.9260
   44CHL1   C15 3200   6.631   4.453   7.042  0.4976  0.1139 -0.3172
   44CHL1  H15A 3201   6.741   4.458   7.028  0.7098 -1.8886  0.4587
   44CHL1  H15B 3202   6.591   4.555   7.029 -1.3653 -0.7200 -1.4033
   44CHL1   C16 3203   6.591   4.392   7.178  1.3372 -0.4797  0.4957
   44CHL1  H16A 3204   6.682   4.364   7.235  0.1702  1.2613  3.3625
   44CHL1  H16B 3205   6.542   4.476   7.232  0.4584 -0.1927 -0.7303
   44CHL1   C17 3206   6.504   4.266   7.153  0.1449  0.0327 -0.0371
   44CHL1   H17 3207   6.399   4.301   7.138 -0.0104 -1.7705 -3.6343
   44CHL1   C13 3208   6.553   4.222   7.009 -0.0593  0.5997  0.1895
   44CHL1   C18 3209   6.693   4.150   7.025  0.2082 -0.2059 -0.0197
   44CHL1  H18A 3210   6.742   4.130   6.928 -0.9823  0.7025 -0.8291
   44CHL1  H18B 3211   6.769   4.217   7.071 -0.2776  0.8727 -0.7636
   44CHL1  H18C 3212   6.694   4.055   7.083 -2.6967 -0.0788  0.2999
   44CHL1   C12 3213   6.458   4.138   6.926  0.0462  0.0528  0.0301
   44CHL1  H12A 3214   6.451   4.035   6.968  3.7594  0.3459  1.5816
   44CHL1  H12B 3215   6.353   4.174   6.916  0.0464 -0.0811 -0.4883
   44CHL1   C11 3216   6.503   4.126   6.782 -0.1787  0.1460  0.6121
   44CHL1  H11A 3217   6.595   4.063   6.779  0.1964  0.6935  0.6867
   44CHL1  H11B 3218   6.425   4.072   6.724  0.9851 -1.0238  0.1020
   44CHL1    C9 3219   6.532   4.263   6.715  0.1498 -0.0957  0.5474
   44CHL1    H9 3220   6.433   4.311   6.703 -0.5168 -1.8334 -1.0485
   44CHL1   C10 3221   6.584   4.250   6.572  0.0554 -0.2023 -0.3173
   44CHL1   C19 3222   6.717   4.165   6.569 -0.1647 -0.0664 -0.0714
   44CHL1  H19A 3223   6.744   4.141   6.464 -0.6612  0.9969 -0.4463
   44CHL1  H19B 3224   6.804   4.219   6.612 -1.2919  0.0725  2.0909
   44CHL1  H19C 3225   6.710   4.065   6.616 -0.4656  0.1228  0.2817
   44CHL1    C1 3226   6.470   4.176   6.487 -0.2254  0.2337 -0.5351
   44CHL1   H1A 3227   6.460   4.069   6.514  2.0229 -0.4165 -2.1326
   44CHL1   H1B 3228   6.382   4.240   6.511  0.7638  1.5021 -0.2190
   44CHL1    C2 3229   6.500   4.174   6.332  0.2513 -0.4008 -0.5141
   44CHL1   H2A 3230   6.420   4.130   6.269 -0.8500  1.0665 -0.1672
   44CHL1   H2B 3231   6.598   4.123   6.318  0.0919 -0.8883  0.1138
   44CHL1   C20 3232   6.519   4.166   7.272  0.4069 -0.5109  0.1339
   44CHL1   H20 3233   6.627   4.142   7.281  0.5489 -0.3132 -1.0465
   44CHL1   C21 3234   6.450   4.036   7.252 -0.0457 -0.0025 -0.3867
   44CHL1  H21A 3235   6.351   4.061   7.208  0.0918  1.3225  0.0238
   44CHL1  H21B 3236   6.435   3.984   7.349 -0.8162  2.3129  0.7665
   44CHL1  H21C 3237   6.494   3.961   7.183 -0.8798 -0.0346 -0.8846
   44CHL1   C22 3238   6.470   4.237   7.406  0.5817  0.4292 -0.1427
   44CHL1  H22A 3239   6.478   4.347   7.389 -1.4259  0.6771  0.4411
   44CHL1  H22B 3240   6.363   4.213   7.420  0.6362  1.3164  1.9359
   44CHL1   C23 3241   6.541   4.186   7.533  0.2771  0.3859 -0.1593
   44CHL1  H23A 3242   6.494   4.237   7.619 -0.6829 -1.0148  0.1650
   44CHL1  H23B 3243   6.539   4.075   7.530  0.7848  0.1563  4.5589
   44CHL1   C24 3244   6.689   4.215   7.526  0.4784 -1.0334  0.8637
   44CHL1  H24A 3245   6.727   4.156   7.440 -2.2596 -1.4615 -0.1241
   44CHL1  H24B 3246   6.708   4.319   7.492 -0.1441 -1.2626 -0.2367
   44CHL1   C25 3247   6.769   4.174   7.647  0.4945 -0.7208 -0.3499
   44CHL1   H25 3248   6.747   4.066   7.661 -0.3627 -0.4719  0.2293
   44CHL1   C26 3249   6.913   4.200   7.633  0.0062 -0.0315 -0.4879
   44CHL1  H26A 3250   6.922   4.310   7.640  0.7812 -0.1686  0.7417
   44CHL1  H26B 3251   6.972   4.148   7.712 -1.4440 -0.5049  0.2954
   44CHL1  H26C 3252   6.950   4.161   7.535  0.6917  1.3735 -0.8040
   44CHL1   C27 3253   6.725   4.242   7.776 -0.1132  0.1534 -0.1722
   44CHL1  H27A 3254   6.770   4.343   7.769  2.6709 -0.9701  0.9745
   44CHL1  H27B 3255   6.614   4.254   7.775  0.0089  1.4903  0.9042
   44CHL1  H27C 3256   6.761   4.191   7.868  0.3720  3.4837  1.5713
   45CHL1    C3 3257   1.408   2.139   6.357  0.3417  0.5347  0.4090
   45CHL1    H3 3258   1.514   2.167   6.341 -0.3781  1.9941 -1.9709
   45CHL1    O3 3259   1.334   2.158   6.238  0.4069  0.3731 -0.7012
   45CHL1   H3' 3260   1.339   2.075   6.190  0.6763  0.1217 -0.2448
   45CHL1    C4 3261   1.398   1.985   6.386  0.3443  0.8438  0.5651
   45CHL1   H4A 3262   1.295   1.946   6.395  1.5082 -2.0448  1.6445
   45CHL1   H4B 3263   1.440   1.924   6.303  0.9284  0.0801  1.4145
   45CHL1    C5 3264   1.458   1.951   6.520  1.0905  0.4554  0.3075
   45CHL1    C6 3265   1.552   1.862   6.531  0.6021  1.1292  0.0955
   45CHL1    H6 3266   1.563   1.799   6.442  1.9834 -0.7482  1.5764
   45CHL1    C7 3267   1.613   1.826   6.664 -0.7595 -0.0021  0.3634
   45CHL1   H7A 3268   1.628   1.717   6.679  0.0855 -0.3027 -2.4233
   45CHL1   H7B 3269   1.709   1.881   6.659 -0.4023 -0.5240  1.3455
   45CHL1    C8 3270   1.533   1.880   6.791  0.5689  0.5304 -0.1609
   45CHL1    H8 3271   1.444   1.814   6.797  1.4425 -0.8447 -1.8667
   45CHL1   C14 3272   1.623   1.857   6.911  0.2275 -0.1311 -0.3094
   45CHL1   H14 3273   1.718   1.914   6.907 -0.5777  1.2789  0.2908
   45CHL1   C15 3274   1.656   1.711   6.946  0.0880 -0.2648 -0.0108
   45CHL1  H15A 3275   1.561   1.652   6.942 -1.0075  1.3646  1.4803
   45CHL1  H15B 3276   1.727   1.664   6.875  1.8665  2.3069  0.0336
   45CHL1   C16 3277   1.719   1.721   7.084 -0.2210 -0.2823  0.0288
   45CHL1  H16A 3278   1.681   1.640   7.150 -0.3604  1.5209  2.2547
   45CHL1  H16B 3279   1.830   1.728   7.082 -0.3554  1.8425 -1.1728
   45CHL1   C17 3280   1.663   1.856   7.146 -0.1899 -0.4744 -0.2890
   45CHL1   H17 3281   1.743   1.932   7.141 -1.5974  0.9142 -2.6800
   45CHL1   C13 3282   1.560   1.911   7.035  0.0510  0.6471 -0.6210
   45CHL1   C18 3283   1.429   1.835   7.066  0.1840  0.8139 -0.3451
   45CHL1  H18A 3284   1.444   1.728   7.089 -1.1740  0.5119 -0.8277
   45CHL1  H18B 3285   1.371   1.883   7.148  2.0270  1.3360  0.6913
   45CHL1  H18C 3286   1.356   1.837   6.982 -2.2402 -0.6456  1.6594
   45CHL1   C12 3287   1.535   2.058   7.022  0.5638  0.2375 -0.2855
   45CHL1  H12A 3288   1.496   2.111   7.111  1.4875  2.0276 -0.9119
   45CHL1  H12B 3289   1.632   2.108   7.000  1.7320 -1.9551 -0.2929
   45CHL1   C11 3290   1.441   2.082   6.902  0.4020  0.2135  0.5033
   45CHL1  H11A 3291   1.337   2.050   6.923  0.7075  0.2841  2.1329
   45CHL1  H11B 3292   1.434   2.190   6.877 -2.0564 -0.8122 -3.8299
   45CHL1    C9 3293   1.499   2.022   6.764  0.2238  0.1952  0.1120
   45CHL1    H9 3294   1.592   2.079   6.743  0.1995  0.7623  1.4815
   45CHL1   C10 3295   1.416   2.045   6.640 -0.5792  0.3449  0.4596
   45CHL1   C19 3296   1.269   2.011   6.669 -0.0059 -0.0903 -0.1914
   45CHL1  H19A 3297   1.204   2.017   6.579 -0.8255 -1.4010  0.2900
   45CHL1  H19B 3298   1.241   1.923   6.730 -1.3496  1.6956  1.8611
   45CHL1  H19C 3299   1.223   2.092   6.730  0.1780 -2.3854  3.1070
   45CHL1    C1 3300   1.419   2.196   6.602  0.0212 -0.0071 -0.0229
   45CHL1   H1A 3301   1.386   2.256   6.690 -0.5016  1.1561 -0.9883
   45CHL1   H1B 3302   1.524   2.230   6.585  1.2664 -0.8252  5.2360
   45CHL1    C2 3303   1.342   2.219   6.472  1.1705 -0.2063  0.2036
   45CHL1   H2A 3304   1.353   2.325   6.442 -1.2843 -0.8666 -3.4249
   45CHL1   H2B 3305   1.233   2.198   6.476  1.6368 -2.6312  0.7069
   45CHL1   C20 3306   1.630   1.850   7.302  0.2612  0.0663 -0.5266
   45CHL1   H20 3307   1.542   1.783   7.309  0.7862 -0.5936 -0.2123
   45CHL1   C21 3308   1.593   1.991   7.353  0.3411 -0.2589 -0.2527
   45CHL1  H21A 3309   1.601   2.008   7.463  1.5763  0.7067 -0.4791
   45CHL1  H21B 3310   1.499   2.010   7.298  0.4762  0.4747 -0.2385
   45CHL1  H21C 3311   1.655   2.072   7.309 -1.0800  0.4605 -0.9617
   45CHL1   C22 3312   1.733   1.774   7.392  0.4030  0.6292  0.8390
   45CHL1  H22A 3313   1.737   1.669   7.354  1.4062 -0.5613  4.0834
   45CHL1  H22B 3314   1.831   1.826   7.385  0.8306 -0.2622  0.0270
   45CHL1   C23 3315   1.691   1.774   7.534  0.0712 -1.0987  0.1092
   45CHL1  H23A 3316   1.689   1.878   7.572 -1.9404 -0.3140 -2.0692
   45CHL1  H23B 3317   1.586   1.737   7.533  0.3997 -2.0540  0.0767
   45CHL1   C24 3318   1.782   1.690   7.622 -0.0982  0.0085  0.0667
   45CHL1  H24A 3319   1.775   1.584   7.590  0.5310  0.8471 -2.9887
   45CHL1  H24B 3320   1.884   1.734   7.609 -1.5034  3.0941 -0.9722
   45CHL1   C25 3321   1.735   1.687   7.768 -0.7639 -0.0559  1.1602
   45CHL1   H25 3322   1.624   1.690   7.763 -0.7642  0.8663  1.6320
   45CHL1   C26 3323   1.768   1.555   7.830 -0.0951 -0.2910  0.0747
   45CHL1  H26A 3324   1.875   1.529   7.815  0.6419  2.9276 -0.6574
   45CHL1  H26B 3325   1.757   1.563   7.940 -2.0832 -1.0939 -0.0415
   45CHL1  H26C 3326   1.701   1.474   7.793 -3.1162  0.7600  2.9393
   45CHL1   C27 3327   1.788   1.797   7.862 -0.2535 -0.0130 -0.2251
   45CHL1  H27A 3328   1.893   1.775   7.892 -0.9016 -2.4336  0.3498
   45CHL1  H27B 3329   1.781   1.891   7.803  0.1816  0.0165 -0.2303
   45CHL1  H27C 3330   1.736   1.799   7.960  0.7184  1.6457  0.2819
   46CHL1    C3 3331   0.264   3.759   6.372  0.1373 -0.0885 -0.0427
   46CHL1    H3 3332   0.193   3.689   6.421 -1.7447  1.5934 -0.2988
   46CHL1    O3 3333   0.211   3.794   6.241  0.8376  0.2101 -0.1946
   46CHL1   H3' 3334   0.243   3.726   6.182  0.5434 -0.7897  0.7734
   46CHL1    C4 3335   0.278   3.874   6.462  0.6728  1.1308 -1.0587
   46CHL1   H4A 3336   0.348   3.955   6.432  1.3485  1.5085  1.4566
   46CHL1   H4B 3337   0.178   3.922   6.460  0.4482  0.6531 -1.6117
   46CHL1    C5 3338   0.323   3.837   6.603  0.3586 -0.3219 -0.3002
   46CHL1    C6 3339   0.256   3.866   6.714  0.0747 -0.7599  0.2999
   46CHL1    H6 3340   0.172   3.937   6.713  1.1053  0.4822 -1.1085
   46CHL1    C7 3341   0.298   3.837   6.855 -0.7666  0.5313 -0.1794
   46CHL1   H7A 3342   0.275   3.930   6.911 -1.0088  0.6096 -0.4070
   46CHL1   H7B 3343   0.232   3.754   6.889 -3.8580  2.3071 -1.6000
   46CHL1    C8 3344   0.449   3.810   6.862  0.3406 -0.6115 -0.4578
   46CHL1    H8 3345   0.500   3.908   6.851 -1.3261  0.4416  0.9414
   46CHL1   C14 3346   0.490   3.757   6.998  0.3084  0.1093  0.6536
   46CHL1   H14 3347   0.432   3.664   7.017 -0.3920  0.3614 -0.2159
   46CHL1   C15 3348   0.452   3.838   7.123  0.3504  0.3800 -0.7382
   46CHL1  H15A 3349   0.479   3.944   7.104  1.9292  0.3499  1.0807
   46CHL1  H15B 3350   0.343   3.835   7.144 -0.4793 -3.8549 -4.8414
   46CHL1   C16 3351   0.533   3.771   7.234  0.3708 -0.2164 -0.0861
   46CHL1  H16A 3352   0.580   3.854   7.291  1.3338  0.4820 -1.8337
   46CHL1  H16B 3353   0.472   3.713   7.307  1.9082 -1.0021  0.5976
   46CHL1   C17 3354   0.646   3.687   7.159  0.1015 -0.0822  0.2554
   46CHL1   H17 3355   0.607   3.583   7.161 -1.4342  0.4746 -0.4836
   46CHL1   C13 3356   0.642   3.727   7.012 -0.4392 -0.9281  0.7851
   46CHL1   C18 3357   0.717   3.866   6.995 -0.0017 -0.0693 -0.1198
   46CHL1  H18A 3358   0.826   3.846   7.010  0.0927  0.0593 -0.6446
   46CHL1  H18B 3359   0.709   3.905   6.892 -0.2017 -0.4470 -0.2468
   46CHL1  H18C 3360   0.681   3.952   7.055  2.1796  0.7346  0.0860
   46CHL1   C12 3361   0.686   3.630   6.906 -0.1042 -0.5292 -0.6988
   46CHL1  H12A 3362   0.789   3.588   6.911 -1.0610 -3.2344 -2.7211
   46CHL1  H12B 3363   0.629   3.537   6.928  1.2962 -1.5666 -1.3085
   46CHL1   C11 3364   0.643   3.673   6.763  0.4118 -0.7508  0.0984
   46CHL1  H11A 3365   0.718   3.751   6.737  0.0222 -0.6979 -0.8746
   46CHL1  H11B 3366   0.664   3.583   6.701 -0.4915 -1.4078  0.7465
   46CHL1    C9 3367   0.496   3.713   6.749 -0.5102 -0.0872  0.9142
   46CHL1    H9 3368   0.440   3.619   6.765  0.9099 -1.6041 -2.3949
   46CHL1   C10 3369   0.453   3.759   6.603  0.1937  0.3709 -0.0145
   46CHL1   C19 3370   0.564   3.858   6.555 -0.0047 -0.1543  0.1575
   46CHL1  H19A 3371   0.588   3.942   6.623  1.2564  1.4280 -2.1868
   46CHL1  H19B 3372   0.660   3.807   6.531 -0.3722 -0.6091 -0.3717
   46CHL1  H19C 3373   0.528   3.911   6.465 -0.0552  1.1673  0.9505
   46CHL1    C1 3374   0.443   3.645   6.503 -0.3255 -0.2596  0.0625
   46CHL1   H1A 3375   0.534   3.583   6.494 -2.2234 -3.2319  0.8377
   46CHL1   H1B 3376   0.376   3.561   6.533 -1.3142  0.0990 -1.1019
   46CHL1    C2 3377   0.402   3.691   6.363 -0.2380  0.0809  0.1190
   46CHL1   H2A 3378   0.410   3.612   6.284  0.7298  1.3818 -1.1100
   46CHL1   H2B 3379   0.472   3.768   6.325  1.2743 -1.8460 -1.0971
   46CHL1   C20 3380   0.782   3.681   7.242 -0.1124  0.2664  0.3419
   46CHL1   H20 3381   0.828   3.780   7.224 -0.0252  0.3047  0.7804
   46CHL1   C21 3382   0.874   3.572   7.182 -0.1872  0.1909  0.2701
   46CHL1  H21A 3383   0.897   3.597   7.076 -0.0543 -0.0743  0.2343
   46CHL1  H21B 3384   0.817   3.477   7.183 -1.4803  0.9442  2.7599
   46CHL1  H21C 3385   0.972   3.561   7.234 -2.1169 -1.3061  3.7630
   46CHL1   C22 3386   0.768   3.661   7.390 -0.2226  0.2866  0.1670
   46CHL1  H22A 3387   0.697   3.739   7.426  0.0208  1.0124 -0.8922
   46CHL1  H22B 3388   0.725   3.562   7.416  1.9085 -1.1976 -1.8052
   46CHL1   C23 3389   0.896   3.686   7.474 -0.3515  0.1312  0.3212
   46CHL1  H23A 3390   0.970   3.606   7.451  0.3959  1.3921 -1.8465
   46CHL1  H23B 3391   0.945   3.780   7.439 -1.1703  0.6753  0.6324
   46CHL1   C24 3392   0.862   3.704   7.623  0.0900  0.6357  0.1845
   46CHL1  H24A 3393   0.776   3.773   7.640 -0.4399 -0.0728  0.3967
   46CHL1  H24B 3394   0.829   3.602   7.650 -0.5593  0.5739 -0.8078
   46CHL1   C25 3395   0.987   3.740   7.711 -0.5897  0.3330  0.5926
   46CHL1   H25 3396   1.072   3.679   7.674 -0.6811 -0.2844  1.3950
   46CHL1   C26 3397   1.041   3.883   7.683 -0.4109  0.0973  0.4310
   46CHL1  H26A 3398   1.130   3.899   7.748 -1.1243  1.1992  1.1656
   46CHL1  H26B 3399   1.062   3.890   7.575 -0.4943  0.3380  0.4293
   46CHL1  H26C 3400   0.963   3.956   7.715  0.7511  1.2899  0.6196
   46CHL1   C27 3401   0.973   3.702   7.860 -0.2228 -0.4458  0.9134
   46CHL1  H27A 3402   0.944   3.596   7.875 -1.2922 -0.9879 -4.0433
   46CHL1  H27B 3403   1.061   3.745   7.914  0.0309 -0.1406  0.2585
   46CHL1  H27C 3404   0.879   3.752   7.889 -1.4308 -0.8114 -2.2467
   47CHL1    C3 3405   7.222   4.202   6.333  0.4894  0.4385  0.5319
   47CHL1    H3 3406   7.159   4.115   6.362  2.1429 -0.9181  0.1332
   47CHL1    O3 3407   7.228   4.214   6.193 -0.5316  0.0934  0.5020
   47CHL1   H3' 3408   7.306   4.269   6.182 -0.9215  0.3965 -0.9555
   47CHL1    C4 3409   7.170   4.338   6.391 -0.4875 -0.2366  0.3869
   47CHL1   H4A 3410   7.232   4.423   6.354 -1.5083 -0.2345 -1.3987
   47CHL1   H4B 3411   7.067   4.363   6.355 -0.6880 -0.2472  0.9443
   47CHL1    C5 3412   7.161   4.337   6.542 -0.7121  0.1847 -0.4959
   47CHL1    C6 3413   7.043   4.363   6.608  0.0953  0.7454 -0.0412
   47CHL1    H6 3414   6.948   4.386   6.558  0.3942  2.3335  0.1167
   47CHL1    C7 3415   7.037   4.347   6.760  0.5253 -0.7459 -0.1264
   47CHL1   H7A 3416   6.983   4.427   6.814  0.0681 -2.1788  1.5901
   47CHL1   H7B 3417   6.998   4.245   6.783 -2.2640  0.5592  1.1838
   47CHL1    C8 3418   7.177   4.345   6.831  0.1669 -0.0360  0.1272
   47CHL1    H8 3419   7.218   4.448   6.831 -0.9639  0.4282  1.1937
   47CHL1   C14 3420   7.162   4.299   6.977 -0.1242 -0.6958 -0.4865
   47CHL1   H14 3421   7.128   4.194   6.984  1.9396 -1.3301  0.3811
   47CHL1   C15 3422   7.063   4.387   7.058  0.2794  0.0692  0.0191
   47CHL1  H15A 3423   7.091   4.493   7.038 -0.9928  0.6763  1.2951
   47CHL1  H15B 3424   6.957   4.359   7.037  1.2340 -3.4227 -0.3067
   47CHL1   C16 3425   7.098   4.347   7.203  0.1666 -0.6174  0.2558
   47CHL1  H16A 3426   7.108   4.441   7.261  0.7527 -0.0812 -0.7067
   47CHL1  H16B 3427   7.019   4.277   7.238 -1.5315  0.5931 -1.0493
   47CHL1   C17 3428   7.234   4.266   7.207  0.0147  0.5538 -0.3832
   47CHL1   H17 3429   7.210   4.158   7.198 -1.4454  1.0272 -2.4699
   47CHL1   C13 3430   7.291   4.289   7.064  0.1466  0.0461  0.2125
   47CHL1   C18 3431   7.351   4.437   7.069 -0.0723 -0.7551 -0.4012
   47CHL1  H18A 3432   7.439   4.452   7.136 -0.8417  3.8191 -0.2511
   47CHL1  H18B 3433   7.374   4.488   6.973  1.6041  1.3230  1.0710
   47CHL1  H18C 3434   7.273   4.500   7.119  0.3142 -0.3866 -0.2587
   47CHL1   C12 3435   7.377   4.185   6.999 -0.4094  0.1099  1.0898
   47CHL1  H12A 3436   7.470   4.158   7.053  2.3111  3.0822 -1.8468
   47CHL1  H12B 3437   7.320   4.089   6.993 -0.2230  0.0212  0.6760
   47CHL1   C11 3438   7.396   4.227   6.851  0.1840  0.1489  1.1199
   47CHL1  H11A 3439   7.467   4.313   6.853  3.9904 -2.8230 -0.3283
   47CHL1  H11B 3440   7.453   4.141   6.809  0.7773 -0.4480  3.1205
   47CHL1    C9 3441   7.267   4.243   6.758 -0.0951 -0.6742  0.3367
   47CHL1    H9 3442   7.215   4.145   6.754 -1.4319 -0.0078  1.0057
   47CHL1   C10 3443   7.295   4.290   6.611  0.4543 -0.3105  0.3617
   47CHL1   C19 3444   7.383   4.420   6.606 -0.1921  0.3696 -0.4118
   47CHL1  H19A 3445   7.339   4.514   6.644 -1.0583  0.2189 -1.0350
   47CHL1  H19B 3446   7.472   4.391   6.666 -0.5701 -2.0777 -0.9489
   47CHL1  H19C 3447   7.428   4.444   6.508  0.8546  0.8586  0.1821
   47CHL1    C1 3448   7.360   4.172   6.531 -0.6695  0.0556  0.5877
   47CHL1   H1A 3449   7.463   4.149   6.566  0.0730  2.9478  0.4224
   47CHL1   H1B 3450   7.298   4.083   6.556  1.4594 -0.9015  2.6762
   47CHL1    C2 3451   7.368   4.190   6.383  0.1183 -0.3967 -0.1402
   47CHL1   H2A 3452   7.430   4.112   6.334  0.8570 -0.6107  1.1136
   47CHL1   H2B 3453   7.423   4.283   6.357  0.6135  0.9357  5.1580
   47CHL1   C20 3454   7.318   4.297   7.329  0.3528  0.4287  0.6727
   47CHL1   H20 3455   7.333   4.407   7.333  0.9740  0.3810 -0.2648
   47CHL1   C21 3456   7.457   4.230   7.327  0.6393  0.0349 -0.0310
   47CHL1  H21A 3457   7.519   4.258   7.415  2.0560 -0.8031 -0.7527
   47CHL1  H21B 3458   7.511   4.263   7.236 -1.8332  0.8753 -1.2345
   47CHL1  H21C 3459   7.442   4.120   7.317 -1.8853  0.5195 -2.2058
   47CHL1   C22 3460   7.244   4.258   7.461 -0.3839 -0.2791  0.0364
   47CHL1  H22A 3461   7.138   4.240   7.435 -0.7410 -0.5230  1.6101
   47CHL1  H22B 3462   7.273   4.152   7.477  3.4035  0.4466 -1.5345
   47CHL1   C23 3463   7.265   4.334   7.585 -0.3887  0.0590 -0.2128
   47CHL1  H23A 3464   7.339   4.413   7.563 -0.8460  0.2114 -1.2222
   47CHL1  H23B 3465   7.175   4.396   7.605 -0.9906 -0.8949  0.0661
   47CHL1   C24 3466   7.331   4.267   7.708  0.7351  0.0277 -0.1213
   47CHL1  H24A 3467   7.264   4.184   7.738 -1.2496  0.8784 -2.0689
   47CHL1  H24B 3468   7.419   4.212   7.671  0.5288 -0.1739 -0.3155
   47CHL1   C25 3469   7.349   4.370   7.820 -0.2467 -0.1154  0.2099
   47CHL1   H25 3470   7.366   4.472   7.780  1.6108 -0.6540 -0.4603
   47CHL1   C26 3471   7.226   4.370   7.911  0.4238 -0.2419 -0.3651
   47CHL1  H26A 3472   7.238   4.428   8.005 -3.1626  0.9411 -0.5716
   47CHL1  H26B 3473   7.134   4.406   7.860  1.6226 -0.7630 -2.9376
   47CHL1  H26C 3474   7.202   4.265   7.939 -1.0066  1.0837  3.7360
   47CHL1   C27 3475   7.482   4.325   7.900 -0.1408 -0.3507  0.2916
   47CHL1  H27A 3476   7.462   4.234   7.959  1.6750 -0.6238  0.4980
   47CHL1  H27B 3477   7.563   4.282   7.837  0.6660  2.3778 -0.6241
   47CHL1  H27C 3478   7.513   4.414   7.958 -1.3292 -0.8476  1.7291
   48CHL1    C3 3479   3.294   7.080   6.254  0.3907 -0.1317  0.1912
   48CHL1    H3 3480   3.384   7.107   6.312  0.8529  1.0599 -1.0541
   48CHL1    O3 3481   3.303   7.123   6.119 -0.6280  0.2580  0.0415
   48CHL1   H3' 3482   3.360   7.057   6.080  1.0802  2.3682 -1.1596
   48CHL1    C4 3483   3.280   6.923   6.270 -0.4866 -0.6231  0.8052
   48CHL1   H4A 3484   3.193   6.886   6.211  0.4007 -0.6577 -0.4974
   48CHL1   H4B 3485   3.372   6.882   6.224  0.0280  0.3086  0.9959
   48CHL1    C5 3486   3.264   6.882   6.413  0.5311 -0.3761 -0.5260
   48CHL1    C6 3487   3.356   6.803   6.472 -0.4287  0.1253 -0.2232
   48CHL1    H6 3488   3.442   6.769   6.412 -1.8978 -0.2318 -2.1707
   48CHL1    C7 3489   3.351   6.745   6.615  0.1582 -0.1154  0.1374
   48CHL1   H7A 3490   3.350   6.634   6.617 -2.1333 -0.1083  0.0793
   48CHL1   H7B 3491   3.434   6.794   6.671  1.6093  0.4368 -2.3927
   48CHL1    C8 3492   3.209   6.777   6.672  0.2515 -0.5346 -0.7308
   48CHL1    H8 3493   3.137   6.705   6.628 -0.8888  1.1608 -1.7362
   48CHL1   C14 3494   3.213   6.758   6.823  0.5748 -0.1364 -0.0174
   48CHL1   H14 3495   3.280   6.833   6.871  1.4217 -1.5907  1.0999
   48CHL1   C15 3496   3.273   6.627   6.871  0.4126 -0.4843 -0.0932
   48CHL1  H15A 3497   3.238   6.546   6.803 -3.7600  1.6026 -0.5853
   48CHL1  H15B 3498   3.383   6.630   6.884  0.5497  4.5491 -1.5475
   48CHL1   C16 3499   3.206   6.608   7.010 -0.1206  1.1049  0.3054
   48CHL1  H16A 3500   3.149   6.513   7.004  2.6395 -0.5777 -0.5397
   48CHL1  H16B 3501   3.282   6.592   7.090 -0.0508  0.4252  0.1047
   48CHL1   C17 3502   3.114   6.730   7.036  0.6511 -1.2717  0.7568
   48CHL1   H17 3503   3.176   6.814   7.073  1.8601 -1.8501  0.0480
   48CHL1   C13 3504   3.077   6.777   6.895 -0.5404 -0.1205  0.2388
   48CHL1   C18 3505   2.970   6.680   6.833  0.3470  0.0552  0.0379
   48CHL1  H18A 3506   3.005   6.575   6.824 -1.0293 -0.4136  0.0503
   48CHL1  H18B 3507   2.883   6.683   6.902 -0.6717  0.5511 -1.2525
   48CHL1  H18C 3508   2.932   6.707   6.732  0.2415  1.8149  0.5397
   48CHL1   C12 3509   3.047   6.925   6.875 -0.2785  0.3843 -0.0253
   48CHL1  H12A 3510   2.956   6.963   6.926 -0.7456  0.4495 -0.8841
   48CHL1  H12B 3511   3.126   6.987   6.921 -1.7023  2.7939 -0.6993
   48CHL1   C11 3512   3.041   6.968   6.727 -0.4257 -0.5683  0.2121
   48CHL1  H11A 3513   2.950   6.921   6.685 -0.1043 -0.8086 -0.2163
   48CHL1  H11B 3514   3.026   7.078   6.723 -0.5138 -0.6070 -0.5025
   48CHL1    C9 3515   3.159   6.924   6.641  0.2756  0.7187  0.9409
   48CHL1    H9 3516   3.244   6.986   6.677 -0.2240  2.5855 -0.9904
   48CHL1   C10 3517   3.149   6.947   6.489  0.5558  0.4487  0.1868
   48CHL1   C19 3518   3.012   6.888   6.438  0.5398 -0.3651 -0.1018
   48CHL1  H19A 3519   2.921   6.926   6.490 -0.9908  2.7380 -4.6928
   48CHL1  H19B 3520   2.990   6.907   6.331  0.0645 -1.1745 -0.1528
   48CHL1  H19C 3521   3.018   6.782   6.468  4.1875 -0.8442 -2.3145
   48CHL1    C1 3522   3.148   7.100   6.471  0.5085  0.9292  1.0565
   48CHL1   H1A 3523   3.055   7.140   6.518  0.3056  1.1347  0.4867
   48CHL1   H1B 3524   3.236   7.136   6.528  0.8999 -0.1488  1.1481
   48CHL1    C2 3525   3.164   7.141   6.325 -0.5935 -0.1404 -0.3321
   48CHL1   H2A 3526   3.154   7.251   6.313 -0.9532 -0.0902  0.4154
   48CHL1   H2B 3527   3.076   7.094   6.276 -1.1112  0.2991  0.1546
   48CHL1   C20 3528   3.007   6.709   7.141 -0.1083 -0.0664 -0.2816
   48CHL1   H20 3529   2.938   6.631   7.102  1.2420 -1.0156 -0.8385
   48CHL1   C21 3530   2.932   6.842   7.161 -0.1449  0.0605  0.0774
   48CHL1  H21A 3531   2.863   6.863   7.076  0.6025  1.7547 -0.1388
   48CHL1  H21B 3532   3.004   6.927   7.172 -1.6832  1.1603  2.0972
   48CHL1  H21C 3533   2.862   6.852   7.247  0.8947  0.4034  0.8972
   48CHL1   C22 3534   3.075   6.662   7.267  0.6617 -0.4324  0.8925
   48CHL1  H22A 3535   3.122   6.562   7.258  2.2783  0.3774  0.3196
   48CHL1  H22B 3536   3.166   6.725   7.274  2.0373 -2.1877 -0.6541
   48CHL1   C23 3537   3.003   6.674   7.400 -0.0292 -0.6302  0.0272
   48CHL1  H23A 3538   2.983   6.782   7.420  0.3564 -0.7342  0.9901
   48CHL1  H23B 3539   2.905   6.623   7.388 -1.8275  2.4361  1.0247
   48CHL1   C24 3540   3.063   6.595   7.522  0.8996  0.6410 -0.0513
   48CHL1  H24A 3541   3.083   6.491   7.487  0.8249  1.4191 -2.4966
   48CHL1  H24B 3542   3.168   6.618   7.549  1.2342 -0.6287 -0.2261
   48CHL1   C25 3543   2.964   6.601   7.644 -0.1626 -0.3724 -0.8595
   48CHL1   H25 3544   2.927   6.706   7.642 -1.1996 -0.7238 -0.4610
   48CHL1   C26 3545   2.837   6.509   7.616  0.2520  0.2802 -0.3211
   48CHL1  H26A 3546   2.783   6.563   7.534  1.1109 -0.0755 -1.1240
   48CHL1  H26B 3547   2.856   6.405   7.583 -0.2345  0.3169 -0.7219
   48CHL1  H26C 3548   2.770   6.508   7.705  0.1468 -3.7159 -0.3917
   48CHL1   C27 3549   3.042   6.556   7.765  1.2742  0.3723 -0.6576
   48CHL1  H27A 3550   3.115   6.635   7.791  3.0345 -1.5937  0.4154
   48CHL1  H27B 3551   2.966   6.555   7.846 -0.5567 -0.6295 -2.3346
   48CHL1  H27C 3552   3.091   6.457   7.753  0.1890 -0.3761  0.8925
   49CHL1    C3 3553   2.035   0.589   6.347 -0.6428 -0.3866 -0.4521
   49CHL1    H3 3554   2.095   0.678   6.321  1.1065 -1.6421 -0.8363
   49CHL1    O3 3555   1.983   0.539   6.228 -0.0868 -0.3806 -0.2662
   49CHL1   H3' 3556   1.888   0.527   6.238 -0.8007  2.1234 -3.1525
   49CHL1    C4 3557   2.117   0.487   6.422  0.4041  0.2627  0.5087
   49CHL1   H4A 3558   2.052   0.399   6.443 -0.4926  0.8514  0.2296
   49CHL1   H4B 3559   2.199   0.445   6.360 -0.3197 -2.1616  1.1234
   49CHL1    C5 3560   2.160   0.557   6.548  1.0458 -0.1773 -0.6641
   49CHL1    C6 3561   2.294   0.570   6.562  0.0031  0.1060 -0.2255
   49CHL1    H6 3562   2.356   0.520   6.486 -0.2326  0.6186 -0.7609
   49CHL1    C7 3563   2.358   0.622   6.691  0.0423 -0.0184 -0.0745
   49CHL1   H7A 3564   2.444   0.556   6.716 -0.2320 -0.5922 -0.6326
   49CHL1   H7B 3565   2.407   0.720   6.673 -0.3245  0.4157  1.2125
   49CHL1    C8 3566   2.260   0.627   6.814  1.1260 -0.2908 -0.6491
   49CHL1    H8 3567   2.230   0.522   6.836 -1.0898  0.2940 -0.6890
   49CHL1   C14 3568   2.325   0.707   6.922 -0.2148  0.0140 -0.2228
   49CHL1   H14 3569   2.357   0.805   6.881  1.2743 -0.9098 -1.3267
   49CHL1   C15 3570   2.466   0.656   6.974 -0.1001 -0.8285  0.1327
   49CHL1  H15A 3571   2.461   0.548   6.999 -2.0413 -0.6617  0.4966
   49CHL1  H15B 3572   2.551   0.677   6.906 -1.5796 -1.4081 -1.9373
   49CHL1   C16 3573   2.484   0.720   7.105 -0.7836  0.4888  0.5282
   49CHL1  H16A 3574   2.473   0.648   7.189  0.4322 -1.2914 -0.7952
   49CHL1  H16B 3575   2.577   0.778   7.123  1.1897 -2.2752 -0.5702
   49CHL1   C17 3576   2.354   0.805   7.130  0.4467  0.1885 -0.1793
   49CHL1   H17 3577   2.361   0.903   7.078 -0.5354 -0.1670 -0.9927
   49CHL1   C13 3578   2.244   0.733   7.053  0.4499 -0.0798  1.0276
   49CHL1   C18 3579   2.204   0.598   7.125 -0.5797 -0.1118 -0.0776
   49CHL1  H18A 3580   2.289   0.542   7.170  0.0211  0.6358 -0.2833
   49CHL1  H18B 3581   2.129   0.625   7.203 -0.8833  1.3452 -0.8622
   49CHL1  H18C 3582   2.159   0.529   7.051  0.2190  0.8512 -1.4892
   49CHL1   C12 3583   2.120   0.805   7.005  0.4692  0.6090  0.6956
   49CHL1  H12A 3584   2.045   0.807   7.086  0.5636  2.1671  0.7534
   49CHL1  H12B 3585   2.151   0.907   6.974 -0.3594  1.0590  1.3530
   49CHL1   C11 3586   2.039   0.735   6.891  0.1536 -0.5483  0.3329
   49CHL1  H11A 3587   2.005   0.644   6.944  0.2975 -1.7156 -1.5034
   49CHL1  H11B 3588   1.957   0.803   6.859  2.2663  1.1686 -1.6078
   49CHL1    C9 3589   2.125   0.697   6.770 -0.4741  0.4060 -0.2961
   49CHL1    H9 3590   2.167   0.793   6.733 -1.4422 -0.5244 -4.0678
   49CHL1   C10 3591   2.054   0.614   6.648 -0.9865 -0.4636 -0.0546
   49CHL1   C19 3592   1.972   0.499   6.712  0.2001  0.7045 -0.5973
   49CHL1  H19A 3593   1.893   0.542   6.777  0.7994  0.2434  0.4528
   49CHL1  H19B 3594   1.928   0.428   6.640 -0.8696  1.8593 -1.1018
   49CHL1  H19C 3595   2.037   0.435   6.775 -0.5110 -0.6205 -1.1880
   49CHL1    C1 3596   1.958   0.702   6.569 -0.0450 -1.1486 -0.5270
   49CHL1   H1A 3597   1.868   0.712   6.633 -0.8514 -5.2593 -0.8438
   49CHL1   H1B 3598   2.006   0.801   6.554  0.0855 -0.9415  1.1595
   49CHL1    C2 3599   1.914   0.638   6.437  0.1389 -0.3177  0.1117
   49CHL1   H2A 3600   1.836   0.702   6.390 -0.4959 -0.4188  1.0125
   49CHL1   H2B 3601   1.859   0.546   6.466 -2.5112  1.1660 -0.0657
   49CHL1   C20 3602   2.328   0.840   7.277  0.2468  0.2456  0.1640
   49CHL1   H20 3603   2.271   0.757   7.322  0.3954 -0.2245 -0.5022
   49CHL1   C21 3604   2.238   0.969   7.283 -0.1969 -0.2163  0.3214
   49CHL1  H21A 3605   2.288   1.062   7.248  0.8774 -1.3911 -1.3530
   49CHL1  H21B 3606   2.213   0.992   7.389 -3.6664 -0.2253 -0.4391
   49CHL1  H21C 3607   2.142   0.950   7.230 -0.5951 -0.7121  1.2108
   49CHL1   C22 3608   2.457   0.865   7.361 -0.0226 -0.7997 -0.5336
   49CHL1  H22A 3609   2.542   0.798   7.337  0.4782 -0.3950  0.0801
   49CHL1  H22B 3610   2.503   0.963   7.338  0.7413 -1.1791 -0.6197
   49CHL1   C23 3611   2.435   0.841   7.514 -0.2707 -0.0504  0.1205
   49CHL1  H23A 3612   2.378   0.929   7.551 -0.0065  0.7616 -1.3354
   49CHL1  H23B 3613   2.371   0.754   7.537 -0.9822  0.7817  1.3172
   49CHL1   C24 3614   2.567   0.843   7.586 -0.1820 -0.4583  0.7647
   49CHL1  H24A 3615   2.643   0.800   7.517  0.5677  0.1643  1.1821
   49CHL1  H24B 3616   2.606   0.947   7.597 -0.8689 -0.0797 -0.3214
   49CHL1   C25 3617   2.580   0.761   7.712  0.5090  0.9128 -0.2681
   49CHL1   H25 3618   2.548   0.657   7.687  3.6381 -0.0503 -0.4848
   49CHL1   C26 3619   2.734   0.748   7.751  0.1360  0.9040 -0.9710
   49CHL1  H26A 3620   2.793   0.722   7.660  0.7942  1.5162 -0.7271
   49CHL1  H26B 3621   2.762   0.850   7.784 -0.4016  0.6517  0.2961
   49CHL1  H26C 3622   2.756   0.684   7.840 -2.5275 -0.7865 -1.4834
   49CHL1   C27 3623   2.491   0.815   7.820  0.1276  0.0429  0.8018
   49CHL1  H27A 3624   2.522   0.916   7.853  1.4044  0.0085 -0.2499
   49CHL1  H27B 3625   2.382   0.803   7.802  0.4702  0.1139 -1.4693
   49CHL1  H27C 3626   2.518   0.751   7.907 -2.2376 -1.3193  0.5854
   50CHL1    C3 3627   1.441   6.293   6.453  0.1009  0.1532  0.2197
   50CHL1    H3 3628   1.345   6.239   6.467  0.0635 -0.2647 -1.5904
   50CHL1    O3 3629   1.470   6.270   6.313  0.4025 -0.1402 -0.1122
   50CHL1   H3' 3630   1.521   6.188   6.310  1.7376  0.5368  2.3249
   50CHL1    C4 3631   1.426   6.443   6.487 -0.1830  0.2504  0.8787
   50CHL1   H4A 3632   1.526   6.486   6.461 -0.1955  0.0387  0.4755
   50CHL1   H4B 3633   1.350   6.497   6.426  0.4954  0.6936  0.4092
   50CHL1    C5 3634   1.411   6.469   6.633  0.9431  0.7014 -0.1689
   50CHL1    C6 3635   1.315   6.549   6.674 -0.5688  0.1298  0.8943
   50CHL1    H6 3636   1.261   6.607   6.597 -0.6054  0.6363  1.2922
   50CHL1    C7 3637   1.293   6.590   6.812  0.1922  0.3045 -0.2069
   50CHL1   H7A 3638   1.282   6.700   6.823 -0.5298  0.2607 -0.4396
   50CHL1   H7B 3639   1.199   6.547   6.853  0.5069 -1.1197 -0.9258
   50CHL1    C8 3640   1.400   6.531   6.912  0.1704 -0.8409  0.1217
   50CHL1    H8 3641   1.478   6.610   6.912  1.0114 -1.6283  2.1968
   50CHL1   C14 3642   1.335   6.516   7.046  0.0321 -1.3526  0.4851
   50CHL1   H14 3643   1.268   6.429   7.031 -2.7956  0.1901  3.5906
   50CHL1   C15 3644   1.247   6.630   7.102  0.2746  0.1315  0.2921
   50CHL1  H15A 3645   1.298   6.727   7.079 -0.8413  0.3165 -1.4886
   50CHL1  H15B 3646   1.147   6.639   7.055 -0.4052 -0.0812  1.6484
   50CHL1   C16 3647   1.236   6.592   7.254  0.8315  0.1484  0.0203
   50CHL1  H16A 3648   1.274   6.679   7.311  3.5952 -0.2863 -1.0833
   50CHL1  H16B 3649   1.130   6.570   7.280  0.7828  0.5129  0.1361
   50CHL1   C17 3650   1.321   6.456   7.263 -0.3436  0.0764  0.2862
   50CHL1   H17 3651   1.242   6.381   7.241 -0.6151  0.3328  0.3812
   50CHL1   C13 3652   1.421   6.458   7.152 -0.3693 -0.1314 -0.1029
   50CHL1   C18 3653   1.538   6.557   7.187 -0.2372 -1.4324  0.0022
   50CHL1  H18A 3654   1.495   6.658   7.203 -2.1184 -2.2681  0.4052
   50CHL1  H18B 3655   1.593   6.523   7.278 -1.8923 -1.9559  0.8233
   50CHL1  H18C 3656   1.616   6.561   7.108 -0.3115  1.0470  0.0294
   50CHL1   C12 3657   1.481   6.323   7.116  0.0959  0.1099 -0.4919
   50CHL1  H12A 3658   1.554   6.294   7.194  0.2459  2.3248  0.2454
   50CHL1  H12B 3659   1.395   6.254   7.108 -1.1153  1.7456 -1.8654
   50CHL1   C11 3660   1.548   6.331   6.980  0.6120 -0.0558 -0.7450
   50CHL1  H11A 3661   1.642   6.390   6.978  1.3162 -1.2033 -2.2518
   50CHL1  H11B 3662   1.584   6.230   6.953 -0.3544 -0.0416 -2.1363
   50CHL1    C9 3663   1.455   6.388   6.876 -0.2420 -0.1005  0.2484
   50CHL1    H9 3664   1.364   6.325   6.883 -0.3718 -0.1227 -1.5119
   50CHL1   C10 3665   1.502   6.384   6.726 -0.0813  0.8728 -0.5374
   50CHL1   C19 3666   1.642   6.441   6.723 -0.4115  0.1664 -0.2860
   50CHL1  H19A 3667   1.720   6.368   6.753  0.5522  1.4142  0.2831
   50CHL1  H19B 3668   1.668   6.455   6.616 -2.1326 -0.2130 -0.7680
   50CHL1  H19C 3669   1.651   6.538   6.776  0.7011 -0.0074 -0.1470
   50CHL1    C1 3670   1.514   6.233   6.679  0.5373 -0.3768  0.4944
   50CHL1   H1A 3671   1.600   6.187   6.732 -1.4436 -1.6235  2.7496
   50CHL1   H1B 3672   1.415   6.192   6.710 -0.2166  0.6788 -0.4700
   50CHL1    C2 3673   1.544   6.216   6.529 -0.2758  0.4472  0.2028
   50CHL1   H2A 3674   1.544   6.108   6.505 -1.2352  0.4664  0.0985
   50CHL1   H2B 3675   1.646   6.240   6.494 -0.6142 -0.4805 -1.4523
   50CHL1   C20 3676   1.352   6.410   7.405  0.2541  0.3232  0.1569
   50CHL1   H20 3677   1.436   6.338   7.395 -1.7807 -1.9150 -1.4556
   50CHL1   C21 3678   1.233   6.326   7.462  0.7404 -0.4818  0.0638
   50CHL1  H21A 3679   1.246   6.292   7.567  0.7694 -0.9024 -0.0760
   50CHL1  H21B 3680   1.195   6.244   7.397  0.0835 -0.4515  0.4121
   50CHL1  H21C 3681   1.140   6.387   7.462  1.3562  0.4723 -0.2452
   50CHL1   C22 3682   1.402   6.505   7.514 -0.2436 -0.3149  0.0279
   50CHL1  H22A 3683   1.473   6.575   7.465  0.5276 -0.1301  1.3898
   50CHL1  H22B 3684   1.334   6.580   7.560  2.9792  3.1437 -0.6322
   50CHL1   C23 3685   1.482   6.441   7.627  0.4135  0.4440  0.3753
   50CHL1  H23A 3686   1.411   6.381   7.688  0.5027 -0.8219 -0.7510
   50CHL1  H23B 3687   1.550   6.368   7.579  1.3849  2.6108 -1.6326
   50CHL1   C24 3688   1.544   6.529   7.736 -0.0071  0.4983 -0.4403
   50CHL1  H24A 3689   1.639   6.571   7.696 -0.2897 -0.4644 -2.1932
   50CHL1  H24B 3690   1.477   6.616   7.750 -0.3310 -0.1062  1.8803
   50CHL1   C25 3691   1.576   6.457   7.866  0.0091  0.4145 -0.4958
   50CHL1   H25 3692   1.496   6.384   7.894  0.0437  0.3230 -0.6380
   50CHL1   C26 3693   1.704   6.368   7.861 -0.1773  0.4527 -0.3978
   50CHL1  H26A 3694   1.693   6.289   7.783 -0.3211  0.7437 -0.6743
   50CHL1  H26B 3695   1.785   6.436   7.826 -1.1511  1.1293 -1.3815
   50CHL1  H26C 3696   1.736   6.333   7.961 -0.4236 -0.7122 -0.7115
   50CHL1   C27 3697   1.607   6.553   7.983  0.7799  0.4754 -0.0973
   50CHL1  H27A 3698   1.510   6.599   8.013 -0.0698 -1.2582 -0.0634
   50CHL1  H27B 3699   1.633   6.492   8.072 -2.1715 -1.0854 -0.2044
   50CHL1  H27C 3700   1.676   6.635   7.953 -1.0602  1.2166 -2.5334
   51CHL1    C3 3701   1.789   6.761   6.252  0.0891 -0.4636 -0.8828
   51CHL1    H3 3702   1.725   6.826   6.315  0.4061  0.9065 -1.9583
   51CHL1    O3 3703   1.725   6.756   6.123  0.0030  0.1090 -0.1953
   51CHL1   H3' 3704   1.791   6.708   6.072 -0.9532 -3.1073  1.4215
   51CHL1    C4 3705   1.929   6.822   6.244 -0.3756 -0.0353 -0.1329
   51CHL1   H4A 3706   2.001   6.770   6.178  0.5242  2.4147 -1.1344
   51CHL1   H4B 3707   1.928   6.911   6.179 -2.7809  0.5734  0.6808
   51CHL1    C5 3708   1.978   6.840   6.382  0.3989 -0.3285  0.0924
   51CHL1    C6 3709   2.017   6.959   6.421  0.1719  0.5831 -0.2026
   51CHL1    H6 3710   2.002   7.042   6.351  0.3106 -0.3080 -1.3269
   51CHL1    C7 3711   2.086   6.984   6.553 -0.9990 -1.1397  0.0338
   51CHL1   H7A 3712   2.179   7.043   6.541 -0.5958 -1.5995  0.8264
   51CHL1   H7B 3713   2.012   7.044   6.612 -0.9522  2.4731 -3.4140
   51CHL1    C8 3714   2.116   6.854   6.631 -0.3267 -0.1490  0.5487
   51CHL1    H8 3715   2.216   6.821   6.594 -0.9597 -0.9157 -0.5018
   51CHL1   C14 3716   2.133   6.879   6.777  0.3416  0.6042  0.4085
   51CHL1   H14 3717   2.035   6.920   6.812  2.2557  3.4952  2.6794
   51CHL1   C15 3718   2.230   6.985   6.830  0.0598 -0.5874  0.1617
   51CHL1  H15A 3719   2.319   6.974   6.764  0.1958  1.4900 -0.0394
   51CHL1  H15B 3720   2.188   7.087   6.815  1.0457  0.0622  1.7214
   51CHL1   C16 3721   2.257   6.952   6.975  0.0075 -0.4039  0.8050
   51CHL1  H16A 3722   2.363   6.972   7.003 -0.0507  0.8097  0.2071
   51CHL1  H16B 3723   2.211   7.025   7.046  0.6652 -0.2580  1.0912
   51CHL1   C17 3724   2.184   6.811   6.996 -0.0530 -0.0163 -0.1512
   51CHL1   H17 3725   2.079   6.828   7.028 -0.3721 -2.8754  0.4248
   51CHL1   C13 3726   2.161   6.750   6.862 -0.8653 -0.1795 -0.1930
   51CHL1   C18 3727   2.299   6.688   6.826 -0.4488 -0.0696 -0.0319
   51CHL1  H18A 3728   2.312   6.592   6.880 -1.5344  0.0150  0.3940
   51CHL1  H18B 3729   2.313   6.670   6.717  2.3825  0.3366  0.2439
   51CHL1  H18C 3730   2.380   6.762   6.844  0.9594 -1.5958 -0.0052
   51CHL1   C12 3731   2.050   6.653   6.839 -0.9464 -0.4250  0.0314
   51CHL1  H12A 3732   2.064   6.553   6.887  2.0154 -0.8918 -1.6536
   51CHL1  H12B 3733   1.957   6.703   6.873 -1.1628 -0.4004 -0.5852
   51CHL1   C11 3734   2.038   6.623   6.690 -0.0973  0.0892  0.1783
   51CHL1  H11A 3735   2.131   6.572   6.657 -0.6587 -2.8639  2.9085
   51CHL1  H11B 3736   1.960   6.543   6.685  1.2722 -1.2350 -0.3818
   51CHL1    C9 3737   2.007   6.747   6.607  0.4041  0.9392 -0.6209
   51CHL1    H9 3738   1.912   6.790   6.643 -0.2437  1.2288 -2.6585
   51CHL1   C10 3739   1.983   6.712   6.463  0.1688 -0.2104  0.0386
   51CHL1   C19 3740   2.089   6.625   6.402  0.1662 -0.1490 -0.3886
   51CHL1  H19A 3741   2.063   6.593   6.299 -1.0164 -1.5559  0.3396
   51CHL1  H19B 3742   2.189   6.670   6.387  0.9675 -1.3556  1.1891
   51CHL1  H19C 3743   2.110   6.532   6.459  1.9320  0.9792  0.8487
   51CHL1    C1 3744   1.839   6.634   6.457 -0.5454 -0.2517 -0.0008
   51CHL1   H1A 3745   1.848   6.533   6.502 -1.5259 -0.4959 -0.3421
   51CHL1   H1B 3746   1.766   6.696   6.514 -0.0355  0.0346  0.3499
   51CHL1    C2 3747   1.788   6.622   6.313  0.2310 -0.6269 -0.1728
   51CHL1   H2A 3748   1.683   6.584   6.310 -0.0512  0.1379 -0.0023
   51CHL1   H2B 3749   1.851   6.563   6.243 -0.6424 -0.1560 -1.3597
   51CHL1   C20 3750   2.263   6.740   7.112  0.5972  0.0205 -0.2245
   51CHL1   H20 3751   2.366   6.719   7.076  1.9362 -0.6648  3.8246
   51CHL1   C21 3752   2.201   6.607   7.136 -0.0419  0.5653  0.6840
   51CHL1  H21A 3753   2.179   6.558   7.039 -1.3661 -1.0981  1.7993
   51CHL1  H21B 3754   2.107   6.613   7.195 -0.5993  0.1721 -0.1622
   51CHL1  H21C 3755   2.275   6.539   7.185  0.4883  0.0848 -0.7692
   51CHL1   C22 3756   2.278   6.832   7.239 -1.0705  0.2200 -1.0201
   51CHL1  H22A 3757   2.287   6.941   7.221 -0.4174  0.1334 -1.2181
   51CHL1  H22B 3758   2.186   6.807   7.297 -0.8261 -1.6064 -1.3805
   51CHL1   C23 3759   2.391   6.797   7.329 -0.0402 -0.2350 -0.4956
   51CHL1  H23A 3760   2.395   6.686   7.340 -1.2854 -0.2811 -0.4622
   51CHL1  H23B 3761   2.489   6.827   7.286 -0.1459  0.0478 -0.5367
   51CHL1   C24 3762   2.377   6.877   7.462  0.7899  0.1196 -0.3448
   51CHL1  H24A 3763   2.398   6.984   7.439 -0.2163  0.2371 -0.7386
   51CHL1  H24B 3764   2.271   6.870   7.494  1.4335 -1.8930  1.4825
   51CHL1   C25 3765   2.478   6.827   7.568 -0.5729  0.4046 -0.6212
   51CHL1   H25 3766   2.582   6.839   7.531 -1.4304  0.1617 -3.2114
   51CHL1   C26 3767   2.443   6.910   7.694  0.2143 -0.3566 -0.2630
   51CHL1  H26A 3768   2.355   6.868   7.747  1.1232 -1.8213  0.1077
   51CHL1  H26B 3769   2.523   6.915   7.771 -0.2319 -1.2845  0.2736
   51CHL1  H26C 3770   2.427   7.017   7.668 -0.3842 -0.1772  0.8119
   51CHL1   C27 3771   2.470   6.675   7.592  0.0339  0.1053  0.4355
   51CHL1  H27A 3772   2.512   6.647   7.691  1.1488 -1.3405 -0.4297
   51CHL1  H27B 3773   2.372   6.628   7.573  1.1663 -0.7664 -3.6979
   51CHL1  H27C 3774   2.538   6.630   7.517 -1.6295 -0.9040 -0.4947
   52CHL1    C3 3775   5.534   0.648   6.284 -0.0974 -0.4720  0.3822
   52CHL1    H3 3776   5.487   0.748   6.277 -1.8267 -1.2726  0.5201
   52CHL1    O3 3777   5.567   0.595   6.156  0.6605 -0.1895  0.3258
   52CHL1   H3' 3778   5.573   0.499   6.162  2.3171  0.0165  2.8521
   52CHL1    C4 3779   5.655   0.643   6.372 -0.0902 -0.1217 -0.2341
   52CHL1   H4A 3780   5.677   0.534   6.375 -1.0625 -0.3337 -0.6621
   52CHL1   H4B 3781   5.749   0.682   6.326  0.0779  0.6758  0.7497
   52CHL1    C5 3782   5.634   0.683   6.514  0.5814 -0.2344 -0.4517
   52CHL1    C6 3783   5.703   0.784   6.575 -0.2123  0.5958  0.0288
   52CHL1    H6 3784   5.773   0.848   6.519 -2.9957  3.1924 -0.6679
   52CHL1    C7 3785   5.676   0.827   6.715  0.1370 -0.1634  0.5539
   52CHL1   H7A 3786   5.772   0.851   6.765  0.2576  1.8576 -0.6011
   52CHL1   H7B 3787   5.614   0.918   6.724 -1.1148 -1.0518  1.0062
   52CHL1    C8 3788   5.609   0.713   6.799 -0.1485  0.1826 -0.2797
   52CHL1    H8 3789   5.682   0.629   6.806 -0.1536 -0.1757 -3.7332
   52CHL1   C14 3790   5.578   0.749   6.942 -0.2224 -0.4265 -0.5333
   52CHL1   H14 3791   5.498   0.826   6.935  0.0578  0.2476  2.8637
   52CHL1   C15 3792   5.696   0.803   7.024 -0.0656 -0.6945 -0.3066
   52CHL1  H15A 3793   5.781   0.732   7.017  0.8787  0.4586 -0.7572
   52CHL1  H15B 3794   5.715   0.910   7.002 -0.5083 -0.3249  1.0733
   52CHL1   C16 3795   5.646   0.795   7.172  0.1634  0.5434  0.5428
   52CHL1  H16A 3796   5.709   0.731   7.238  1.5766  2.0075  0.6641
   52CHL1  H16B 3797   5.648   0.896   7.220 -0.2536  0.3616  0.9403
   52CHL1   C17 3798   5.505   0.728   7.163  0.3510  0.4848 -0.2945
   52CHL1   H17 3799   5.440   0.816   7.150  0.2907  0.5781  0.6411
   52CHL1   C13 3800   5.504   0.649   7.031 -0.6827  0.4303 -0.2878
   52CHL1   C18 3801   5.601   0.527   7.036  0.3078  0.6561  0.0126
   52CHL1  H18A 3802   5.656   0.500   6.943  1.4889  0.3531  0.7750
   52CHL1  H18B 3803   5.690   0.531   7.103  0.1709  3.1967  0.1003
   52CHL1  H18C 3804   5.543   0.437   7.063  1.5407 -0.4932 -1.0845
   52CHL1   C12 3805   5.367   0.620   6.956 -0.0043 -0.2129  0.6935
   52CHL1  H12A 3806   5.308   0.540   7.006  0.8128 -0.6329  0.9862
   52CHL1  H12B 3807   5.302   0.709   6.945  2.5330  1.9054  2.1159
   52CHL1   C11 3808   5.393   0.575   6.813 -0.0420 -0.2609  0.8870
   52CHL1  H11A 3809   5.436   0.475   6.830  0.0472 -0.4831 -0.5888
   52CHL1  H11B 3810   5.292   0.564   6.767 -0.3871 -0.3500  1.6651
   52CHL1    C9 3811   5.487   0.667   6.723 -0.4581  0.2908 -0.0908
   52CHL1    H9 3812   5.423   0.757   6.711  1.0378  1.5277  1.0296
   52CHL1   C10 3813   5.518   0.603   6.586 -0.6599  0.1327 -0.0980
   52CHL1   C19 3814   5.573   0.459   6.604  0.8971  0.1637 -0.5097
   52CHL1  H19A 3815   5.494   0.393   6.646  0.1906 -0.3517 -2.5906
   52CHL1  H19B 3816   5.618   0.414   6.513  1.6303  0.6252 -0.3815
   52CHL1  H19C 3817   5.648   0.462   6.686  0.8192 -1.8329 -0.3248
   52CHL1    C1 3818   5.397   0.602   6.489  0.2397 -0.2483  0.8184
   52CHL1   H1A 3819   5.324   0.529   6.530  0.9153 -1.4191 -0.0289
   52CHL1   H1B 3820   5.346   0.701   6.488 -1.6520 -1.1991 -0.9678
   52CHL1    C2 3821   5.423   0.568   6.346 -0.5301 -0.2801 -0.1681
   52CHL1   H2A 3822   5.334   0.589   6.282 -0.3504  0.4624 -0.1780
   52CHL1   H2B 3823   5.441   0.458   6.350 -0.5610 -0.2506  0.9519
   52CHL1   C20 3824   5.455   0.650   7.287  0.3287  1.1359 -0.6281
   52CHL1   H20 3825   5.514   0.558   7.307 -1.1431  0.9080  3.1711
   52CHL1   C21 3826   5.306   0.609   7.273  0.2406  0.1674 -0.2136
   52CHL1  H21A 3827   5.252   0.704   7.250 -0.4903 -0.6245 -1.9456
   52CHL1  H21B 3828   5.265   0.565   7.366 -1.1517  2.0911  0.1242
   52CHL1  H21C 3829   5.281   0.540   7.190 -2.3626  0.0900  0.5838
   52CHL1   C22 3830   5.469   0.726   7.424  0.6674  0.1053 -0.1211
   52CHL1  H22A 3831   5.557   0.793   7.432  1.1111 -0.2621 -1.7163
   52CHL1  H22B 3832   5.385   0.798   7.432 -0.0009 -0.6005 -0.7686
   52CHL1   C23 3833   5.478   0.627   7.543  0.3049 -0.3497  0.7226
   52CHL1  H23A 3834   5.387   0.563   7.549 -0.6414  0.7010 -1.7481
   52CHL1  H23B 3835   5.568   0.563   7.528 -0.2144 -1.0001  0.3387
   52CHL1   C24 3836   5.481   0.711   7.673  0.3438 -0.2040 -0.1454
   52CHL1  H24A 3837   5.568   0.779   7.661  2.0789 -2.4958 -0.8650
   52CHL1  H24B 3838   5.389   0.773   7.681  1.5991  1.9023 -1.3260
   52CHL1   C25 3839   5.494   0.630   7.806  0.2025 -0.1794  0.1697
   52CHL1   H25 3840   5.433   0.538   7.794  1.1851 -0.9814  1.1325
   52CHL1   C26 3841   5.642   0.599   7.826  0.1603  0.0226  0.1111
   52CHL1  H26A 3842   5.678   0.545   7.736 -0.1092 -0.4238  0.2689
   52CHL1  H26B 3843   5.702   0.691   7.843  1.0756 -0.6094  0.3086
   52CHL1  H26C 3844   5.657   0.535   7.915  1.6362 -1.2417 -1.0185
   52CHL1   C27 3845   5.444   0.716   7.922  0.0869 -0.0647  0.5168
   52CHL1  H27A 3846   5.335   0.732   7.914  0.0506 -0.7611 -0.4938
   52CHL1  H27B 3847   5.476   0.657   8.011  2.8351  0.1242 -0.2889
   52CHL1  H27C 3848   5.499   0.813   7.927  0.8072 -0.5196  1.7458
   53CHL1    C3 3849   7.015   6.256   6.367 -0.4916 -0.4784 -0.3243
   53CHL1    H3 3850   6.918   6.300   6.337  0.1791  1.4729  0.3319
   53CHL1    O3 3851   7.087   6.234   6.248  0.2616 -0.1843 -0.0069
   53CHL1   H3' 3852   7.176   6.209   6.273  0.5327 -1.2957 -2.0291
   53CHL1    C4 3853   7.083   6.354   6.463 -0.3558  0.2191 -0.4971
   53CHL1   H4A 3854   7.179   6.302   6.486  0.0768  2.0593  2.0755
   53CHL1   H4B 3855   7.110   6.445   6.405 -1.2039 -0.3515 -1.8212
   53CHL1    C5 3856   7.007   6.388   6.590 -0.4761 -0.2814  0.7784
   53CHL1    C6 3857   6.982   6.514   6.625  0.8210  0.0148 -0.2937
   53CHL1    H6 3858   7.022   6.600   6.569  2.1189  0.2600  0.9706
   53CHL1    C7 3859   6.916   6.550   6.754  0.3913 -0.5514  0.1487
   53CHL1   H7A 3860   6.963   6.635   6.806  1.7969 -0.5767 -1.0516
   53CHL1   H7B 3861   6.820   6.598   6.723  0.5069  0.2030  0.9571
   53CHL1    C8 3862   6.882   6.433   6.850  0.1817  0.0456  0.5531
   53CHL1    H8 3863   6.967   6.409   6.918 -0.1659 -0.7789  0.7010
   53CHL1   C14 3864   6.768   6.473   6.942 -0.3592 -0.7680  0.9535
   53CHL1   H14 3865   6.675   6.499   6.886  0.4571  0.7431  0.2779
   53CHL1   C15 3866   6.784   6.598   7.029  0.6060 -0.0318 -0.6712
   53CHL1  H15A 3867   6.884   6.596   7.076 -0.3208 -2.0080  1.3403
   53CHL1  H15B 3868   6.750   6.682   6.965 -0.7130  1.0666  1.3965
   53CHL1   C16 3869   6.671   6.578   7.134  0.2539  0.8003  0.0522
   53CHL1  H16A 3870   6.719   6.597   7.232 -2.5473 -1.7609  2.0186
   53CHL1  H16B 3871   6.583   6.646   7.136  0.7330  1.4305 -0.4388
   53CHL1   C17 3872   6.615   6.438   7.113  0.3117  0.4980 -0.6353
   53CHL1   H17 3873   6.535   6.459   7.038 -1.4772 -0.2077  1.0458
   53CHL1   C13 3874   6.723   6.365   7.033  0.2486  0.3501 -0.1205
   53CHL1   C18 3875   6.837   6.304   7.121  0.1065 -0.4935  0.3569
   53CHL1  H18A 3876   6.912   6.259   7.053 -0.2772 -0.1089 -0.3234
   53CHL1  H18B 3877   6.876   6.381   7.191  0.8117 -2.4291  2.1313
   53CHL1  H18C 3878   6.785   6.226   7.181  0.3457 -1.2317 -0.3911
   53CHL1   C12 3879   6.664   6.250   6.947  0.3747 -0.3911 -0.2203
   53CHL1  H12A 3880   6.630   6.163   7.005  1.7091 -0.9825 -0.3002
   53CHL1  H12B 3881   6.575   6.299   6.903  0.5353  0.5668  0.4919
   53CHL1   C11 3882   6.764   6.201   6.843 -0.6358  0.2683 -0.0130
   53CHL1  H11A 3883   6.837   6.132   6.891 -0.4452  0.6704  0.2857
   53CHL1  H11B 3884   6.716   6.134   6.769  1.5728  0.9106 -2.0933
   53CHL1    C9 3885   6.845   6.311   6.764 -0.2771 -0.2101 -0.0054
   53CHL1    H9 3886   6.768   6.347   6.692 -0.2775 -1.7244 -0.7809
   53CHL1   C10 3887   6.956   6.263   6.669  0.3821  0.1502 -0.4676
   53CHL1   C19 3888   7.076   6.202   6.750 -0.2347 -0.6795 -0.4437
   53CHL1  H19A 3889   7.163   6.182   6.684  0.1414  3.1808 -1.2618
   53CHL1  H19B 3890   7.115   6.279   6.822 -2.3407 -1.3258  1.4498
   53CHL1  H19C 3891   7.038   6.121   6.816  0.1563 -1.5340 -1.2679
   53CHL1    C1 3892   6.897   6.159   6.576 -0.5072 -0.5498 -0.3844
   53CHL1   H1A 3893   6.882   6.060   6.625  0.4850 -0.0986  0.8638
   53CHL1   H1B 3894   6.810   6.207   6.527  0.1391 -2.4314 -3.4498
   53CHL1    C2 3895   6.985   6.128   6.448  0.6369  0.5399 -0.1474
   53CHL1   H2A 3896   6.932   6.054   6.384  1.0417 -2.4980  2.8969
   53CHL1   H2B 3897   7.081   6.084   6.482 -0.2828  0.2573  2.1685
   53CHL1   C20 3898   6.543   6.373   7.235  0.5895  1.0619 -0.1440
   53CHL1   H20 3899   6.532   6.265   7.215 -0.6685  1.4777 -1.9141
   53CHL1   C21 3900   6.403   6.444   7.255 -0.5307 -0.2989  0.2606
   53CHL1  H21A 3901   6.349   6.397   7.340 -0.6854  0.5173  0.6218
   53CHL1  H21B 3902   6.354   6.418   7.159 -2.3036  1.6347  0.6079
   53CHL1  H21C 3903   6.421   6.552   7.274  2.9287 -0.6857 -0.4565
   53CHL1   C22 3904   6.619   6.395   7.372  0.1549  0.0250 -0.3921
   53CHL1  H22A 3905   6.728   6.378   7.358  0.3036  1.1396 -0.6602
   53CHL1  H22B 3906   6.614   6.503   7.399  1.2220 -0.2444  0.9729
   53CHL1   C23 3907   6.566   6.299   7.486  0.7996 -0.3079  0.2863
   53CHL1  H23A 3908   6.471   6.345   7.522  1.5236  1.6350 -0.2095
   53CHL1  H23B 3909   6.544   6.199   7.443  0.7117  0.6253 -1.8924
   53CHL1   C24 3910   6.672   6.279   7.597  0.3348 -0.1504 -0.5418
   53CHL1  H24A 3911   6.762   6.236   7.547  0.7873 -1.9574  1.7292
   53CHL1  H24B 3912   6.698   6.382   7.629 -0.0908  0.3612 -1.8009
   53CHL1   C25 3913   6.626   6.195   7.714  0.2168  0.1524  0.3263
   53CHL1   H25 3914   6.717   6.146   7.755  1.0699  1.3038 -0.1596
   53CHL1   C26 3915   6.570   6.289   7.820  0.0816  0.0009 -0.3206
   53CHL1  H26A 3916   6.541   6.234   7.913  1.1062  1.1661  0.7083
   53CHL1  H26B 3917   6.648   6.361   7.852  0.6140 -0.4890 -0.4942
   53CHL1  H26C 3918   6.482   6.335   7.771  0.5603 -0.4879 -1.6662
   53CHL1   C27 3919   6.526   6.082   7.675 -0.0936 -0.0968 -0.1545
   53CHL1  H27A 3920   6.504   6.016   7.761 -1.2146  0.4436 -0.0230
   53CHL1  H27B 3921   6.428   6.130   7.656  0.0885  1.1445  1.8640
   53CHL1  H27C 3922   6.564   6.020   7.591 -2.1190 -1.3504 -0.1911
   54CHL1    C3 3923   0.841   6.390   6.319 -0.1152  0.8786  0.3757
   54CHL1    H3 3924   0.745   6.442   6.342  0.4362  1.7700  0.6849
   54CHL1    O3 3925   0.860   6.410   6.180 -0.1198  0.1502 -0.1634
   54CHL1   H3' 3926   0.877   6.505   6.172 -1.1018  0.2531 -1.0839
   54CHL1    C4 3927   0.947   6.447   6.409  0.3043 -0.1451  0.0887
   54CHL1   H4A 3928   1.040   6.411   6.361 -0.5311 -1.2270 -0.7693
   54CHL1   H4B 3929   0.937   6.556   6.388  0.9179 -0.1237 -0.0855
   54CHL1    C5 3930   0.927   6.419   6.558  0.1883  0.1445  0.2003
   54CHL1    C6 3931   0.920   6.519   6.640 -0.0612  0.0538  0.0003
   54CHL1    H6 3932   0.949   6.618   6.603  1.7191 -1.2282 -2.1715
   54CHL1    C7 3933   0.891   6.492   6.788  0.2105 -0.1321 -0.0340
   54CHL1   H7A 3934   0.943   6.559   6.859  0.6522 -1.3976  0.8353
   54CHL1   H7B 3935   0.781   6.490   6.803 -0.0933 -1.0059 -2.1435
   54CHL1    C8 3936   0.939   6.347   6.832 -0.4639 -0.3770 -0.3974
   54CHL1    H8 3937   1.049   6.339   6.821 -0.7688 -3.8355 -1.6653
   54CHL1   C14 3938   0.903   6.319   6.977 -0.8579  0.4001 -0.1000
   54CHL1   H14 3939   0.792   6.320   6.974 -0.8857  1.1531  0.9714
   54CHL1   C15 3940   0.954   6.416   7.087 -0.4850  0.5455  0.8172
   54CHL1  H15A 3941   1.062   6.440   7.077 -0.3640 -0.7701 -1.2459
   54CHL1  H15B 3942   0.888   6.504   7.074 -0.3991  0.4830 -0.0431
   54CHL1   C16 3943   0.926   6.334   7.216 -0.4194 -0.3902 -0.1520
   54CHL1  H16A 3944   1.004   6.326   7.296  1.8085  0.2308 -2.1973
   54CHL1  H16B 3945   0.836   6.376   7.264 -1.4367 -2.1381 -0.4924
   54CHL1   C17 3946   0.887   6.186   7.172  0.3117  0.5839 -0.4233
   54CHL1   H17 3947   0.777   6.185   7.164  0.2130 -0.2323  0.8328
   54CHL1   C13 3948   0.937   6.177   7.024  0.4515  0.1318  0.5265
   54CHL1   C18 3949   1.090   6.139   7.022  0.1510  0.0617  0.4716
   54CHL1  H18A 3950   1.104   6.032   7.049 -4.1655 -1.0710 -1.3254
   54CHL1  H18B 3951   1.133   6.154   6.921 -1.3296 -0.3726 -0.2321
   54CHL1  H18C 3952   1.139   6.213   7.089  0.4400  0.1582  0.1571
   54CHL1   C12 3953   0.860   6.077   6.934 -0.7216  0.0556  0.0834
   54CHL1  H12A 3954   0.880   5.968   6.946  0.5985  0.6577  3.7768
   54CHL1  H12B 3955   0.749   6.076   6.940 -0.7124 -1.1677  0.2119
   54CHL1   C11 3956   0.893   6.098   6.783 -0.8590  0.1423 -0.2787
   54CHL1  H11A 3957   0.998   6.065   6.768 -0.7113  1.1353 -1.5655
   54CHL1  H11B 3958   0.830   6.028   6.726 -0.1677 -1.3114  0.7253
   54CHL1    C9 3959   0.870   6.243   6.737  0.2464 -0.1375 -0.7980
   54CHL1    H9 3960   0.760   6.252   6.738  0.1765 -0.8937 -1.5071
   54CHL1   C10 3961   0.911   6.273   6.585 -0.4869  0.2648 -1.5174
   54CHL1   C19 3962   1.057   6.213   6.564  0.3164  0.3663 -0.0499
   54CHL1  H19A 3963   1.140   6.253   6.627  0.7605 -1.1838  0.3645
   54CHL1  H19B 3964   1.050   6.102   6.563 -0.5790  0.4199 -2.1084
   54CHL1  H19C 3965   1.083   6.235   6.459  0.6640 -0.3373 -0.1089
   54CHL1    C1 3966   0.798   6.216   6.499 -0.8404  0.3206 -0.0979
   54CHL1   H1A 3967   0.786   6.107   6.511  3.1761 -0.0404  1.6560
   54CHL1   H1B 3968   0.700   6.260   6.526 -2.5549 -3.9675  1.0572
   54CHL1    C2 3969   0.819   6.242   6.343 -0.0770  0.1327 -0.0058
   54CHL1   H2A 3970   0.727   6.213   6.287 -0.2014 -0.0723  0.3033
   54CHL1   H2B 3971   0.901   6.173   6.315  0.7938  1.3224 -0.4195
   54CHL1   C20 3972   0.938   6.087   7.278  0.3176  0.1052 -0.4761
   54CHL1   H20 3973   1.048   6.089   7.287  0.2252 -0.0027  0.6935
   54CHL1   C21 3974   0.900   5.943   7.246 -0.0841  0.3006 -0.0660
   54CHL1  H21A 3975   0.935   5.869   7.322 -0.1190  0.1177 -0.2274
   54CHL1  H21B 3976   0.951   5.910   7.153 -0.6569  0.5456 -0.4623
   54CHL1  H21C 3977   0.791   5.924   7.241  0.2904 -2.5907  1.2601
   54CHL1   C22 3978   0.896   6.120   7.427 -0.4915  0.2652  0.0343
   54CHL1  H22A 3979   0.909   6.227   7.453 -0.5926  0.6834 -1.5484
   54CHL1  H22B 3980   0.785   6.110   7.426 -0.4788  0.1315 -1.6215
   54CHL1   C23 3981   0.967   6.038   7.538  0.4032 -0.3332  0.2361
   54CHL1  H23A 3982   0.971   5.934   7.500 -1.5893  0.0575 -1.1131
   54CHL1  H23B 3983   1.072   6.072   7.549  1.0956 -1.3746 -2.5871
   54CHL1   C24 3984   0.889   6.024   7.669 -0.4230 -0.2857  0.3886
   54CHL1  H24A 3985   0.807   5.954   7.645  0.5044 -1.0422 -0.6156
   54CHL1  H24B 3986   0.956   5.977   7.745 -1.9050 -1.1453  1.2009
   54CHL1   C25 3987   0.837   6.156   7.722  0.2032  0.0733  0.4992
   54CHL1   H25 3988   0.768   6.192   7.643 -2.3252 -2.1896  1.6037
   54CHL1   C26 3989   0.749   6.141   7.849 -0.1044  0.6955  0.2584
   54CHL1  H26A 3990   0.809   6.122   7.941  0.7695 -0.5124 -0.5461
   54CHL1  H26B 3991   0.685   6.230   7.865  1.8928  2.2405 -0.1794
   54CHL1  H26C 3992   0.686   6.051   7.836 -1.1910  1.4316  0.4108
   54CHL1   C27 3993   0.955   6.259   7.747 -1.2067  0.3371  0.2989
   54CHL1  H27A 3994   0.910   6.358   7.769  0.6977  1.2089  0.3892
   54CHL1  H27B 3995   1.018   6.229   7.834 -1.4202 -0.6212  0.1233
   54CHL1  H27C 3996   1.014   6.260   7.653  0.5628 -0.5330  1.3668
   55CHL1    C3 3997   0.202   1.753   6.153  0.8150  0.3921  0.7047
   55CHL1    H3 3998   0.207   1.644   6.176 -1.3308 -0.1898 -1.3660
   55CHL1    O3 3999   0.194   1.766   6.012 -0.1111  0.3023  0.2770
   55CHL1   H3' 4000   0.205   1.860   6.000  0.5679  0.4733  2.1701
   55CHL1    C4 4001   0.080   1.812   6.231 -0.2622  0.1666  0.1839
   55CHL1   H4A 4002   0.057   1.914   6.194  0.8917 -0.6150 -2.8061
   55CHL1   H4B 4003  -0.008   1.752   6.200  1.0785 -1.2716 -0.8871
   55CHL1    C5 4004   0.095   1.811   6.382  0.1130 -0.1893 -0.2136
   55CHL1    C6 4005   0.010   1.748   6.478  0.3440 -0.2798 -0.3370
   55CHL1    H6 4006  -0.074   1.689   6.440  0.8196 -0.1055 -1.6846
   55CHL1    C7 4007   0.013   1.771   6.631  0.1828 -1.0091  0.2611
   55CHL1   H7A 4008  -0.090   1.788   6.668 -0.3447 -0.6334 -1.3286
   55CHL1   H7B 4009   0.062   1.685   6.682  1.5641  0.5177  1.5917
   55CHL1    C8 4010   0.107   1.889   6.668  0.0862  0.2169 -0.7658
   55CHL1    H8 4011   0.062   1.988   6.642  1.1430  0.9415  0.1415
   55CHL1   C14 4012   0.131   1.881   6.821 -0.4459 -0.2181  0.5529
   55CHL1   H14 4013   0.180   1.783   6.839  1.8032  0.6984 -0.4295
   55CHL1   C15 4014   0.009   1.891   6.907 -0.3832  0.0526 -0.3237
   55CHL1  H15A 4015  -0.042   1.986   6.879 -1.5120 -0.8247 -1.2989
   55CHL1  H15B 4016  -0.049   1.797   6.893  1.4556 -1.1839  0.2139
   55CHL1   C16 4017   0.075   1.924   7.046 -0.4562 -0.6621  0.3064
   55CHL1  H16A 4018   0.018   2.012   7.082  1.3925  0.8611 -0.4195
   55CHL1  H16B 4019   0.065   1.840   7.119 -0.8638  0.0389  1.0583
   55CHL1   C17 4020   0.228   1.936   7.022 -0.3212 -0.0602 -0.2220
   55CHL1   H17 4021   0.270   1.833   7.028  0.5304  0.3120  0.2160
   55CHL1   C13 4022   0.234   1.975   6.874 -0.2280  0.3195 -0.4974
   55CHL1   C18 4023   0.190   2.127   6.874 -0.0801 -0.7590 -0.2347
   55CHL1  H18A 4024   0.266   2.194   6.921  1.6220 -1.1441 -2.3645
   55CHL1  H18B 4025   0.177   2.153   6.767 -1.3083  2.4001  0.6210
   55CHL1  H18C 4026   0.092   2.149   6.920 -0.1812 -0.0199 -0.7891
   55CHL1   C12 4027   0.367   1.954   6.803 -0.5888  0.1242  0.3528
   55CHL1  H12A 4028   0.451   2.022   6.826  0.3913 -1.0109  0.1957
   55CHL1  H12B 4029   0.392   1.847   6.818  1.3819  0.4440 -0.5723
   55CHL1   C11 4030   0.359   1.963   6.649  0.3218  0.3261 -0.5144
   55CHL1  H11A 4031   0.354   2.068   6.614 -0.7822  1.0098  1.6307
   55CHL1  H11B 4032   0.459   1.930   6.611 -0.2960 -1.1463 -0.8863
   55CHL1    C9 4033   0.240   1.873   6.590 -0.2409 -0.6552 -0.2544
   55CHL1    H9 4034   0.266   1.767   6.610 -1.1046 -0.7010  0.6898
   55CHL1   C10 4035   0.216   1.882   6.434 -0.0161 -0.1512  0.0300
   55CHL1   C19 4036   0.205   2.034   6.401  0.6769  0.1674 -0.5100
   55CHL1  H19A 4037   0.185   2.049   6.292 -0.0058 -1.3466 -0.6093
   55CHL1  H19B 4038   0.139   2.094   6.466  4.4551  0.9781  2.7207
   55CHL1  H19C 4039   0.305   2.082   6.412  0.7347  0.0958 -0.7166
   55CHL1    C1 4040   0.341   1.828   6.348 -0.8415  0.0096  0.1419
   55CHL1   H1A 4041   0.421   1.904   6.361 -1.2067  0.5925 -0.9456
   55CHL1   H1B 4042   0.370   1.726   6.378  0.5624 -0.1452 -1.6272
   55CHL1    C2 4043   0.325   1.820   6.196  0.3688 -0.0048 -0.0241
   55CHL1   H2A 4044   0.404   1.755   6.151 -1.3528 -1.0172 -1.6525
   55CHL1   H2B 4045   0.339   1.918   6.146  1.6336  0.1074  0.5168
   55CHL1   C20 4046   0.297   2.027   7.132  0.4854  0.0407 -0.2804
   55CHL1   H20 4047   0.245   2.125   7.129 -1.0894 -0.7698  0.0912
   55CHL1   C21 4048   0.450   2.057   7.101  0.7308  0.5025  0.1070
   55CHL1  H21A 4049   0.491   2.099   7.196  0.5666  1.6382 -0.3162
   55CHL1  H21B 4050   0.466   2.120   7.011  0.4817 -0.3519 -0.5387
   55CHL1  H21C 4051   0.490   1.957   7.077 -1.1323  0.3063 -2.3766
   55CHL1   C22 4052   0.277   1.967   7.278  0.4257 -0.0983  0.1567
   55CHL1  H22A 4053   0.169   1.952   7.297  0.8888 -3.4681  0.4792
   55CHL1  H22B 4054   0.323   1.866   7.275  0.0602 -0.4195  3.2250
   55CHL1   C23 4055   0.326   2.050   7.399  0.3150 -0.9218 -1.1041
   55CHL1  H23A 4056   0.296   2.000   7.494 -2.9368 -0.7748 -1.9890
   55CHL1  H23B 4057   0.437   2.049   7.392  0.2268 -2.0581 -2.6902
   55CHL1   C24 4058   0.269   2.198   7.412  0.2150 -0.3475  0.4947
   55CHL1  H24A 4059   0.302   2.249   7.320  0.8713 -1.8010 -0.0937
   55CHL1  H24B 4060   0.159   2.182   7.415  0.3918 -2.1485 -1.5160
   55CHL1   C25 4061   0.301   2.273   7.540  0.1445  0.6292  0.3993
   55CHL1   H25 4062   0.284   2.206   7.627  0.0124  2.1747  1.5852
   55CHL1   C26 4063   0.446   2.329   7.538  0.3296  0.3283 -0.0211
   55CHL1  H26A 4064   0.528   2.253   7.540 -1.3943 -1.6419 -1.5381
   55CHL1  H26B 4065   0.459   2.401   7.454  0.4125  0.1847 -0.1318
   55CHL1  H26C 4066   0.472   2.380   7.633  0.7100  1.1873 -0.5796
   55CHL1   C27 4067   0.208   2.399   7.560  0.2560  0.0523  0.4197
   55CHL1  H27A 4068   0.217   2.435   7.665  0.8965  1.8904 -0.2485
   55CHL1  H27B 4069   0.245   2.474   7.487 -0.1646 -0.2242 -0.0819
   55CHL1  H27C 4070   0.101   2.376   7.538  0.3379  0.4603 -0.4192
   56CHL1    C3 4071   0.143   0.041   6.162 -0.0386 -1.0208  0.3575
   56CHL1    H3 4072   0.089   0.134   6.138  0.1700 -1.1684 -0.7181
   56CHL1    O3 4073   0.138  -0.045   6.046  0.1007  0.1818 -0.2404
   56CHL1   H3' 4074   0.194  -0.118   6.073  1.0989  0.4196 -1.6148
   56CHL1    C4 4075   0.288   0.087   6.190  0.0884  0.0890  0.1681
   56CHL1   H4A 4076   0.351  -0.003   6.202  0.6039  0.8996  4.3655
   56CHL1   H4B 4077   0.338   0.140   6.106  0.7973 -0.2467  0.3734
   56CHL1    C5 4078   0.294   0.177   6.315 -0.1328 -0.1799 -0.0628
   56CHL1    C6 4079   0.334   0.307   6.317  0.4240  0.0282 -0.1633
   56CHL1    H6 4080   0.361   0.359   6.224 -1.8537 -0.7719 -1.2981
   56CHL1    C7 4081   0.343   0.401   6.437 -0.3800  0.7535  0.2769
   56CHL1   H7A 4082   0.437   0.460   6.436 -0.1826  0.4328 -0.6362
   56CHL1   H7B 4083   0.255   0.468   6.443 -2.2657 -1.5826 -0.7671
   56CHL1    C8 4084   0.339   0.313   6.561  0.3623  0.6006  0.0974
   56CHL1    H8 4085   0.425   0.243   6.564 -0.4763 -0.4062  2.0690
   56CHL1   C14 4086   0.331   0.396   6.685  0.4776 -1.3140  0.2115
   56CHL1   H14 4087   0.233   0.444   6.665  0.2570 -1.5611  0.6890
   56CHL1   C15 4088   0.427   0.522   6.701 -0.6184  0.3268  0.1639
   56CHL1  H15A 4089   0.530   0.488   6.676 -0.4968  2.1615 -1.9797
   56CHL1  H15B 4090   0.392   0.608   6.641 -0.6859 -0.2981 -0.6996
   56CHL1   C16 4091   0.409   0.562   6.854 -0.2731  0.3454 -0.4535
   56CHL1  H16A 4092   0.507   0.549   6.905  0.5770  0.4485 -2.0279
   56CHL1  H16B 4093   0.380   0.667   6.876 -0.6692 -0.3338  2.4810
   56CHL1   C17 4094   0.302   0.457   6.908 -0.3578  0.4340 -0.2544
   56CHL1   H17 4095   0.206   0.497   6.869 -1.8152 -1.9274  0.8469
   56CHL1   C13 4096   0.316   0.331   6.824 -0.4270  0.3764  0.0819
   56CHL1   C18 4097   0.446   0.255   6.856 -0.1998  0.8312 -0.3437
   56CHL1  H18A 4098   0.433   0.202   6.952 -0.9297 -0.2996 -1.0535
   56CHL1  H18B 4099   0.463   0.175   6.781 -0.7880  0.5421 -0.1618
   56CHL1  H18C 4100   0.527   0.332   6.858 -0.3318  1.0072 -1.4231
   56CHL1   C12 4101   0.189   0.241   6.817  0.2445 -0.3521 -0.2553
   56CHL1  H12A 4102   0.165   0.185   6.910 -2.4892 -1.3567 -1.5164
   56CHL1  H12B 4103   0.098   0.304   6.803  1.3829  1.7568  1.4945
   56CHL1   C11 4104   0.197   0.149   6.702 -0.0533 -0.5028  0.1861
   56CHL1  H11A 4105   0.292   0.092   6.715  0.2661  0.2594  1.3243
   56CHL1  H11B 4106   0.110   0.081   6.700 -0.8708  0.5315 -2.8486
   56CHL1    C9 4107   0.222   0.217   6.559 -1.0439 -0.3732 -0.1053
   56CHL1    H9 4108   0.134   0.283   6.544 -0.3421  0.1887 -1.8256
   56CHL1   C10 4109   0.241   0.113   6.442 -0.1866  0.7227  0.1918
   56CHL1   C19 4110   0.333  -0.008   6.472 -0.2356 -0.6978  0.6728
   56CHL1  H19A 4111   0.355  -0.073   6.385  1.3724  0.9518 -0.1989
   56CHL1  H19B 4112   0.430   0.030   6.512  0.6693  0.2180 -2.2660
   56CHL1  H19C 4113   0.294  -0.075   6.551  0.1144 -0.8958  0.6802
   56CHL1    C1 4114   0.097   0.065   6.398 -0.2827  0.5971  0.9679
   56CHL1   H1A 4115   0.032   0.021   6.477 -0.4008  0.2130  0.6590
   56CHL1   H1B 4116   0.038   0.153   6.367 -0.0315  0.5779  0.4386
   56CHL1    C2 4117   0.086  -0.035   6.280 -0.1195 -0.4069  0.3228
   56CHL1   H2A 4118  -0.020  -0.064   6.263 -0.7758  1.1335  1.6940
   56CHL1   H2B 4119   0.152  -0.121   6.304 -0.1382 -0.7153 -0.6975
   56CHL1   C20 4120   0.290   0.432   7.052 -0.2340  0.9606 -1.2245
   56CHL1   H20 4121   0.229   0.340   7.063 -0.5169  1.3713  0.8401
   56CHL1   C21 4122   0.193   0.542   7.103  0.4034 -0.3316  0.3969
   56CHL1  H21A 4123   0.096   0.545   7.049 -0.3620 -0.6049  1.7212
   56CHL1  H21B 4124   0.231   0.643   7.076  0.1938 -0.3086  0.1918
   56CHL1  H21C 4125   0.172   0.548   7.213  1.3098  0.7718  0.5170
   56CHL1   C22 4126   0.417   0.442   7.142 -0.2413 -0.1419  0.1671
   56CHL1  H22A 4127   0.491   0.367   7.106  1.6422  0.0497  3.4583
   56CHL1  H22B 4128   0.468   0.541   7.138  0.5700 -0.5473  0.4503
   56CHL1   C23 4129   0.392   0.413   7.291 -0.3531  0.2227  0.2261
   56CHL1  H23A 4130   0.346   0.503   7.338 -0.2032  0.8842 -0.8807
   56CHL1  H23B 4131   0.310   0.338   7.290 -1.5086  1.4426  0.8812
   56CHL1   C24 4132   0.519   0.370   7.364 -0.1852 -0.4644  0.2155
   56CHL1  H24A 4133   0.572   0.298   7.298  3.7339  0.4957  2.1809
   56CHL1  H24B 4134   0.586   0.456   7.383 -1.9956  0.4145  3.0127
   56CHL1   C25 4135   0.500   0.293   7.495  0.4031  0.0150  0.2865
   56CHL1   H25 4136   0.438   0.201   7.485 -1.7062  1.3357  0.9033
   56CHL1   C26 4137   0.642   0.248   7.538 -0.1676 -0.3034  0.0272
   56CHL1  H26A 4138   0.710   0.335   7.523 -0.5910  0.1244  0.5333
   56CHL1  H26B 4139   0.682   0.165   7.476 -0.2556 -0.4606  0.1812
   56CHL1  H26C 4140   0.648   0.218   7.644  0.5088 -2.6114 -0.6384
   56CHL1   C27 4141   0.440   0.388   7.596  0.8647  0.4329 -0.0799
   56CHL1  H27A 4142   0.427   0.345   7.698 -1.1914  2.7797  0.6967
   56CHL1  H27B 4143   0.518   0.465   7.613  0.2555  0.6029  2.0691
   56CHL1  H27C 4144   0.348   0.443   7.567  0.0935 -0.6462  0.2888
   57SAPC     N 4145   3.104   2.877  10.104  0.6986  0.0242  0.1484
   57SAPC   C12 4146   3.093   3.000  10.008 -0.1773  0.3900 -0.2190
   57SAPC  H12A 4147   3.119   2.961   9.911  1.8723 -0.9160  0.8170
   57SAPC  H12B 4148   3.169   3.067  10.045 -0.4720 -0.2856  1.6611
   57SAPC   C13 4149   3.057   2.757  10.036  0.3309  0.3592  0.4529
   57SAPC  H13A 4150   3.086   2.666  10.086 -1.1381 -0.9434 -0.9954
   57SAPC  H13B 4151   2.949   2.765  10.030  0.2775  1.0648  2.1638
   57SAPC  H13C 4152   3.090   2.740   9.935  1.1545  0.4637  0.7059
   57SAPC   C14 4153   3.247   2.846  10.137  0.3483 -0.4268  0.3414
   57SAPC  H14A 4154   3.307   2.814  10.053  0.0836  1.8093 -0.7199
   57SAPC  H14B 4155   3.299   2.930  10.180  2.2404 -0.4584 -1.7996
   57SAPC  H14C 4156   3.252   2.764  10.207 -0.9466  0.8117  1.9205
   57SAPC   C15 4157   3.031   2.894  10.232  0.1551 -0.1142 -0.6019
   57SAPC  H15A 4158   2.923   2.901  10.225  0.0041  3.9608  3.8273
   57SAPC  H15B 4159   3.061   2.820  10.306  2.7544  1.9832  0.5096
   57SAPC  H15C 4160   3.053   2.989  10.277 -1.3824 -0.3971  0.8131
   57SAPC   C11 4161   2.964   3.082  10.008 -0.0610 -0.0307  0.2850
   57SAPC  H11A 4162   2.883   3.007   9.997 -0.5249  0.3525  1.0203
   57SAPC  H11B 4163   2.974   3.146   9.917 -3.6286  0.2013 -0.0254
   57SAPC     P 4164   3.043   3.292  10.150  0.2202  0.3153  0.0720
   57SAPC   O13 4165   2.960   3.396  10.085  0.2512  0.8027 -0.0876
   57SAPC   O14 4166   3.077   3.303  10.297  0.6013  0.2709 -0.3222
   57SAPC   O12 4167   2.963   3.159  10.128  0.4837  0.2552  0.3252
   57SAPC   O11 4168   3.169   3.276  10.065 -0.3116 -0.3756  0.5502
   57SAPC    C1 4169   3.200   3.349   9.941 -0.3568  0.0937 -0.9417
   57SAPC    HA 4170   3.278   3.292   9.887  1.8737 -0.0642  2.3044
   57SAPC    HB 4171   3.104   3.346   9.885 -0.6544 -0.6906 -0.3893
   57SAPC    C2 4172   3.245   3.494   9.961 -0.6680  0.1082  0.4457
   57SAPC    HS 4173   3.167   3.552  10.015 -0.9815  2.0903 -2.1058
   57SAPC   O21 4174   3.255   3.543   9.827  0.0718 -0.6533 -0.2702
   57SAPC   C21 4175   3.253   3.674   9.818  0.1401  0.5861  0.6928
   57SAPC   O22 4176   3.233   3.749   9.915  0.2530  0.1222  0.1685
   57SAPC   C22 4177   3.264   3.723   9.669 -0.3768  0.1978 -1.3151
   57SAPC   H2R 4178   3.290   3.831   9.673 -0.8327  0.2398  1.7261
   57SAPC   H2S 4179   3.341   3.667   9.612  1.4930  1.2879  0.1064
   57SAPC    C3 4180   3.379   3.506  10.038  1.1882  0.0320  0.3270
   57SAPC    HX 4181   3.360   3.454  10.135  2.7689 -2.0143 -0.4081
   57SAPC    HY 4182   3.390   3.615  10.058 -1.1234  0.1652  1.0379
   57SAPC   O31 4183   3.486   3.446   9.969  0.4354 -0.1575  0.1549
   57SAPC   C31 4184   3.554   3.522   9.888 -0.0051 -0.0277  0.1898
   57SAPC   O32 4185   3.542   3.643   9.876 -0.0893  0.1797  0.5162
   57SAPC   C32 4186   3.648   3.437   9.802 -0.3167 -0.3989  0.6894
   57SAPC   H2X 4187   3.653   3.333   9.842  0.9305 -0.4325  0.4869
   57SAPC   H2Y 4188   3.747   3.481   9.825 -1.5905  3.5075 -0.8402
   57SAPC   C23 4189   3.135   3.716   9.602 -0.0944  0.3327 -0.7299
   57SAPC   H3R 4190   3.056   3.775   9.654  0.6936  0.8498 -0.1154
   57SAPC   H3S 4191   3.100   3.611   9.589 -1.6384  0.4014  2.2245
   57SAPC   C24 4192   3.156   3.774   9.457 -0.2930  0.9022  0.4657
   57SAPC   H4R 4193   3.238   3.722   9.402  0.3155 -0.3964  2.5433
   57SAPC   H4S 4194   3.206   3.873   9.467 -0.2236  0.7354  1.7728
   57SAPC   C25 4195   3.035   3.776   9.368 -0.3421 -0.8428  0.4515
   57SAPC   H5R 4196   2.956   3.846   9.399 -0.4083 -0.5459 -0.4007
   57SAPC   C26 4197   3.009   3.683   9.276 -0.2938 -0.2094 -0.5476
   57SAPC   H6R 4198   2.925   3.697   9.206 -3.1460  0.2001  2.8310
   57SAPC   C27 4199   3.091   3.564   9.238  0.3103 -0.5419 -1.0724
   57SAPC   H7R 4200   3.126   3.511   9.329  1.7247  0.7071 -0.8666
   57SAPC   H7S 4201   3.187   3.588   9.187  0.5074 -1.5454 -1.1752
   57SAPC   C28 4202   3.020   3.459   9.151  0.5639 -0.1066  0.9214
   57SAPC   H8R 4203   2.944   3.394   9.197 -1.3430  0.6231 -1.1082
   57SAPC   C29 4204   3.018   3.462   9.018 -0.6984  0.0654 -0.6713
   57SAPC   H9R 4205   2.975   3.373   8.968  1.1135 -0.8001 -0.7351
   57SAPC  C210 4206   3.092   3.557   8.932 -0.5772 -1.2334 -0.1601
   57SAPC  H10R 4207   3.197   3.525   8.915 -0.1286  0.6737 -1.1072
   57SAPC  H10S 4208   3.102   3.660   8.972 -2.0342 -0.6579 -1.2447
   57SAPC  C211 4209   3.017   3.580   8.803 -0.3559 -0.1290  0.1445
   57SAPC  H11R 4210   2.932   3.649   8.791 -1.5658 -1.7468 -0.8073
   57SAPC  C212 4211   3.044   3.511   8.694 -0.0082  0.4707  0.4735
   57SAPC  H12R 4212   2.979   3.536   8.609  0.6961 -1.6096 -0.7201
   57SAPC  C213 4213   3.152   3.405   8.665  0.2782  0.3867 -0.3331
   57SAPC  H13R 4214   3.193   3.365   8.760 -0.2526  1.4092  0.3401
   57SAPC  H13S 4215   3.234   3.462   8.617  1.7486 -1.3319  0.1098
   57SAPC  C214 4216   3.109   3.283   8.594 -0.4215 -0.1943  0.0982
   57SAPC  H14R 4217   3.067   3.205   8.659  2.7175 -0.5807  1.7103
   57SAPC  C215 4218   3.100   3.256   8.460 -0.6531  0.6773  0.0628
   57SAPC  H15R 4219   3.058   3.160   8.427  1.0803  0.4025 -1.4454
   57SAPC  C216 4220   3.149   3.344   8.345  0.1085  0.3254  0.0362
   57SAPC  H16R 4221   3.233   3.291   8.295  0.1104 -1.0160  1.4281
   57SAPC  H16S 4222   3.190   3.438   8.388 -1.6018  1.8605 -1.6428
   57SAPC  C217 4223   3.029   3.379   8.247  0.1774  0.3701  0.6780
   57SAPC  H17R 4224   3.050   3.462   8.176 -0.8119 -0.2445 -0.3675
   57SAPC  H17S 4225   2.934   3.403   8.300  0.3329  0.6468  0.8366
   57SAPC  C218 4226   3.013   3.273   8.138  0.7463  0.6554  0.2521
   57SAPC  H18R 4227   2.918   3.285   8.080  1.2925  0.6598 -0.6593
   57SAPC  H18S 4228   3.005   3.175   8.188 -0.4783 -0.2089 -1.5760
   57SAPC  C219 4229   3.116   3.272   8.026  0.3374 -0.5812  0.4134
   57SAPC  H19R 4230   3.215   3.233   8.060  0.8664  0.6206  0.2538
   57SAPC  H19S 4231   3.148   3.371   7.987  1.6029 -1.1356  0.0037
   57SAPC  C220 4232   3.066   3.186   7.909  0.0364 -0.1576  0.0008
   57SAPC  H20R 4233   2.970   3.214   7.859 -0.5835 -0.4103  1.0152
   57SAPC  H20S 4234   3.079   3.077   7.927  1.5548  0.2478  1.4174
   57SAPC  H20T 4235   3.138   3.201   7.826  0.2319  1.1268  0.3848
   57SAPC   C33 4236   3.615   3.446   9.649  0.4717 -0.1691 -0.1550
   57SAPC   H3X 4237   3.670   3.370   9.589 -1.0780 -0.6666 -0.9836
   57SAPC   H3Y 4238   3.618   3.546   9.602 -0.8534  0.0350  0.1609
   57SAPC   C34 4239   3.477   3.394   9.632 -0.2834 -0.0247 -0.3287
   57SAPC   H4X 4240   3.404   3.471   9.665 -0.9054 -0.8962  0.3661
   57SAPC   H4Y 4241   3.461   3.302   9.691 -1.4720 -0.8635 -1.8975
   57SAPC   C35 4242   3.441   3.358   9.489  0.3958 -0.1347  0.1155
   57SAPC   H5X 4243   3.360   3.282   9.484 -2.6662  3.0271 -0.5371
   57SAPC   H5Y 4244   3.522   3.291   9.453  1.0631  0.8018 -0.1351
   57SAPC   C36 4245   3.425   3.462   9.384  0.3033 -0.7055  0.0738
   57SAPC   H6X 4246   3.500   3.542   9.401  2.3672 -2.0886 -2.1455
   57SAPC   H6Y 4247   3.330   3.517   9.401  1.6111  0.6655  3.2825
   57SAPC   C37 4248   3.427   3.407   9.243 -0.1365  0.6399  0.8650
   57SAPC   H7X 4249   3.385   3.483   9.172 -2.0786 -1.3599 -0.2018
   57SAPC   H7Y 4250   3.361   3.318   9.240  1.3963 -0.5032  0.9251
   57SAPC   C38 4251   3.566   3.361   9.206  0.0909 -0.2894 -1.0675
   57SAPC   H8X 4252   3.598   3.273   9.266  1.1227  1.0523  0.3765
   57SAPC   H8Y 4253   3.631   3.447   9.235  2.1440 -1.6236 -1.6000
   57SAPC   C39 4254   3.565   3.324   9.059 -0.5951  0.2461 -0.0267
   57SAPC   H9X 4255   3.524   3.408   8.998 -1.5151 -1.5320 -1.9255
   57SAPC   H9Y 4256   3.497   3.237   9.048  1.2561 -1.0638 -1.5190
   57SAPC  C310 4257   3.696   3.274   8.990 -0.9299  0.2762  0.2658
   57SAPC  H10X 4258   3.741   3.197   9.056 -0.1855  1.6881  1.4537
   57SAPC  H10Y 4259   3.760   3.365   8.989  0.2625 -0.5633 -0.1050
   57SAPC  C311 4260   3.673   3.206   8.851 -0.6336  0.5361 -0.1065
   57SAPC  H11X 4261   3.592   3.264   8.802 -2.2074  0.3051  2.1101
   57SAPC  H11Y 4262   3.636   3.103   8.874 -1.0153  1.0204  1.5130
   57SAPC  C312 4263   3.794   3.203   8.766  0.2217  0.7281  0.0440
   57SAPC  H12X 4264   3.869   3.173   8.842  0.0303  1.6253  0.5950
   57SAPC  H12Y 4265   3.820   3.306   8.734  2.9730  0.1182  0.2474
   57SAPC  C313 4266   3.784   3.115   8.640 -0.5450  0.0942  0.0243
   57SAPC  H13X 4267   3.759   3.013   8.676 -0.8205 -0.6671 -2.2394
   57SAPC  H13Y 4268   3.886   3.103   8.598 -0.4919 -0.7212  0.3683
   57SAPC  C314 4269   3.699   3.156   8.523 -0.6269  0.0452 -0.3363
   57SAPC  H14X 4270   3.592   3.165   8.549 -0.9546 -0.2674 -1.5860
   57SAPC  H14Y 4271   3.703   3.073   8.449 -3.2614  0.0380 -0.4893
   57SAPC  C315 4272   3.743   3.283   8.446  0.0938 -0.0693 -0.6437
   57SAPC  H15X 4273   3.763   3.367   8.515  1.4515  0.1092 -1.2425
   57SAPC  H15Y 4274   3.670   3.316   8.369 -0.9164 -2.4585 -0.7597
   57SAPC  C316 4275   3.875   3.256   8.366 -0.7681  0.0888  0.1400
   57SAPC  H16X 4276   3.960   3.207   8.418  1.2696  2.2628 -1.0517
   57SAPC  H16Y 4277   3.911   3.354   8.327 -0.1167 -0.1785  0.0807
   57SAPC  C317 4278   3.849   3.167   8.247  0.0916  0.5101 -0.1949
   57SAPC  H17X 4279   3.776   3.212   8.177  0.3156  0.6445 -0.3427
   57SAPC  H17Y 4280   3.810   3.071   8.285 -0.2911  0.1090 -1.6038
   57SAPC  C318 4281   3.973   3.124   8.163  0.3005 -0.1315 -0.5409
   57SAPC  H18X 4282   4.051   3.091   8.234 -0.4805 -0.8873 -0.0343
   57SAPC  H18Y 4283   4.011   3.210   8.102  1.4435 -1.1865 -1.3436
   57SAPC  H18Z 4284   3.955   3.040   8.093  3.2573 -0.5807 -0.8324
   58SAPC     N 4285   4.899   1.594  10.497 -0.6230 -0.1116  0.3631
   58SAPC   C12 4286   4.927   1.540  10.358  0.4320  0.0108 -0.2250
   58SAPC  H12A 4287   4.945   1.434  10.373 -0.7736 -0.2787 -0.6887
   58SAPC  H12B 4288   5.019   1.580  10.319 -0.3728 -0.4580 -2.7388
   58SAPC   C13 4289   4.901   1.748  10.488  0.0649 -0.2749  0.2436
   58SAPC  H13A 4290   5.005   1.776  10.478 -0.1780  0.6561  0.3158
   58SAPC  H13B 4291   4.837   1.788  10.411  0.1263 -1.8466 -0.6581
   58SAPC  H13C 4292   4.868   1.795  10.579  1.3883  0.8729  0.1566
   58SAPC   C14 4293   4.766   1.551  10.539  0.0743 -0.6072 -0.2717
   58SAPC  H14A 4294   4.689   1.594  10.477 -2.5282 -2.0966  1.8226
   58SAPC  H14B 4295   4.745   1.445  10.546 -1.4800 -0.3374 -0.5767
   58SAPC  H14C 4296   4.749   1.583  10.641  3.8421 -2.1535  0.9337
   58SAPC   C15 4297   4.993   1.539  10.598  0.1575  0.5030  0.4381
   58SAPC  H15A 4298   4.987   1.432  10.612  1.0658  0.4434  0.4027
   58SAPC  H15B 4299   5.095   1.551  10.568  0.2903  3.8528  2.0419
   58SAPC  H15C 4300   4.979   1.588  10.694  1.1174 -0.3947  1.0485
   58SAPC   C11 4301   4.820   1.549  10.256 -0.3626  0.4162 -0.5452
   58SAPC  H11A 4302   4.872   1.538  10.159  0.0056 -2.8189 -0.0473
   58SAPC  H11B 4303   4.783   1.653  10.260  1.5177  1.1277 -1.3525
   58SAPC     P 4304   4.583   1.469  10.198  0.0350 -0.1972  0.1620
   58SAPC   O13 4305   4.522   1.335  10.170  0.1845 -0.4473 -0.3471
   58SAPC   O14 4306   4.500   1.568  10.270  0.3990 -0.3986  0.0674
   58SAPC   O12 4307   4.720   1.448  10.276  0.1670  0.4229 -0.3901
   58SAPC   O11 4308   4.629   1.519  10.055 -0.5595  0.1395  0.3649
   58SAPC    C1 4309   4.715   1.441   9.974  0.0865  0.5342 -0.5139
   58SAPC    HA 4310   4.811   1.496   9.965 -0.4437  1.5224 -0.1976
   58SAPC    HB 4311   4.728   1.338  10.016 -2.8358  0.4827  0.4117
   58SAPC    C2 4312   4.646   1.414   9.827 -0.9144 -0.9123  0.1089
   58SAPC    HS 4313   4.720   1.345   9.781 -0.9379 -0.9140  0.0737
   58SAPC   O21 4314   4.628   1.538   9.760 -0.0829 -0.1668  0.1556
   58SAPC   C21 4315   4.727   1.587   9.696 -0.3890 -1.4477  0.3803
   58SAPC   O22 4316   4.835   1.531   9.679 -0.3768 -0.0084  0.2179
   58SAPC   C22 4317   4.695   1.731   9.650  0.4999 -0.2645  0.2492
   58SAPC   H2R 4318   4.607   1.727   9.582  1.6746 -0.2296 -1.3039
   58SAPC   H2S 4319   4.669   1.783   9.745  2.8363 -0.7477  1.1809
   58SAPC    C3 4320   4.513   1.338   9.832 -0.0384 -0.0763 -0.4432
   58SAPC    HX 4321   4.429   1.403   9.863 -1.1278 -1.8708  0.4418
   58SAPC    HY 4322   4.522   1.256   9.906 -2.4829  0.3754  0.4119
   58SAPC   O31 4323   4.485   1.279   9.704 -0.1560  0.1669 -0.0740
   58SAPC   C31 4324   4.409   1.349   9.609 -0.3055  0.0315  0.4468
   58SAPC   O32 4325   4.351   1.449   9.629  0.4262 -0.2817  0.3806
   58SAPC   C32 4326   4.423   1.277   9.478 -0.1875  0.2058  0.1315
   58SAPC   H2X 4327   4.482   1.183   9.490 -0.2381  0.1966  0.3028
   58SAPC   H2Y 4328   4.488   1.338   9.411 -3.7583  1.8885 -1.9165
   58SAPC   C23 4329   4.812   1.794   9.578 -0.8424  0.2738  1.0763
   58SAPC   H3R 4330   4.808   1.758   9.473  1.2276  1.9740  0.3620
   58SAPC   H3S 4331   4.906   1.754   9.623 -0.4709 -0.2699 -0.1714
   58SAPC   C24 4332   4.810   1.939   9.567 -0.1951  0.4186  0.2607
   58SAPC   H4R 4333   4.716   1.977   9.523 -0.2167  0.4930  0.3725
   58SAPC   H4S 4334   4.889   1.964   9.493 -0.6122 -0.2266 -0.4049
   58SAPC   C25 4335   4.840   2.018   9.695 -0.1126  0.0016  0.3350
   58SAPC   H5R 4336   4.943   2.000   9.729 -0.3715 -0.1706  1.0335
   58SAPC   C26 4337   4.766   2.116   9.745  0.0333  0.3059  0.0399
   58SAPC   H6R 4338   4.800   2.165   9.837 -1.4154  0.6362  0.4106
   58SAPC   C27 4339   4.636   2.161   9.682 -0.0000  0.1269  0.3749
   58SAPC   H7R 4340   4.579   2.234   9.744 -2.1774 -0.0374 -1.3611
   58SAPC   H7S 4341   4.568   2.073   9.674  0.1176  0.0282  0.4532
   58SAPC   C28 4342   4.656   2.231   9.552 -0.4731 -0.1910  0.3949
   58SAPC   H8R 4343   4.758   2.266   9.531 -1.0394  2.1906  1.4663
   58SAPC   C29 4344   4.566   2.241   9.458  0.1477  0.3456  0.1121
   58SAPC   H9R 4345   4.600   2.292   9.367 -0.2765 -1.2926 -0.9764
   58SAPC  C210 4346   4.422   2.197   9.455  0.3447  0.2094 -0.3154
   58SAPC  H10R 4347   4.374   2.277   9.516 -0.6462 -1.4300  1.1228
   58SAPC  H10S 4348   4.392   2.100   9.502 -1.1482  0.5978 -0.4541
   58SAPC  C211 4349   4.368   2.204   9.316  0.3500  0.3326 -0.1915
   58SAPC  H11R 4350   4.368   2.112   9.255  2.2677  0.0087  0.2492
   58SAPC  C212 4351   4.318   2.307   9.246 -0.0488 -0.4792  0.0187
   58SAPC  H12R 4352   4.271   2.289   9.148  0.9111 -0.3625 -0.4639
   58SAPC  C213 4353   4.296   2.443   9.306 -0.0552 -0.0371 -0.9053
   58SAPC  H13R 4354   4.396   2.485   9.331 -1.2150  0.6264  2.8989
   58SAPC  H13S 4355   4.236   2.436   9.399 -0.3816  0.3968 -1.0793
   58SAPC  C214 4356   4.234   2.544   9.204 -0.2479  0.1286 -0.3425
   58SAPC  H14R 4357   4.132   2.576   9.227 -0.0811 -1.2737  2.6216
   58SAPC  C215 4358   4.279   2.589   9.091 -0.1492  0.5385 -0.0273
   58SAPC  H15R 4359   4.212   2.641   9.021  1.1266  0.3343 -1.4228
   58SAPC  C216 4360   4.413   2.557   9.023  0.1067 -0.2524  0.2753
   58SAPC  H16R 4361   4.481   2.496   9.086 -0.2887  0.4720  1.4356
   58SAPC  H16S 4362   4.462   2.655   9.003  0.1059 -0.3120 -0.0200
   58SAPC  C217 4363   4.388   2.493   8.890 -0.2919 -0.2744  0.7695
   58SAPC  H17R 4364   4.328   2.557   8.821  2.0158 -0.2967 -1.3285
   58SAPC  H17S 4365   4.343   2.392   8.898  0.0818 -0.6352 -1.3370
   58SAPC  C218 4366   4.521   2.484   8.813  0.4982  0.1493 -0.1609
   58SAPC  H18R 4367   4.583   2.403   8.858  0.8202  0.0277 -0.8236
   58SAPC  H18S 4368   4.571   2.583   8.818 -1.4901  1.1348  1.0326
   58SAPC  C219 4369   4.510   2.443   8.669 -0.7042 -0.5037  0.3903
   58SAPC  H19R 4370   4.441   2.515   8.619  1.2955 -0.0552 -1.8383
   58SAPC  H19S 4371   4.479   2.336   8.664 -0.9155 -0.4503  0.5703
   58SAPC  C220 4372   4.643   2.458   8.592 -0.4187  0.4550  0.4622
   58SAPC  H20R 4373   4.671   2.562   8.561 -0.2488  0.2594 -0.0442
   58SAPC  H20S 4374   4.647   2.401   8.497 -0.3730  1.2969 -0.0514
   58SAPC  H20T 4375   4.728   2.424   8.656 -1.2565  0.0312  1.3650
   58SAPC   C33 4376   4.288   1.255   9.416  0.6199 -0.0483 -0.5792
   58SAPC   H3X 4377   4.241   1.355   9.400 -0.2217 -0.4777 -0.8199
   58SAPC   H3Y 4378   4.225   1.196   9.486 -0.5267  0.8555 -0.8187
   58SAPC   C34 4379   4.293   1.184   9.281  0.4465  0.0015  0.0425
   58SAPC   H4X 4380   4.293   1.077   9.311 -0.1808 -0.0424 -0.1159
   58SAPC   H4Y 4381   4.384   1.207   9.222  0.0693 -0.0150 -0.5490
   58SAPC   C35 4382   4.170   1.218   9.209  0.7858 -0.0087  0.2606
   58SAPC   H5X 4383   4.085   1.208   9.279  0.4922  2.6236  0.3258
   58SAPC   H5Y 4384   4.153   1.145   9.128  0.0420  0.0726  0.3407
   58SAPC   C36 4385   4.169   1.357   9.141 -0.6547 -0.6730  1.0142
   58SAPC   H6X 4386   4.255   1.348   9.071 -1.0965  1.0607  0.2324
   58SAPC   H6Y 4387   4.201   1.438   9.210 -0.4803 -0.3860  0.5952
   58SAPC   C37 4388   4.047   1.408   9.066  0.7497  0.1003  0.1167
   58SAPC   H7X 4389   3.962   1.394   9.137  1.5088 -1.5452  0.7221
   58SAPC   H7Y 4390   4.021   1.332   8.990 -1.4750  0.6762  0.2645
   58SAPC   C38 4391   4.061   1.546   8.999  0.2109 -0.5554 -0.5799
   58SAPC   H8X 4392   4.112   1.539   8.901 -3.3315  1.0966 -2.6604
   58SAPC   H8Y 4393   4.105   1.617   9.072  0.9736  1.7951 -3.2747
   58SAPC   C39 4394   3.920   1.618   8.981  0.5547  1.1473 -0.3400
   58SAPC   H9X 4395   3.855   1.633   9.069 -2.8236 -1.2268 -2.3006
   58SAPC   H9Y 4396   3.853   1.562   8.912 -1.4774 -0.0170  2.4741
   58SAPC  C310 4397   3.933   1.746   8.910 -0.1925  0.8719  0.0202
   58SAPC  H10X 4398   4.016   1.734   8.837  0.7001  0.4672  1.0884
   58SAPC  H10Y 4399   3.958   1.823   8.986 -0.4900 -0.3762  1.4066
   58SAPC  C311 4400   3.810   1.806   8.844 -0.4698  0.1048  0.1233
   58SAPC  H11X 4401   3.814   1.918   8.844 -0.4311  0.1282 -2.2130
   58SAPC  H11Y 4402   3.725   1.780   8.909 -1.6795 -0.5886 -1.7046
   58SAPC  C312 4403   3.786   1.764   8.695 -0.1961 -1.2040 -0.4366
   58SAPC  H12X 4404   3.748   1.660   8.697 -1.7865 -0.6705 -1.6976
   58SAPC  H12Y 4405   3.881   1.772   8.637 -1.0129  0.3661 -1.6075
   58SAPC  C313 4406   3.691   1.864   8.625 -0.3373  0.2467  0.2051
   58SAPC  H13X 4407   3.735   1.963   8.650 -1.2477  0.5917  0.4425
   58SAPC  H13Y 4408   3.587   1.851   8.660 -0.9094 -0.5250 -1.6964
   58SAPC  C314 4409   3.695   1.851   8.469  0.1735  1.0561 -0.1382
   58SAPC  H14X 4410   3.795   1.876   8.428 -0.2158  0.6466 -1.3551
   58SAPC  H14Y 4411   3.620   1.926   8.437 -1.2625 -0.3796 -0.2292
   58SAPC  C315 4412   3.633   1.726   8.414  0.4606  0.6833  0.3783
   58SAPC  H15X 4413   3.526   1.741   8.439  0.1468 -0.8005  0.0211
   58SAPC  H15Y 4414   3.669   1.631   8.459  2.9194  1.8568  0.9919
   58SAPC  C316 4415   3.647   1.727   8.255  0.1703 -0.4193  0.5193
   58SAPC  H16X 4416   3.751   1.761   8.235  0.9261 -1.6556  2.1689
   58SAPC  H16Y 4417   3.579   1.798   8.205  1.1620 -0.4029 -0.8409
   58SAPC  C317 4418   3.627   1.592   8.181 -0.6549  0.0439  0.2607
   58SAPC  H17X 4419   3.621   1.605   8.071  0.7713  0.3287  0.2158
   58SAPC  H17Y 4420   3.522   1.560   8.202 -0.1272  0.3021  3.5216
   58SAPC  C318 4421   3.724   1.475   8.220  0.3594  0.7527 -0.6020
   58SAPC  H18X 4422   3.694   1.406   8.302  0.2222 -0.2134 -1.4552
   58SAPC  H18Y 4423   3.816   1.529   8.251  1.0157 -0.4793 -0.3560
   58SAPC  H18Z 4424   3.752   1.411   8.134  1.5853  1.4570 -0.7426
   59SAPC     N 4425   6.301   1.600  10.037  0.5380 -0.7189  0.5148
   59SAPC   C12 4426   6.450   1.636  10.028  0.6008 -0.9078 -0.1981
   59SAPC  H12A 4427   6.472   1.654   9.924  0.9892  0.2952  0.0798
   59SAPC  H12B 4428   6.506   1.550  10.061  1.9739  0.0088 -0.1114
   59SAPC   C13 4429   6.217   1.715  10.006  0.1378 -0.6202 -0.5594
   59SAPC  H13A 4430   6.114   1.686   9.994 -0.4603  0.3419  2.1399
   59SAPC  H13B 4431   6.234   1.789  10.082  0.0936 -1.6141  0.4312
   59SAPC  H13C 4432   6.234   1.759   9.909 -0.8809  1.4298  0.1781
   59SAPC   C14 4433   6.268   1.484   9.949  0.3385  0.8456  0.3945
   59SAPC  H14A 4434   6.175   1.436   9.974 -0.0378  0.0775 -2.2350
   59SAPC  H14B 4435   6.263   1.515   9.845  0.3971  0.8567  0.3946
   59SAPC  H14C 4436   6.342   1.406   9.962 -0.8107 -0.5615 -1.2378
   59SAPC   C15 4437   6.267   1.547  10.172 -0.0662 -0.4057  0.7287
   59SAPC  H15A 4438   6.167   1.507  10.183  0.5355 -1.9552  0.6243
   59SAPC  H15B 4439   6.326   1.467  10.213  0.9204 -1.7970 -3.2135
   59SAPC  H15C 4440   6.265   1.628  10.243  2.6781  0.4979 -0.1809
   59SAPC   C11 4441   6.502   1.754  10.099  0.1110 -0.8075 -0.6480
   59SAPC  H11A 4442   6.612   1.744  10.112  0.1978  0.7273 -0.0945
   59SAPC  H11B 4443   6.469   1.747  10.205  0.6017 -1.1264 -0.5133
   59SAPC     P 4444   6.539   1.937   9.928  0.1395  0.3096 -0.4234
   59SAPC   O13 4445   6.656   2.028   9.970  0.3644 -0.6322 -0.3133
   59SAPC   O14 4446   6.576   1.821   9.835  0.3754 -0.3915  0.2906
   59SAPC   O12 4447   6.461   1.880  10.053 -0.1969  0.3503 -0.9781
   59SAPC   O11 4448   6.428   2.020   9.859 -0.1058 -0.3271  0.4704
   59SAPC    C1 4449   6.469   2.124   9.775 -0.3444 -1.0081  0.2133
   59SAPC    HA 4450   6.493   2.217   9.829  1.2638 -2.1954  1.5809
   59SAPC    HB 4451   6.563   2.098   9.723 -0.3866 -0.8183  0.0391
   59SAPC    C2 4452   6.362   2.145   9.664 -0.5123 -0.2916 -0.1107
   59SAPC    HS 4453   6.264   2.168   9.712  0.1668 -0.9799  1.6221
   59SAPC   O21 4454   6.353   2.024   9.578 -0.0537 -0.0980 -0.2355
   59SAPC   C21 4455   6.252   1.948   9.605  0.1862  0.2827 -0.6809
   59SAPC   O22 4456   6.158   1.959   9.683  0.0184  0.4734 -0.4280
   59SAPC   C22 4457   6.265   1.823   9.517 -0.2644  0.5249  0.1006
   59SAPC   H2R 4458   6.169   1.831   9.462 -1.4716  2.3477  2.3899
   59SAPC   H2S 4459   6.350   1.823   9.446  0.0786 -0.4726  0.5065
   59SAPC    C3 4460   6.393   2.274   9.588  0.3008  0.7914  0.1091
   59SAPC    HX 4461   6.495   2.275   9.542  0.6700  0.9360  0.9224
   59SAPC    HY 4462   6.386   2.356   9.663 -0.3773 -0.6291  1.6057
   59SAPC   O31 4463   6.287   2.303   9.492  0.4450 -0.0197  0.5623
   59SAPC   C31 4464   6.308   2.281   9.370  0.5654 -0.1770  0.3342
   59SAPC   O32 4465   6.419   2.247   9.324  0.3082  0.4574 -0.1898
   59SAPC   C32 4466   6.180   2.296   9.286  0.2450  0.5098 -0.7490
   59SAPC   H2X 4467   6.110   2.352   9.351  0.8633 -1.3351  1.5891
   59SAPC   H2Y 4468   6.137   2.195   9.271  0.8468 -0.0592  1.2051
   59SAPC   C23 4469   6.275   1.686   9.589 -0.2561  0.1082  0.8441
   59SAPC   H3R 4470   6.182   1.652   9.639 -0.1492 -2.0465 -0.3776
   59SAPC   H3S 4471   6.356   1.702   9.665  0.8238  1.5689 -0.5944
   59SAPC   C24 4472   6.323   1.571   9.489  0.4428 -0.1853 -0.1624
   59SAPC   H4R 4473   6.248   1.553   9.409 -0.7644  1.5413  0.5522
   59SAPC   H4S 4474   6.314   1.486   9.560  0.8846  0.0743  0.2055
   59SAPC   C25 4475   6.458   1.579   9.428 -0.4239 -0.3969  0.8353
   59SAPC   H5R 4476   6.543   1.558   9.495 -0.9652 -1.3426  1.2443
   59SAPC   C26 4477   6.480   1.611   9.295  0.3345  0.8017 -0.3023
   59SAPC   H6R 4478   6.584   1.623   9.261  0.3797  0.4867 -0.2790
   59SAPC   C27 4479   6.371   1.642   9.191 -0.6416 -0.3487  0.4817
   59SAPC   H7R 4480   6.268   1.617   9.224 -0.5620 -0.6006  0.5350
   59SAPC   H7S 4481   6.401   1.593   9.096  2.3287  1.7336  0.2674
   59SAPC   C28 4482   6.360   1.790   9.166 -0.2234 -0.3914 -0.4536
   59SAPC   H8R 4483   6.453   1.846   9.182 -0.5091 -0.1812  0.5015
   59SAPC   C29 4484   6.256   1.846   9.103  0.4034 -0.1024 -1.2747
   59SAPC   H9R 4485   6.257   1.956   9.109 -0.7680 -0.1723  0.3830
   59SAPC  C210 4486   6.133   1.780   9.046  0.4175 -0.4545  0.0351
   59SAPC  H10R 4487   6.053   1.853   9.066 -0.6310 -1.8585  1.0853
   59SAPC  H10S 4488   6.107   1.692   9.109 -3.0596  0.9009  0.5576
   59SAPC  C211 4489   6.145   1.752   8.895 -0.0042 -0.2677  0.6723
   59SAPC  H11R 4490   6.214   1.672   8.863 -1.9429 -1.6257 -0.1649
   59SAPC  C212 4491   6.079   1.816   8.796 -0.6367 -0.4707  0.0076
   59SAPC  H12R 4492   6.090   1.775   8.694 -0.4942  0.4614 -0.3513
   59SAPC  C213 4493   5.982   1.933   8.808  0.3847 -0.5237  0.5412
   59SAPC  H13R 4494   5.959   1.956   8.914 -0.6506 -1.2678  0.4842
   59SAPC  H13S 4495   5.882   1.905   8.767  0.2656  1.2669 -0.4189
   59SAPC  C214 4496   6.034   2.066   8.739  0.6103  0.1176  0.1362
   59SAPC  H14R 4497   6.108   2.118   8.801  0.1128  0.1878  0.6730
   59SAPC  C215 4498   6.033   2.102   8.608  0.7470 -0.4376  0.1770
   59SAPC  H15R 4499   6.074   2.200   8.583 -2.4923  1.6415  2.6331
   59SAPC  C216 4500   5.977   2.029   8.488 -0.2669  0.1783 -0.3054
   59SAPC  H16R 4501   5.951   1.923   8.508 -4.6279  0.9220 -1.3486
   59SAPC  H16S 4502   6.066   2.020   8.424  0.5165 -1.3240  0.9693
   59SAPC  C217 4503   5.860   2.096   8.403  0.1590 -0.1260 -0.5356
   59SAPC  H17R 4504   5.891   2.196   8.365 -0.6655  0.5730  0.6066
   59SAPC  H17S 4505   5.773   2.105   8.471 -1.5546 -1.7853 -2.4056
   59SAPC  C218 4506   5.826   2.021   8.272  0.5030 -0.3160 -0.1976
   59SAPC  H18R 4507   5.798   1.918   8.301 -2.0493  0.8047  1.4791
   59SAPC  H18S 4508   5.909   2.015   8.199  2.0024 -0.4182  1.4936
   59SAPC  C219 4509   5.705   2.097   8.203  0.3636 -0.0017 -0.2941
   59SAPC  H19R 4510   5.609   2.068   8.250  1.2064  0.2490  1.6172
   59SAPC  H19S 4511   5.688   2.048   8.104 -1.3073  0.5651 -0.3020
   59SAPC  C220 4512   5.710   2.246   8.186 -0.4030 -0.0055 -0.1220
   59SAPC  H20R 4513   5.792   2.282   8.120  1.9010 -1.9349  1.6195
   59SAPC  H20S 4514   5.720   2.299   8.283 -1.0618  0.3520 -0.2446
   59SAPC  H20T 4515   5.619   2.288   8.139  0.5179  1.9601 -0.1742
   59SAPC   C33 4516   6.203   2.368   9.149 -0.0441  0.7321  0.4171
   59SAPC   H3X 4517   6.255   2.464   9.171  0.5548  0.5826 -0.3386
   59SAPC   H3Y 4518   6.106   2.411   9.118  1.4351  2.6876 -1.6914
   59SAPC   C34 4519   6.278   2.295   9.039 -0.2124  0.5869  0.1515
   59SAPC   H4X 4520   6.228   2.196   9.032 -0.9223  1.0393 -1.4503
   59SAPC   H4Y 4521   6.383   2.267   9.061 -0.6063 -0.7069  0.3859
   59SAPC   C35 4522   6.276   2.360   8.897  0.1269 -0.6153 -0.1210
   59SAPC   H5X 4523   6.315   2.463   8.911 -1.0845 -0.1795  0.1425
   59SAPC   H5Y 4524   6.171   2.368   8.861  0.2223 -0.2354 -0.3118
   59SAPC   C36 4525   6.360   2.289   8.788 -0.0033 -0.2819  0.5214
   59SAPC   H6X 4526   6.318   2.189   8.765 -0.3659  0.2718 -1.3272
   59SAPC   H6Y 4527   6.468   2.274   8.813  0.0506  0.8744  1.0183
   59SAPC   C37 4528   6.374   2.361   8.657  0.0710  0.1735 -0.3718
   59SAPC   H7X 4529   6.426   2.458   8.671  0.5263 -0.0574 -0.4555
   59SAPC   H7Y 4530   6.269   2.375   8.621 -0.0538 -1.2420 -0.5691
   59SAPC   C38 4531   6.440   2.271   8.552 -1.3101  0.2114  0.2525
   59SAPC   H8X 4532   6.395   2.170   8.555  0.0033 -0.3338  1.6802
   59SAPC   H8Y 4533   6.544   2.264   8.591 -1.1558  0.7473 -0.0470
   59SAPC   C39 4534   6.438   2.321   8.408  0.3914 -0.1439  0.3981
   59SAPC   H9X 4535   6.483   2.423   8.405 -0.3237  0.1977  0.8831
   59SAPC   H9Y 4536   6.331   2.314   8.379  0.7992  1.0424 -1.4800
   59SAPC  C310 4537   6.501   2.225   8.312 -0.7507 -0.0810 -0.0604
   59SAPC  H10X 4538   6.477   2.118   8.331  0.4586 -0.0077  2.0364
   59SAPC  H10Y 4539   6.609   2.232   8.335 -0.7421 -0.4032 -0.0020
   59SAPC  C311 4540   6.471   2.250   8.159 -0.9839  0.0149 -0.3914
   59SAPC  H11X 4541   6.514   2.163   8.104 -0.8869 -1.2654  1.6419
   59SAPC  H11Y 4542   6.522   2.346   8.137 -1.6627  1.1535  2.7067
   59SAPC  C312 4543   6.323   2.264   8.119  0.2231  0.3517  0.0398
   59SAPC  H12X 4544   6.290   2.370   8.131 -2.2536 -0.5500  1.5891
   59SAPC  H12Y 4545   6.262   2.215   8.198  2.0418  0.7157  1.7126
   59SAPC  C313 4546   6.286   2.211   7.981  0.4487  0.0140 -0.0771
   59SAPC  H13X 4547   6.328   2.111   7.955  1.3298  1.0052 -2.6078
   59SAPC  H13Y 4548   6.343   2.271   7.908  2.1158 -2.9914 -1.3424
   59SAPC  C314 4549   6.137   2.195   7.958  0.4513  0.4261 -0.6507
   59SAPC  H14X 4550   6.097   2.291   7.917  0.6225 -0.8452 -3.8829
   59SAPC  H14Y 4551   6.084   2.177   8.054  0.2110 -2.5222 -1.2984
   59SAPC  C315 4552   6.108   2.087   7.859 -0.3801 -0.0627  0.3163
   59SAPC  H15X 4553   6.092   1.985   7.901 -0.7283 -0.4340 -0.7007
   59SAPC  H15Y 4554   6.190   2.074   7.785 -0.1903  2.0996  0.1096
   59SAPC  C316 4555   5.987   2.121   7.769 -1.0965 -0.6340 -0.8757
   59SAPC  H16X 4556   5.989   2.060   7.677  0.0981 -1.0244 -0.6068
   59SAPC  H16Y 4557   6.010   2.226   7.739  2.6453 -0.1582  2.9596
   59SAPC  C317 4558   5.858   2.120   7.841 -0.3827  0.1159  0.0838
   59SAPC  H17X 4559   5.871   2.189   7.927  0.6058  0.2675 -0.1789
   59SAPC  H17Y 4560   5.827   2.022   7.885 -0.9360  0.6596  0.9269
   59SAPC  C318 4561   5.742   2.183   7.762  0.3370  0.2990 -0.2652
   59SAPC  H18X 4562   5.782   2.250   7.683  0.9105  1.1780  0.7616
   59SAPC  H18Y 4563   5.669   2.237   7.827 -2.0507 -3.9109  0.7205
   59SAPC  H18Z 4564   5.687   2.103   7.708  0.3552 -1.3616  2.1143
   60SAPC     N 4565   5.996   0.920  10.322 -0.6730  1.2261 -0.1602
   60SAPC   C12 4566   5.999   1.049  10.247 -0.1119  0.2982 -0.7582
   60SAPC  H12A 4567   6.095   1.053  10.199  1.3786 -2.4875  1.8440
   60SAPC  H12B 4568   6.007   1.133  10.314 -0.8826 -2.3505  2.7717
   60SAPC   C13 4569   5.865   0.876  10.371  0.3200  0.3615  0.1973
   60SAPC  H13A 4570   5.872   0.773  10.402 -0.0379  0.1403 -0.4519
   60SAPC  H13B 4571   5.835   0.940  10.453 -0.8420  1.5545 -1.1336
   60SAPC  H13C 4572   5.790   0.890  10.294 -1.0319 -3.2652  0.7805
   60SAPC   C14 4573   6.062   0.810  10.246  0.0897 -0.6113 -0.3074
   60SAPC  H14A 4574   6.011   0.799  10.151 -0.7633 -1.5263  0.2390
   60SAPC  H14B 4575   6.167   0.818  10.221 -0.2406 -1.7774 -2.2067
   60SAPC  H14C 4576   6.049   0.717  10.300  2.3142 -0.7503  0.0123
   60SAPC   C15 4577   6.087   0.937  10.442 -0.1123  0.3246  0.0203
   60SAPC  H15A 4578   6.183   0.984  10.424 -0.2502  0.8068  0.5440
   60SAPC  H15B 4579   6.031   0.998  10.511  0.1031  0.0805  0.4090
   60SAPC  H15C 4580   6.112   0.841  10.485 -0.0137 -0.1389 -1.0520
   60SAPC   C11 4581   5.878   1.079  10.153 -0.4170  0.0839 -0.0555
   60SAPC  H11A 4582   5.864   1.002  10.074 -0.9693  1.0852 -0.9475
   60SAPC  H11B 4583   5.907   1.164  10.088  0.5060  0.2869  0.6151
   60SAPC     P 4584   5.705   1.238  10.265 -0.2785 -0.1187  0.4863
   60SAPC   O13 4585   5.588   1.218  10.351 -0.2017 -0.2971 -0.2227
   60SAPC   O14 4586   5.816   1.311  10.328  0.8037 -1.1258  0.0058
   60SAPC   O12 4587   5.760   1.097  10.231  0.7199  0.3706 -0.0496
   60SAPC   O11 4588   5.667   1.307  10.131  0.3162 -0.4356  0.5521
   60SAPC    C1 4589   5.714   1.441  10.096 -0.5017 -0.1727  0.5018
   60SAPC    HA 4590   5.659   1.528  10.139  0.2096  1.0290 -0.9595
   60SAPC    HB 4591   5.822   1.454  10.119 -0.5557 -2.3389  2.0590
   60SAPC    C2 4592   5.702   1.462   9.940 -0.2740 -0.1806 -0.0711
   60SAPC    HS 4593   5.594   1.474   9.918 -0.2000  1.0674  0.2084
   60SAPC   O21 4594   5.752   1.344   9.887 -0.1696 -0.0969  0.3062
   60SAPC   C21 4595   5.670   1.254   9.849  0.1224  0.2178 -0.0528
   60SAPC   O22 4596   5.550   1.264   9.846  0.2646 -0.3226  0.0587
   60SAPC   C22 4597   5.740   1.116   9.806 -0.2046  0.6033 -0.0915
   60SAPC   H2R 4598   5.835   1.139   9.753 -1.4463  2.9084 -1.4152
   60SAPC   H2S 4599   5.770   1.064   9.899  1.8196  1.1589 -0.4114
   60SAPC    C3 4600   5.790   1.573   9.890  0.5217 -0.3554 -0.1682
   60SAPC    HX 4601   5.897   1.563   9.920  0.3752  0.7248  0.7645
   60SAPC    HY 4602   5.741   1.658   9.942 -1.0997 -1.0171 -0.5920
   60SAPC   O31 4603   5.772   1.587   9.749 -0.3161 -0.0683  0.4929
   60SAPC   C31 4604   5.884   1.554   9.680 -0.0156  0.0753  0.7699
   60SAPC   O32 4605   5.989   1.517   9.732  0.4358 -0.3749  0.1263
   60SAPC   C32 4606   5.838   1.554   9.531  0.3599 -0.2776  0.0582
   60SAPC   H2X 4607   5.767   1.639   9.524 -0.2019 -0.5045  2.3621
   60SAPC   H2Y 4608   5.779   1.462   9.516 -2.4096  1.1231  1.9937
   60SAPC   C23 4609   5.660   1.037   9.710 -0.9533 -0.5251 -0.3128
   60SAPC   H3R 4610   5.639   1.100   9.621 -1.2011 -0.1599  0.0036
   60SAPC   H3S 4611   5.559   1.015   9.748  0.4066 -1.9403  2.6041
   60SAPC   C24 4612   5.730   0.900   9.670 -0.2649  0.0055  0.1616
   60SAPC   H4R 4613   5.837   0.923   9.653 -0.9620  3.0899 -0.4169
   60SAPC   H4S 4614   5.695   0.871   9.568  0.4074  1.5418 -0.5281
   60SAPC   C25 4615   5.704   0.769   9.750  0.0398 -0.0152 -0.0048
   60SAPC   H5R 4616   5.685   0.786   9.857  1.6589 -2.1608  0.6854
   60SAPC   C26 4617   5.684   0.645   9.705  0.5949 -0.2784 -0.3265
   60SAPC   H6R 4618   5.665   0.563   9.775 -3.1227 -0.6853 -1.6805
   60SAPC   C27 4619   5.687   0.593   9.558 -0.1805  0.1497  0.0102
   60SAPC   H7R 4620   5.663   0.676   9.488 -2.1070 -0.7450 -0.4232
   60SAPC   H7S 4621   5.595   0.532   9.544 -0.5663  0.6544  0.3462
   60SAPC   C28 4622   5.801   0.508   9.522 -0.7983 -0.0329  0.3430
   60SAPC   H8R 4623   5.814   0.420   9.586  0.1306  1.3381  2.1054
   60SAPC   C29 4624   5.880   0.516   9.417 -0.0495 -0.9187  0.6748
   60SAPC   H9R 4625   5.953   0.434   9.414  1.7294  0.6630 -1.0005
   60SAPC  C210 4626   5.876   0.597   9.292  0.4977  0.5386  0.4378
   60SAPC  H10R 4627   5.917   0.697   9.317  0.6810  0.1168  1.8441
   60SAPC  H10S 4628   5.773   0.600   9.250 -0.6118 -0.7600  2.9823
   60SAPC  C211 4629   5.968   0.546   9.181 -0.0456  0.1192  0.4372
   60SAPC  H11R 4630   6.002   0.443   9.197  0.3598  0.3157  0.8262
   60SAPC  C212 4631   5.996   0.603   9.061 -0.7984  0.6273 -0.2976
   60SAPC  H12R 4632   6.046   0.544   8.983  0.5209  0.8115  0.3909
   60SAPC  C213 4633   5.941   0.731   9.016  0.1690 -0.8637  0.2543
   60SAPC  H13R 4634   6.022   0.807   9.013  0.7786 -1.4321  1.9761
   60SAPC  H13S 4635   5.878   0.778   9.095  0.6919 -0.3935  0.3930
   60SAPC  C214 4636   5.885   0.727   8.880  0.7028 -0.3326 -0.0360
   60SAPC  H14R 4637   5.813   0.645   8.870 -0.6670  1.0713 -1.8179
   60SAPC  C215 4638   5.906   0.815   8.779  0.4492 -0.3581  0.1813
   60SAPC  H15R 4639   5.849   0.797   8.687 -0.7607 -1.2124  1.0803
   60SAPC  C216 4640   5.995   0.941   8.793  0.2104 -0.1418  0.7969
   60SAPC  H16R 4641   6.099   0.911   8.820  0.6309  1.0158  0.5394
   60SAPC  H16S 4642   5.955   1.012   8.869  0.6821 -0.9021  1.7506
   60SAPC  C217 4643   6.002   1.030   8.662 -0.9918 -0.3243  0.5393
   60SAPC  H17R 4644   5.900   1.027   8.618 -0.1823 -2.5241 -1.3144
   60SAPC  H17S 4645   6.069   0.990   8.583 -3.5263 -1.2916 -1.2155
   60SAPC  C218 4646   6.043   1.170   8.705 -0.2903 -0.3399  0.9057
   60SAPC  H18R 4647   6.154   1.170   8.709 -0.1766  0.5356 -1.6191
   60SAPC  H18S 4648   6.000   1.213   8.798 -0.7712 -0.9147  0.9485
   60SAPC  C219 4649   5.995   1.278   8.606 -0.1089  0.8192  0.1956
   60SAPC  H19R 4650   5.885   1.296   8.609 -0.5230 -0.7679 -3.2635
   60SAPC  H19S 4651   5.996   1.242   8.501 -4.4518 -0.3817  0.4751
   60SAPC  C220 4652   6.043   1.421   8.615  0.0968  0.7369 -0.6932
   60SAPC  H20R 4653   5.987   1.490   8.548  1.3329 -1.9736 -4.6964
   60SAPC  H20S 4654   6.151   1.431   8.592  0.1662  0.0654 -0.6823
   60SAPC  H20T 4655   6.036   1.456   8.720  0.5973 -1.4206  0.0944
   60SAPC   C33 4656   5.953   1.553   9.431 -0.5339 -0.1596 -0.1647
   60SAPC   H3X 4657   6.022   1.467   9.444  2.9926  2.2414 -2.1419
   60SAPC   H3Y 4658   6.021   1.640   9.445  0.2027 -0.6103 -0.9048
   60SAPC   C34 4659   5.900   1.542   9.289 -0.5332  0.7947  0.0573
   60SAPC   H4X 4660   5.992   1.536   9.227  0.0988 -0.9470  1.1285
   60SAPC   H4Y 4661   5.842   1.635   9.268 -0.4574  0.8291  0.0009
   60SAPC   C35 4662   5.817   1.420   9.251 -0.1887 -0.6857  0.1511
   60SAPC   H5X 4663   5.717   1.442   9.293  0.0881 -0.8508  0.8973
   60SAPC   H5Y 4664   5.856   1.332   9.306 -0.9263 -1.5922 -0.7581
   60SAPC   C36 4665   5.802   1.383   9.103 -0.6386  0.1382 -0.6745
   60SAPC   H6X 4666   5.729   1.300   9.101 -0.3458 -0.1957  1.2760
   60SAPC   H6Y 4667   5.899   1.342   9.068  1.2129  2.3814  1.5888
   60SAPC   C37 4668   5.763   1.510   9.017 -0.6382 -1.0726 -0.2275
   60SAPC   H7X 4669   5.853   1.576   9.014  0.1314 -2.0912  0.2353
   60SAPC   H7Y 4670   5.678   1.569   9.059 -1.0488 -1.9704  0.2094
   60SAPC   C38 4671   5.724   1.468   8.877 -0.5177 -0.0677 -0.2017
   60SAPC   H8X 4672   5.650   1.385   8.878 -0.3619 -0.2277 -1.3899
   60SAPC   H8Y 4673   5.816   1.422   8.834  0.2363  1.4294 -0.2263
   60SAPC   C39 4674   5.672   1.573   8.778  0.5530  0.2630 -0.6568
   60SAPC   H9X 4675   5.757   1.642   8.761  0.0228  1.6923  2.1555
   60SAPC   H9Y 4676   5.591   1.639   8.818 -0.6831 -3.6075  3.7594
   60SAPC  C310 4677   5.627   1.504   8.649  0.5840  0.1574  0.7383
   60SAPC  H10X 4678   5.535   1.446   8.674  1.7209 -1.5237  1.0781
   60SAPC  H10Y 4679   5.703   1.436   8.605 -0.3680  0.3533 -1.2293
   60SAPC  C311 4680   5.597   1.591   8.522  0.4396 -0.1377  0.5758
   60SAPC  H11X 4681   5.580   1.531   8.430  1.4255 -3.8605  2.7046
   60SAPC  H11Y 4682   5.678   1.665   8.503  1.5001 -2.1222 -2.9674
   60SAPC  C312 4683   5.468   1.670   8.549  0.3515 -0.0678  0.0176
   60SAPC  H12X 4684   5.459   1.705   8.654  0.2216 -0.2390  0.0633
   60SAPC  H12Y 4685   5.375   1.609   8.546  1.2431 -1.4649  0.3422
   60SAPC  C313 4686   5.450   1.786   8.448  0.0454  0.3274 -0.0379
   60SAPC  H13X 4687   5.506   1.758   8.357  1.1335  1.8259  0.1480
   60SAPC  H13Y 4688   5.500   1.877   8.488 -1.6699  1.8294 -1.2265
   60SAPC  C314 4689   5.312   1.826   8.406 -0.5707  0.5498  0.4015
   60SAPC  H14X 4690   5.257   1.743   8.357  1.3905 -1.1613  1.0415
   60SAPC  H14Y 4691   5.316   1.903   8.326  0.4278 -0.6318 -0.7083
   60SAPC  C315 4692   5.215   1.885   8.518 -0.0513 -0.0784  0.0239
   60SAPC  H15X 4693   5.159   1.969   8.471 -1.5594 -1.5098 -0.7888
   60SAPC  H15Y 4694   5.270   1.935   8.601 -0.3326  0.2243  0.0322
   60SAPC  C316 4695   5.125   1.778   8.590 -0.6248 -0.0791  0.4564
   60SAPC  H16X 4696   5.187   1.692   8.621  3.3355  2.3374 -0.4891
   60SAPC  H16Y 4697   5.055   1.726   8.521  0.0387  1.6921 -1.6142
   60SAPC  C317 4698   5.034   1.828   8.708 -0.6531  0.0777 -0.7390
   60SAPC  H17X 4699   5.104   1.846   8.793  0.9111 -0.7266 -1.8368
   60SAPC  H17Y 4700   4.972   1.736   8.715 -0.3281 -0.1480 -0.8092
   60SAPC  C318 4701   4.944   1.949   8.698 -0.1403 -0.4029 -0.3385
   60SAPC  H18X 4702   4.894   1.966   8.796  2.4400 -2.3231  1.3723
   60SAPC  H18Y 4703   4.862   1.929   8.625  0.2019  0.9353 -1.0969
   60SAPC  H18Z 4704   4.999   2.042   8.672 -0.9222  0.4791  1.1148
   61SAPC     N 4705   1.965   7.059   9.766 -0.1722 -0.3675 -0.3142
   61SAPC   C12 4706   1.966   6.923   9.697 -0.0852 -0.4800  0.0174
   61SAPC  H12A 4707   2.058   6.920   9.642 -0.1563 -0.6948 -0.0905
   61SAPC  H12B 4708   1.875   6.923   9.639  1.2271  0.9915 -2.0708
   61SAPC   C13 4709   1.997   7.156   9.663  0.3722 -0.2663 -0.0046
   61SAPC  H13A 4710   2.092   7.138   9.616  0.6037  1.5354 -0.2675
   61SAPC  H13B 4711   1.926   7.155   9.582 -0.8156  1.0475  0.9841
   61SAPC  H13C 4712   2.001   7.255   9.708  1.0781 -0.4540  0.3551
   61SAPC   C14 4713   1.826   7.091   9.820  0.2898  0.3053  0.2267
   61SAPC  H14A 4714   1.786   7.009   9.879 -1.4046  1.6004  0.9170
   61SAPC  H14B 4715   1.822   7.192   9.857  0.0393  0.6870 -0.8303
   61SAPC  H14C 4716   1.755   7.103   9.740 -1.2364 -0.6772  1.3776
   61SAPC   C15 4717   2.063   7.075   9.883  0.2414 -0.2400 -0.2418
   61SAPC  H15A 4718   2.051   7.001   9.961  1.2237  0.2354  0.3622
   61SAPC  H15B 4719   2.164   7.091   9.851 -0.2689  1.2770 -1.1301
   61SAPC  H15C 4720   2.040   7.166   9.935 -0.5022 -0.9627  0.7162
   61SAPC   C11 4721   1.963   6.799   9.790 -0.0121  0.6680 -0.4087
   61SAPC  H11A 4722   2.045   6.797   9.865  1.4584  0.5434 -1.9977
   61SAPC  H11B 4723   1.985   6.714   9.722  0.0744 -1.1965  1.8744
   61SAPC     P 4724   1.710   6.714   9.794 -0.1642  0.3961 -0.2218
   61SAPC   O13 4725   1.701   6.577   9.850 -0.3757 -0.0575  0.4653
   61SAPC   O14 4726   1.594   6.810   9.818  0.8231  0.1030 -0.3335
   61SAPC   O12 4727   1.838   6.789   9.857  0.1725  0.4160  0.8602
   61SAPC   O11 4728   1.739   6.703   9.637 -0.2352  0.1171  0.2461
   61SAPC    C1 4729   1.646   6.628   9.559  0.0675  0.4841  0.1236
   61SAPC    HA 4730   1.685   6.525   9.549  2.1478  1.2448  0.2134
   61SAPC    HB 4731   1.542   6.625   9.598  0.1987  0.3841  0.4712
   61SAPC    C2 4732   1.646   6.693   9.408 -0.3181  0.1560 -0.5396
   61SAPC    HS 4733   1.544   6.665   9.374 -0.9781  0.5536  1.0469
   61SAPC   O21 4734   1.755   6.636   9.335 -0.1278 -0.1834 -0.1242
   61SAPC   C21 4735   1.723   6.518   9.284  0.0376  0.3271 -0.4427
   61SAPC   O22 4736   1.612   6.464   9.294  0.2381  0.1334  0.0181
   61SAPC   C22 4737   1.844   6.464   9.214 -0.4744 -0.3503 -0.1008
   61SAPC   H2R 4738   1.875   6.544   9.144 -1.2319  0.7282  0.7917
   61SAPC   H2S 4739   1.927   6.451   9.287 -1.2772 -1.9530  0.5610
   61SAPC    C3 4740   1.659   6.847   9.406 -0.3646 -0.3789 -0.5807
   61SAPC    HX 4741   1.748   6.885   9.461  0.5259 -1.1896 -1.4508
   61SAPC    HY 4742   1.579   6.899   9.463 -0.2384  0.0521 -0.7926
   61SAPC   O31 4743   1.656   6.897   9.274  0.4778  0.1602  0.7884
   61SAPC   C31 4744   1.775   6.938   9.230  0.2267 -0.2235 -0.3771
   61SAPC   O32 4745   1.879   6.928   9.289 -0.4615 -0.0896 -0.3784
   61SAPC   C32 4746   1.757   7.001   9.089 -0.4695 -0.1946 -0.0176
   61SAPC   H2X 4747   1.840   7.073   9.076 -0.1201 -0.5377  0.2855
   61SAPC   H2Y 4748   1.665   7.061   9.075 -0.9552 -1.2411 -1.3880
   61SAPC   C23 4749   1.826   6.319   9.170 -0.7749  0.8732  0.0357
   61SAPC   H3R 4750   1.792   6.329   9.065 -0.2113 -2.2902 -0.4853
   61SAPC   H3S 4751   1.749   6.270   9.234  0.9754 -2.1664 -0.1122
   61SAPC   C24 4752   1.955   6.238   9.178  0.1105 -0.1868 -0.5866
   61SAPC   H4R 4753   2.007   6.258   9.274 -1.1844 -0.5191  0.2005
   61SAPC   H4S 4754   2.016   6.276   9.094 -1.6347  1.2653 -1.2281
   61SAPC   C25 4755   1.932   6.087   9.163  0.2171 -0.4472 -0.2886
   61SAPC   H5R 4756   1.866   6.057   9.246  0.9013  2.2701  1.2849
   61SAPC   C26 4757   1.966   6.013   9.052 -0.4461 -0.1242 -0.0256
   61SAPC   H6R 4758   1.943   5.906   9.042 -0.7595 -0.0974  0.3915
   61SAPC   C27 4759   2.032   6.074   8.930  0.0976 -1.1497 -0.6240
   61SAPC   H7R 4760   2.113   6.005   8.899  1.2677 -0.3593  0.6685
   61SAPC   H7S 4761   2.093   6.165   8.946  0.5527 -2.2837  5.0514
   61SAPC   C28 4762   1.935   6.098   8.814  0.4319 -0.5795  0.3668
   61SAPC   H8R 4763   1.852   6.028   8.798  0.2835 -0.5910  1.1743
   61SAPC   C29 4764   1.935   6.200   8.727  0.1407 -0.1164 -0.0171
   61SAPC   H9R 4765   1.866   6.212   8.643  1.0506  0.7948 -0.6567
   61SAPC  C210 4766   2.027   6.319   8.733 -0.2844 -0.6690 -0.2232
   61SAPC  H10R 4767   2.073   6.335   8.633  1.5646 -1.0339  0.5414
   61SAPC  H10S 4768   2.122   6.299   8.788  0.3874  4.0511  0.5343
   61SAPC  C211 4769   1.952   6.434   8.792  0.3161  0.0775  0.6037
   61SAPC  H11R 4770   1.907   6.413   8.890 -1.6322  0.5568 -0.1469
   61SAPC  C212 4771   1.927   6.556   8.747  0.6056  1.3803 -0.0406
   61SAPC  H12R 4772   1.880   6.631   8.812  0.7447 -0.5250  2.3280
   61SAPC  C213 4773   1.993   6.611   8.624  1.0370  0.6574  0.2736
   61SAPC  H13R 4774   2.044   6.543   8.552 -1.4604 -0.0469 -0.8700
   61SAPC  H13S 4775   2.078   6.675   8.658  0.4645  1.9748 -0.7075
   61SAPC  C214 4776   1.884   6.686   8.560 -0.2610  0.1688  0.1389
   61SAPC  H14R 4777   1.840   6.766   8.621 -0.2102  0.6440 -0.4327
   61SAPC  C215 4778   1.846   6.671   8.431 -0.3900  0.1415 -0.0289
   61SAPC  H15R 4779   1.766   6.736   8.393  1.2059  1.3991 -1.2594
   61SAPC  C216 4780   1.908   6.587   8.322 -0.3931 -0.6220  0.8198
   61SAPC  H16R 4781   1.842   6.502   8.295 -0.4514 -0.2646 -0.1671
   61SAPC  H16S 4782   2.002   6.541   8.359  0.7802  1.4327  0.4750
   61SAPC  C217 4783   1.926   6.661   8.187  0.7605 -0.2898 -0.1015
   61SAPC  H17R 4784   2.001   6.743   8.199 -0.1362  1.3677 -4.7251
   61SAPC  H17S 4785   1.834   6.709   8.147  0.9585  0.0472 -0.1527
   61SAPC  C218 4786   1.970   6.569   8.071 -0.6414  0.1074  0.3952
   61SAPC  H18R 4787   1.905   6.480   8.087 -1.5236  0.4498 -1.2259
   61SAPC  H18S 4788   2.073   6.531   8.091  0.0868  2.7008  1.7388
   61SAPC  C219 4789   1.971   6.616   7.919 -0.5692  0.5719 -0.3123
   61SAPC  H19R 4790   1.867   6.619   7.879 -0.2074 -2.1879 -1.5491
   61SAPC  H19S 4791   2.021   6.539   7.857  1.9586  1.7184  0.2462
   61SAPC  C220 4792   2.050   6.748   7.900 -0.4231 -0.4819 -0.2574
   61SAPC  H20R 4793   2.126   6.752   7.980 -1.2621  0.2885  0.5004
   61SAPC  H20S 4794   1.983   6.830   7.930  1.7357  0.4364  2.2553
   61SAPC  H20T 4795   2.091   6.759   7.797 -0.8010  0.5358 -0.3013
   61SAPC   C33 4796   1.754   6.883   8.990 -0.2909  0.3198  0.3686
   61SAPC   H3X 4797   1.668   6.817   9.014 -1.4578  1.4755 -0.5597
   61SAPC   H3Y 4798   1.852   6.830   8.993  1.0782  2.7355 -0.2418
   61SAPC   C34 4799   1.731   6.933   8.842 -0.3624  0.0176  0.2489
   61SAPC   H4X 4800   1.646   7.002   8.862 -1.9712 -1.3899 -1.6150
   61SAPC   H4Y 4801   1.701   6.856   8.767  1.8191  0.2303 -0.8766
   61SAPC   C35 4802   1.848   7.006   8.787 -0.0172  0.5070 -0.1089
   61SAPC   H5X 4803   1.922   6.924   8.772 -1.9348 -1.2758  0.0324
   61SAPC   H5Y 4804   1.879   7.072   8.871 -0.4610  1.1959 -0.4796
   61SAPC   C36 4805   1.810   7.089   8.666 -0.0561  0.5378  0.4380
   61SAPC   H6X 4806   1.753   7.180   8.692 -0.8644  0.2645 -0.3509
   61SAPC   H6Y 4807   1.741   7.029   8.602 -0.1321  0.7249  0.3456
   61SAPC   C37 4808   1.926   7.134   8.588  0.9418  0.5327 -0.3534
   61SAPC   H7X 4809   2.002   7.056   8.607 -0.9776 -1.2877  0.0437
   61SAPC   H7Y 4810   1.970   7.225   8.634 -1.0039  0.7598  1.1392
   61SAPC   C38 4811   1.892   7.165   8.450  0.8394 -0.1253  0.6579
   61SAPC   H8X 4812   1.954   7.248   8.410 -2.7688  2.6045  0.4466
   61SAPC   H8Y 4813   1.788   7.204   8.448  1.1284  0.6266  0.0438
   61SAPC   C39 4814   1.912   7.040   8.356 -0.1907 -0.7197  0.1788
   61SAPC   H9X 4815   1.843   6.957   8.384  0.5304 -0.7019  2.1244
   61SAPC   H9Y 4816   2.012   6.997   8.376  0.0153 -0.8764 -1.1861
   61SAPC  C310 4817   1.913   7.079   8.207  0.4266  0.1206 -0.0086
   61SAPC  H10X 4818   1.982   7.008   8.157  1.0084 -0.9675  2.2437
   61SAPC  H10Y 4819   1.959   7.177   8.185 -0.0549 -0.5850 -4.7612
   61SAPC  C311 4820   1.770   7.070   8.143 -0.5552  0.0228 -0.3480
   61SAPC  H11X 4821   1.701   7.136   8.201 -1.3004  0.0677 -1.2706
   61SAPC  H11Y 4822   1.738   6.966   8.165  1.0742  0.1233  2.7605
   61SAPC  C312 4823   1.778   7.109   7.996 -0.3476 -0.4730 -0.3275
   61SAPC  H12X 4824   1.867   7.057   7.954 -0.5912 -2.2282  1.2850
   61SAPC  H12Y 4825   1.784   7.220   7.990  1.5751 -0.6167 -1.8805
   61SAPC  C313 4826   1.647   7.072   7.914  0.6606 -0.3438  0.1276
   61SAPC  H13X 4827   1.563   7.133   7.952  2.2542  1.2958  1.1533
   61SAPC  H13Y 4828   1.627   6.963   7.926 -1.7713  0.0694  0.0630
   61SAPC  C314 4829   1.664   7.094   7.766  0.1634 -0.0873 -0.3502
   61SAPC  H14X 4830   1.761   7.042   7.745  0.1042 -0.9381  1.3864
   61SAPC  H14Y 4831   1.659   7.201   7.738 -2.0024 -0.4698 -1.5678
   61SAPC  C315 4832   1.564   7.027   7.676 -0.1301  0.5126  0.3099
   61SAPC  H15X 4833   1.563   6.920   7.705 -2.3441 -0.4566 -3.0385
   61SAPC  H15Y 4834   1.592   7.037   7.569  0.0794  0.1990  0.3336
   61SAPC  C316 4835   1.416   7.071   7.700  0.8139  0.7014  0.2154
   61SAPC  H16X 4836   1.400   7.180   7.686  1.9746  0.8095 -0.3108
   61SAPC  H16Y 4837   1.394   7.050   7.807  0.2169 -1.2192 -0.2806
   61SAPC  C317 4838   1.318   7.003   7.598  0.2750  0.3785  0.5004
   61SAPC  H17X 4839   1.346   6.896   7.588  0.9440  0.2768  2.9610
   61SAPC  H17Y 4840   1.321   7.044   7.495  2.3185  2.3999  1.3266
   61SAPC  C318 4841   1.178   7.011   7.655  0.3340 -0.1947  0.0003
   61SAPC  H18X 4842   1.143   7.115   7.676 -1.5311 -0.5384 -1.2447
   61SAPC  H18Y 4843   1.167   6.968   7.757 -1.0890 -2.0063 -0.8864
   61SAPC  H18Z 4844   1.098   6.968   7.592  0.5773 -0.5613 -0.0562
   62SAPC     N 4845   1.244   6.242  10.062  0.2336 -0.4690  0.7054
   62SAPC   C12 4846   1.338   6.310   9.959 -0.6865 -0.2330 -0.0301
   62SAPC  H12A 4847   1.418   6.241   9.939  0.9983  1.7726 -0.3829
   62SAPC  H12B 4848   1.380   6.402   9.996 -0.4643 -0.9489  1.5427
   62SAPC   C13 4849   1.119   6.319  10.078  0.0115  0.1328 -0.1531
   62SAPC  H13A 4850   1.072   6.334   9.982  0.1098 -0.6854 -0.3256
   62SAPC  H13B 4851   1.044   6.267  10.135  0.5577 -0.3141  0.1639
   62SAPC  H13C 4852   1.145   6.410  10.130  1.2850 -0.4551  0.2615
   62SAPC   C14 4853   1.212   6.107  10.007  0.1261 -0.1069  0.1441
   62SAPC  H14A 4854   1.292   6.043  10.042  1.2167  0.4656 -1.2397
   62SAPC  H14B 4855   1.121   6.068  10.048  0.4371  0.6283  1.5580
   62SAPC  H14C 4856   1.216   6.108   9.899  2.4996  1.8598  0.1976
   62SAPC   C15 4857   1.316   6.238  10.193  0.0311  0.0208 -0.0778
   62SAPC  H15A 4858   1.258   6.198  10.274  2.0583  0.7322  1.7744
   62SAPC  H15B 4859   1.405   6.176  10.185 -0.7339 -1.2208  0.8894
   62SAPC  H15C 4860   1.339   6.338  10.227  0.2961 -0.9086  2.5597
   62SAPC   C11 4861   1.293   6.350   9.806 -0.0789 -0.0769  0.0499
   62SAPC  H11A 4862   1.265   6.251   9.764  0.6530  0.7303 -2.3961
   62SAPC  H11B 4863   1.381   6.384   9.747  0.1395 -1.4563 -0.4570
   62SAPC     P 4864   1.204   6.595   9.832  0.0113  0.2220 -0.1733
   62SAPC   O13 4865   1.293   6.601   9.953 -0.0260 -0.5011 -0.0044
   62SAPC   O14 4866   1.239   6.661   9.703  0.0835  0.6329 -0.5976
   62SAPC   O12 4867   1.182   6.440   9.804 -0.0735  0.2306  0.3344
   62SAPC   O11 4868   1.057   6.628   9.877  0.5692  0.2885  0.2975
   62SAPC    C1 4869   0.942   6.628   9.788 -0.5180 -0.6634  0.5528
   62SAPC    HA 4870   0.968   6.675   9.691  1.9025  0.6717  1.7921
   62SAPC    HB 4871   0.889   6.531   9.784 -2.0443  0.2313 -2.8424
   62SAPC    C2 4872   0.838   6.739   9.825  0.0778 -0.4359  0.1292
   62SAPC    HS 4873   0.791   6.698   9.917  0.9258 -2.1817 -0.1979
   62SAPC   O21 4874   0.741   6.744   9.721 -0.0236 -0.4618 -0.2678
   62SAPC   C21 4875   0.618   6.785   9.744 -0.2615  0.4820 -0.0464
   62SAPC   O22 4876   0.570   6.792   9.862 -0.4904  0.8829  0.2821
   62SAPC   C22 4877   0.543   6.809   9.611  0.2021 -0.2181  0.4062
   62SAPC   H2R 4878   0.529   6.917   9.587 -1.5180 -0.6521 -0.6091
   62SAPC   H2S 4879   0.600   6.758   9.531 -0.9096 -1.5842  0.4864
   62SAPC    C3 4880   0.886   6.883   9.854 -0.1532  0.0152 -0.6404
   62SAPC    HX 4881   0.962   6.882   9.935  2.1225  3.8838 -2.5708
   62SAPC    HY 4882   0.800   6.934   9.902 -0.5233 -2.3218  1.2700
   62SAPC   O31 4883   0.941   6.944   9.731  0.4103  0.8584 -0.0557
   62SAPC   C31 4884   0.863   7.031   9.663  0.4118 -0.2611  0.2855
   62SAPC   O32 4885   0.749   7.068   9.691 -0.7909  0.4075  0.1063
   62SAPC   C32 4886   0.942   7.097   9.544 -0.4355 -0.0952 -0.2334
   62SAPC   H2X 4887   1.044   7.098   9.588 -1.4984 -0.6250  2.3015
   62SAPC   H2Y 4888   0.902   7.200   9.531 -1.0418 -0.2273  0.5772
   62SAPC   C23 4889   0.404   6.733   9.623 -0.1259 -0.3009  0.6692
   62SAPC   H3R 4890   0.341   6.784   9.699  0.9857  2.5858 -0.2987
   62SAPC   H3S 4891   0.410   6.628   9.657 -0.1095 -0.7732 -0.7469
   62SAPC   C24 4892   0.334   6.727   9.493  0.4999  0.4614  0.6945
   62SAPC   H4R 4893   0.239   6.671   9.491  0.5420  0.4274 -1.1560
   62SAPC   H4S 4894   0.398   6.668   9.424 -0.7606 -1.1567  0.8989
   62SAPC   C25 4895   0.323   6.861   9.433  0.0325 -0.0297 -0.5118
   62SAPC   H5R 4896   0.255   6.922   9.495  0.7435  0.8718 -0.6196
   62SAPC   C26 4897   0.385   6.917   9.323  0.4479 -0.7251 -0.8650
   62SAPC   H6R 4898   0.359   7.020   9.295  2.8759  0.7202  1.8334
   62SAPC   C27 4899   0.483   6.838   9.242 -0.7031  0.9871  0.5562
   62SAPC   H7R 4900   0.547   6.769   9.300 -2.0276  0.0386  0.8964
   62SAPC   H7S 4901   0.559   6.913   9.209 -1.3783 -0.1769 -3.9726
   62SAPC   C28 4902   0.431   6.765   9.122 -0.0704  0.3656 -0.2788
   62SAPC   H8R 4903   0.323   6.769   9.104 -0.4652  0.4110  1.9800
   62SAPC   C29 4904   0.506   6.727   9.013  0.2192  0.1245 -0.3340
   62SAPC   H9R 4905   0.452   6.675   8.932 -0.4903  0.8385 -0.3267
   62SAPC  C210 4906   0.658   6.732   8.994  0.1866 -0.0338 -0.0898
   62SAPC  H10R 4907   0.716   6.732   9.089 -1.7418  2.5870  1.1724
   62SAPC  H10S 4908   0.678   6.828   8.942  2.0950 -1.0891 -1.3213
   62SAPC  C211 4909   0.715   6.629   8.904 -0.4658  0.2322  0.3211
   62SAPC  H11R 4910   0.652   6.539   8.889 -0.7994  0.5405 -0.1483
   62SAPC  C212 4911   0.834   6.625   8.847  0.2408  1.0926 -0.4046
   62SAPC  H12R 4912   0.864   6.537   8.788  0.3669  0.0603  1.1661
   62SAPC  C213 4913   0.933   6.736   8.859  0.9523 -0.1997 -0.2911
   62SAPC  H13R 4914   0.915   6.777   8.960 -0.8300 -4.1925  1.0969
   62SAPC  H13S 4915   0.920   6.819   8.786  0.1589  1.1521  1.3530
   62SAPC  C214 4916   1.079   6.695   8.868 -0.0624 -0.0034 -0.6878
   62SAPC  H14R 4917   1.085   6.594   8.911 -0.8678  1.1487  2.2930
   62SAPC  C215 4918   1.187   6.749   8.817 -0.0936 -0.1575 -0.2574
   62SAPC  H15R 4919   1.286   6.704   8.834  1.6107  2.5917 -2.4812
   62SAPC  C216 4920   1.192   6.882   8.746 -0.4999  0.5165 -0.1178
   62SAPC  H16R 4921   1.269   6.949   8.790 -0.5872 -0.7806  2.0446
   62SAPC  H16S 4922   1.095   6.936   8.754 -0.5354  0.6245 -1.1151
   62SAPC  C217 4923   1.227   6.878   8.597  0.1358 -0.2685  0.6532
   62SAPC  H17R 4924   1.146   6.819   8.550 -0.5892  0.4402  1.0080
   62SAPC  H17S 4925   1.326   6.830   8.582 -0.5573 -0.9372 -2.1014
   62SAPC  C218 4926   1.240   7.012   8.529  0.1068 -0.5812 -0.1994
   62SAPC  H18R 4927   1.149   7.069   8.558  1.0160  0.9382 -0.2640
   62SAPC  H18S 4928   1.240   6.994   8.419  0.8266 -0.0390 -0.2911
   62SAPC  C219 4929   1.358   7.094   8.584 -0.3996  0.1284 -0.6070
   62SAPC  H19R 4930   1.440   7.026   8.617  0.0984  0.3719 -1.3276
   62SAPC  H19S 4931   1.324   7.146   8.677 -0.0443  0.4354 -0.6439
   62SAPC  C220 4932   1.414   7.183   8.478 -0.4281  0.0496 -0.2681
   62SAPC  H20R 4933   1.348   7.271   8.463 -0.2712  0.0451 -0.9967
   62SAPC  H20S 4934   1.431   7.122   8.386 -2.2430  1.6292 -1.6888
   62SAPC  H20T 4935   1.516   7.218   8.503 -0.2229 -1.8701  1.7174
   62SAPC   C33 4936   0.922   7.018   9.416 -0.0719  0.2618  0.1208
   62SAPC   H3X 4937   0.974   7.086   9.345  1.7938  0.9144  2.0470
   62SAPC   H3Y 4938   0.815   7.027   9.386 -0.1392 -3.0682 -0.7770
   62SAPC   C34 4939   0.962   6.870   9.421  0.0134 -0.4753 -0.9834
   62SAPC   H4X 4940   0.935   6.815   9.514  1.6072 -0.3569 -0.4314
   62SAPC   H4Y 4941   1.073   6.872   9.422  0.0434 -1.8287 -0.5477
   62SAPC   C35 4942   0.912   6.791   9.297  0.0059  0.5960 -0.3970
   62SAPC   H5X 4943   0.977   6.795   9.206  0.7171 -0.6104  0.0374
   62SAPC   H5Y 4944   0.812   6.833   9.272  0.2507  1.2855 -0.2145
   62SAPC   C36 4945   0.909   6.639   9.327  0.9184 -0.1804  0.7232
   62SAPC   H6X 4946   0.862   6.595   9.236 -0.2589 -0.1399  1.2997
   62SAPC   H6Y 4947   0.844   6.624   9.416  1.6676  0.2207  1.3436
   62SAPC   C37 4948   1.051   6.592   9.359  0.4167 -0.4380  0.0292
   62SAPC   H7X 4949   1.056   6.559   9.465  2.2739 -2.3329 -0.6031
   62SAPC   H7Y 4950   1.119   6.679   9.348 -0.7827  0.6760  1.2891
   62SAPC   C38 4951   1.100   6.477   9.274  0.5426 -0.6797 -0.3325
   62SAPC   H8X 4952   1.089   6.517   9.171  3.0642 -0.9630 -0.7400
   62SAPC   H8Y 4953   1.027   6.393   9.275 -0.3164  0.0591  0.5408
   62SAPC   C39 4954   1.246   6.446   9.306  0.2852  0.1358  0.4318
   62SAPC   H9X 4955   1.242   6.392   9.403 -0.6061 -0.9214 -0.1796
   62SAPC   H9Y 4956   1.307   6.538   9.322  0.1328  0.2375  0.4212
   62SAPC  C310 4957   1.320   6.364   9.199  0.0056 -0.6566  0.2111
   62SAPC  H10X 4958   1.250   6.288   9.157 -1.1832  0.8803 -0.6526
   62SAPC  H10Y 4959   1.415   6.325   9.241  1.1073  1.3336 -0.3770
   62SAPC  C311 4960   1.363   6.448   9.072  0.3777  0.2147  0.2904
   62SAPC  H11X 4961   1.415   6.543   9.098  0.4273  0.6823 -1.4205
   62SAPC  H11Y 4962   1.269   6.489   9.027  0.6971 -0.3817 -0.9201
   62SAPC  C312 4963   1.441   6.373   8.953 -0.5093 -0.7318 -0.2994
   62SAPC  H12X 4964   1.364   6.302   8.914  1.2992 -1.2529 -3.0924
   62SAPC  H12Y 4965   1.525   6.316   8.998 -0.8168 -0.3802  0.7284
   62SAPC  C313 4966   1.491   6.473   8.844  0.3388 -0.0051  0.0971
   62SAPC  H13X 4967   1.573   6.533   8.891 -0.0065 -1.0191  2.0571
   62SAPC  H13Y 4968   1.414   6.548   8.817 -0.8564 -0.1291  2.9419
   62SAPC  C314 4969   1.539   6.400   8.724 -0.2534  0.1892  0.0709
   62SAPC  H14X 4970   1.464   6.330   8.681  1.6531 -0.2024 -2.7833
   62SAPC  H14Y 4971   1.634   6.345   8.744 -1.4648 -0.8942  3.0586
   62SAPC  C315 4972   1.578   6.491   8.601 -0.7724 -0.7097 -0.0086
   62SAPC  H15X 4973   1.682   6.528   8.613 -0.2859 -2.0842  0.2217
   62SAPC  H15Y 4974   1.508   6.575   8.582 -0.2536 -0.1400  0.5970
   62SAPC  C316 4975   1.581   6.418   8.466  0.5140 -0.4239  0.1066
   62SAPC  H16X 4976   1.611   6.491   8.388  0.3356 -1.9069 -1.3740
   62SAPC  H16Y 4977   1.485   6.375   8.432 -0.5272  1.5334  0.5034
   62SAPC  C317 4978   1.682   6.301   8.470 -0.0736  0.6265 -0.3268
   62SAPC  H17X 4979   1.650   6.229   8.549  0.1631  0.6409 -0.2155
   62SAPC  H17Y 4980   1.776   6.341   8.513 -0.7563  2.8105 -0.7856
   62SAPC  C318 4981   1.695   6.239   8.333  0.0386  0.1160 -0.5549
   62SAPC  H18X 4982   1.778   6.166   8.325  1.2724  1.7255 -3.2936
   62SAPC  H18Y 4983   1.711   6.317   8.255  1.1226 -0.0763 -0.5331
   62SAPC  H18Z 4984   1.600   6.188   8.309  0.0140  0.2093 -0.6552
   63SAPC     N 4985   3.752   4.367   5.730 -0.3897 -0.6358 -0.2206
   63SAPC   C12 4986   3.885   4.427   5.689  0.1518 -0.2232  0.6962
   63SAPC  H12A 4987   3.899   4.406   5.584 -0.4146 -1.8635  0.9254
   63SAPC  H12B 4988   3.967   4.375   5.738  0.7451 -0.3679 -0.4120
   63SAPC   C13 4989   3.708   4.409   5.862  0.5864 -0.2236 -0.1086
   63SAPC  H13A 4990   3.767   4.352   5.932  1.9679  0.5366 -0.6366
   63SAPC  H13B 4991   3.725   4.515   5.879  1.9328 -0.5589  0.6438
   63SAPC  H13C 4992   3.601   4.394   5.868  0.3967  1.1408  0.1031
   63SAPC   C14 4993   3.646   4.410   5.628  0.1523 -0.0058 -0.4246
   63SAPC  H14A 4994   3.545   4.392   5.663  0.2524  1.5345  0.7247
   63SAPC  H14B 4995   3.662   4.515   5.604  2.1434  0.5874  3.2252
   63SAPC  H14C 4996   3.650   4.366   5.529 -0.1940  1.7037 -1.2285
   63SAPC   C15 4997   3.757   4.217   5.727  0.1278  0.2732  0.2284
   63SAPC  H15A 4998   3.833   4.169   5.787  0.3671  2.1484  1.4699
   63SAPC  H15B 4999   3.660   4.172   5.739  0.7646 -1.4916 -1.0082
   63SAPC  H15C 5000   3.768   4.193   5.622 -2.8385  0.5218 -0.2042
   63SAPC   C11 5001   3.912   4.577   5.712  0.4947  0.1623 -0.1887
   63SAPC  H11A 5002   3.819   4.632   5.684 -0.5085 -2.0397 -1.3063
   63SAPC  H11B 5003   3.997   4.618   5.654  1.6115 -0.2890  1.0899
   63SAPC     P 5004   3.944   4.748   5.907  0.1068  0.0713 -0.1827
   63SAPC   O13 5005   4.082   4.776   5.949  0.2172 -0.1889  0.0574
   63SAPC   O14 5006   3.881   4.843   5.812  0.2084  0.3599  0.3810
   63SAPC   O12 5007   3.939   4.595   5.851 -0.1866 -0.2254  0.7013
   63SAPC   O11 5008   3.862   4.741   6.034  0.8673 -0.4241  0.3030
   63SAPC    C1 5009   3.880   4.631   6.123 -0.1078  0.2695 -0.6830
   63SAPC    HA 5010   3.839   4.537   6.080 -1.5345  1.2349 -1.4500
   63SAPC    HB 5011   3.988   4.617   6.145 -0.2211 -1.3871 -1.1405
   63SAPC    C2 5012   3.808   4.654   6.255  0.3037  0.4150  0.3968
   63SAPC    HS 5013   3.704   4.691   6.239 -0.2747 -1.9259 -1.7112
   63SAPC   O21 5014   3.882   4.750   6.331  0.5732  0.3152 -0.1895
   63SAPC   C21 5015   3.804   4.806   6.428  0.1478  0.1400  0.2930
   63SAPC   O22 5016   3.689   4.773   6.452 -0.7191  0.0613 -0.4152
   63SAPC   C22 5017   3.888   4.891   6.519 -0.0487 -0.4566  0.6272
   63SAPC   H2R 5018   3.969   4.944   6.464 -0.6186  0.7104  0.8928
   63SAPC   H2S 5019   3.823   4.972   6.558 -0.7138 -0.6397 -0.0903
   63SAPC    C3 5020   3.801   4.519   6.333  0.0821 -0.5403  1.2526
   63SAPC    HX 5021   3.756   4.444   6.263 -0.0997  0.1344  0.6435
   63SAPC    HY 5022   3.729   4.538   6.415 -0.7187  1.0108  0.2016
   63SAPC   O31 5023   3.929   4.474   6.382  0.4297 -0.2263 -0.1503
   63SAPC   C31 5024   3.924   4.342   6.404 -0.1693  0.2107 -0.6840
   63SAPC   O32 5025   3.831   4.266   6.379 -0.7365  0.0674  0.1319
   63SAPC   C32 5026   4.064   4.316   6.470  0.5070 -0.7240  0.4874
   63SAPC   H2X 5027   4.080   4.397   6.544 -0.8595 -0.9026  0.9877
   63SAPC   H2Y 5028   4.142   4.344   6.396  2.3528 -1.8939  1.9286
   63SAPC   C23 5029   3.942   4.806   6.636 -0.0113 -0.1840  0.0661
   63SAPC   H3R 5030   4.034   4.858   6.670 -0.6606  1.0476 -0.0277
   63SAPC   H3S 5031   3.952   4.698   6.610 -0.2005  0.1775 -1.5679
   63SAPC   C24 5032   3.855   4.814   6.763  0.0290 -0.8005  0.0347
   63SAPC   H4R 5033   3.751   4.791   6.734 -1.3044  3.4922  0.9655
   63SAPC   H4S 5034   3.851   4.921   6.794 -1.1765 -1.1199  1.0273
   63SAPC   C25 5035   3.905   4.730   6.876  0.0623  0.1025 -0.2205
   63SAPC   H5R 5036   3.857   4.632   6.875 -0.0525  0.1559 -2.4624
   63SAPC   C26 5037   3.992   4.759   6.975  0.1031  0.0343 -0.3494
   63SAPC   H6R 5038   4.031   4.676   7.036  0.9469  1.6604  1.3940
   63SAPC   C27 5039   4.069   4.886   7.005  0.4762  0.0158 -0.3804
   63SAPC   H7R 5040   4.113   4.898   7.107  0.6720  2.1142 -0.7010
   63SAPC   H7S 5041   3.984   4.954   7.024  0.6847 -0.1883  1.4560
   63SAPC   C28 5042   4.156   4.946   6.903 -0.3279 -0.3344  0.8732
   63SAPC   H8R 5043   4.125   5.043   6.862 -0.5228 -1.8205 -2.6638
   63SAPC   C29 5044   4.264   4.892   6.843 -1.1033 -0.0766  0.3271
   63SAPC   H9R 5045   4.313   4.938   6.756  1.6489 -2.1127  0.7273
   63SAPC  C210 5046   4.321   4.758   6.879  0.6900 -0.3881 -0.0052
   63SAPC  H10R 5047   4.289   4.718   6.978  2.7741 -1.0335  0.4201
   63SAPC  H10S 5048   4.431   4.774   6.882  0.8620 -1.8005  3.6066
   63SAPC  C211 5049   4.285   4.661   6.771 -0.2582  0.2072  0.6824
   63SAPC  H11R 5050   4.179   4.630   6.771 -0.1153 -0.3342 -1.3334
   63SAPC  C212 5051   4.361   4.597   6.680  0.4118 -0.1480 -0.2965
   63SAPC  H12R 5052   4.307   4.525   6.616 -0.2490 -0.6285  0.7898
   63SAPC  C213 5053   4.513   4.609   6.665  0.1808  0.2219  0.2948
   63SAPC  H13R 5054   4.559   4.610   6.766  1.1226  0.8165 -0.1250
   63SAPC  H13S 5055   4.536   4.712   6.629  0.5184  0.0358 -0.0213
   63SAPC  C214 5056   4.581   4.510   6.572  0.3162 -0.7867 -0.3080
   63SAPC  H14R 5057   4.639   4.561   6.495  1.0291 -1.1512 -0.0139
   63SAPC  C215 5058   4.583   4.377   6.574  0.0471  0.2876  0.4049
   63SAPC  H15R 5059   4.632   4.318   6.495  0.4600  1.1053  0.0459
   63SAPC  C216 5060   4.515   4.291   6.678 -0.2358  0.2046  0.6244
   63SAPC  H16R 5061   4.413   4.325   6.705  0.5582  1.2871  2.3633
   63SAPC  H16S 5062   4.572   4.296   6.773 -0.4085  3.1383  0.6210
   63SAPC  C217 5063   4.503   4.148   6.625 -0.0288  0.2824  1.1989
   63SAPC  H17R 5064   4.594   4.084   6.615  0.7081  1.4368  0.4648
   63SAPC  H17S 5065   4.453   4.158   6.526  2.1243 -2.5202 -0.2413
   63SAPC  C218 5066   4.412   4.061   6.712  0.2789 -0.0692 -0.8132
   63SAPC  H18R 5067   4.319   4.120   6.726  0.4115 -0.0346 -0.0639
   63SAPC  H18S 5068   4.466   4.054   6.809 -1.9452  0.4423  0.5055
   63SAPC  C219 5069   4.389   3.928   6.651 -0.1492  0.1704 -0.1431
   63SAPC  H19R 5070   4.490   3.887   6.669  0.3019  1.5815  0.6534
   63SAPC  H19S 5071   4.368   3.952   6.544  0.7607  1.5080 -0.0324
   63SAPC  C220 5072   4.292   3.831   6.724 -0.0787 -0.1850 -0.1896
   63SAPC  H20R 5073   4.319   3.802   6.827  1.1701  2.3690  0.2412
   63SAPC  H20S 5074   4.273   3.737   6.668 -1.1767  0.2652 -0.5927
   63SAPC  H20T 5075   4.193   3.882   6.721 -1.0752 -2.0475  0.2202
   63SAPC   C33 5076   4.088   4.170   6.527  0.1348 -0.7945 -0.2393
   63SAPC   H3X 5077   4.193   4.162   6.562  0.0040  2.1102  0.9126
   63SAPC   H3Y 5078   4.074   4.101   6.441 -0.5355 -0.2234 -0.5923
   63SAPC   C34 5079   3.985   4.133   6.635 -0.4081 -0.0885 -0.0373
   63SAPC   H4X 5080   3.994   4.027   6.668  1.9633 -0.5565 -2.0431
   63SAPC   H4Y 5081   3.886   4.135   6.585 -0.1376 -0.5943 -0.5947
   63SAPC   C35 5082   3.978   4.233   6.753  0.3925  0.6528  0.5226
   63SAPC   H5X 5083   3.891   4.203   6.816 -1.6708 -0.0514 -2.5624
   63SAPC   H5Y 5084   3.945   4.331   6.714  1.1024  1.2907  1.5150
   63SAPC   C36 5085   4.114   4.251   6.826 -0.3522 -0.5127 -0.0321
   63SAPC   H6X 5086   4.189   4.280   6.749  0.6024 -1.0416  0.6778
   63SAPC   H6Y 5087   4.144   4.159   6.881  1.2116  0.5830  1.0130
   63SAPC   C37 5088   4.121   4.369   6.927  0.6061 -0.5880 -0.2938
   63SAPC   H7X 5089   4.060   4.346   7.017 -1.9440  1.5218 -1.4469
   63SAPC   H7Y 5090   4.087   4.457   6.869 -0.4554 -1.3722 -0.8739
   63SAPC   C38 5091   4.269   4.384   6.977 -0.5630  0.4293  0.2809
   63SAPC   H8X 5092   4.339   4.410   6.896 -0.9454  2.9146  0.7119
   63SAPC   H8Y 5093   4.315   4.288   7.010  3.3605  1.7991 -0.9550
   63SAPC   C39 5094   4.277   4.474   7.100  0.0518  0.4979 -0.0349
   63SAPC   H9X 5095   4.242   4.418   7.189 -1.2363 -0.9230 -1.4091
   63SAPC   H9Y 5096   4.215   4.565   7.088  0.3706  0.7603  0.2992
   63SAPC  C310 5097   4.422   4.512   7.125 -0.0995  0.0479 -0.3192
   63SAPC  H10X 5098   4.467   4.565   7.038 -0.2405 -0.6242 -0.8110
   63SAPC  H10Y 5099   4.476   4.420   7.152  1.4080  1.1406  0.4346
   63SAPC  C311 5100   4.429   4.613   7.244  0.1386 -0.3172  0.3245
   63SAPC  H11X 5101   4.374   4.587   7.337  0.1017  2.3886  1.0884
   63SAPC  H11Y 5102   4.375   4.707   7.219  1.3146 -0.4648 -3.0599
   63SAPC  C312 5103   4.571   4.661   7.273 -0.4296  0.0877 -0.0801
   63SAPC  H12X 5104   4.598   4.725   7.186 -1.5468  3.4306  1.9283
   63SAPC  H12Y 5105   4.629   4.567   7.269  0.2353  0.5403 -1.4173
   63SAPC  C313 5106   4.571   4.745   7.404  0.0329 -0.7539 -0.3307
   63SAPC  H13X 5107   4.469   4.780   7.432 -0.3706 -1.8124 -0.4583
   63SAPC  H13Y 5108   4.637   4.833   7.388 -2.7014  1.5151  0.5631
   63SAPC  C314 5109   4.632   4.664   7.525 -0.2192 -0.2764  0.0798
   63SAPC  H14X 5110   4.735   4.628   7.503  0.8377  1.0695  2.6362
   63SAPC  H14Y 5111   4.560   4.583   7.549 -1.6275  1.2085  0.8800
   63SAPC  C315 5112   4.655   4.739   7.652 -0.2567 -0.0083 -0.3343
   63SAPC  H15X 5113   4.671   4.662   7.730 -1.2371 -2.1917 -2.2359
   63SAPC  H15Y 5114   4.562   4.794   7.677 -0.9868 -0.7749 -1.3155
   63SAPC  C316 5115   4.778   4.823   7.634 -0.3533 -0.6190 -0.4283
   63SAPC  H16X 5116   4.749   4.889   7.549  0.9411 -0.6852 -0.9232
   63SAPC  H16Y 5117   4.855   4.747   7.610  1.0384 -0.0722  2.0882
   63SAPC  C317 5118   4.816   4.892   7.756 -0.0862  0.2555  0.2815
   63SAPC  H17X 5119   4.915   4.936   7.730  0.4490  0.3926  2.4496
   63SAPC  H17Y 5120   4.827   4.831   7.848  1.0399 -0.3622 -0.2505
   63SAPC  C318 5121   4.716   5.002   7.795  0.0012 -0.5256 -0.5862
   63SAPC  H18X 5122   4.676   5.050   7.703  0.8797  0.5201 -0.4499
   63SAPC  H18Y 5123   4.768   5.073   7.863 -1.3944 -1.7925  1.8325
   63SAPC  H18Z 5124   4.645   4.950   7.862  0.6668 -0.9224 -0.1827
   64SAPC     N 5125   2.988   6.066   5.604  0.3784  0.4411 -0.0592
   64SAPC   C12 5126   3.115   6.094   5.678  0.4119 -0.5370 -0.4967
   64SAPC  H12A 5127   3.107   6.188   5.731  0.2410  0.2456 -1.8864
   64SAPC  H12B 5128   3.197   6.092   5.608  0.6240 -0.5363 -0.2476
   64SAPC   C13 5129   2.991   5.944   5.518 -0.3339  0.4791 -0.0382
   64SAPC  H13A 5130   3.061   5.953   5.436  0.4293 -1.3707  0.3753
   64SAPC  H13B 5131   3.011   5.859   5.581  1.2997  3.1295  3.1751
   64SAPC  H13C 5132   2.894   5.930   5.472  0.1327 -2.1885 -0.2750
   64SAPC   C14 5133   2.875   6.062   5.703  0.6854  0.7602 -0.6175
   64SAPC  H14A 5134   2.859   5.967   5.753  1.2114  0.8976 -0.1816
   64SAPC  H14B 5135   2.890   6.129   5.786  0.0989 -1.4911  1.3636
   64SAPC  H14C 5136   2.780   6.085   5.657  0.6878  0.0196 -1.0158
   64SAPC   C15 5137   2.963   6.185   5.513 -0.0072 -0.1054 -0.6224
   64SAPC  H15A 5138   3.056   6.182   5.457 -0.3219  0.9075 -1.2119
   64SAPC  H15B 5139   2.882   6.162   5.445  2.0314 -3.5466 -2.0073
   64SAPC  H15C 5140   2.959   6.277   5.570 -1.4979 -0.4698 -0.1195
   64SAPC   C11 5141   3.148   5.992   5.780 -0.1170  0.1693  0.0965
   64SAPC  H11A 5142   3.178   5.899   5.728 -1.4305 -0.0016 -0.3643
   64SAPC  H11B 5143   3.060   5.966   5.843 -1.2344 -2.1640 -2.3561
   64SAPC     P 5144   3.201   6.151   5.972 -0.1870 -0.1135 -0.0100
   64SAPC   O13 5145   3.187   6.276   5.896  0.1616 -0.1527 -0.0465
   64SAPC   O14 5146   3.085   6.111   6.054 -0.2500  0.2100  0.2428
   64SAPC   O12 5147   3.244   6.031   5.879  0.8671 -0.2973  0.2970
   64SAPC   O11 5148   3.327   6.157   6.061 -0.1277 -0.3433  0.4910
   64SAPC    C1 5149   3.460   6.142   6.021  0.1142  0.0555 -0.2362
   64SAPC    HA 5150   3.512   6.123   6.117 -1.9885  0.6533  1.0467
   64SAPC    HB 5151   3.470   6.050   5.959 -1.4346 -0.9986  1.0463
   64SAPC    C2 5152   3.530   6.268   5.966 -0.8296  0.0889 -0.1385
   64SAPC    HS 5153   3.496   6.276   5.861 -3.4617  0.6180  0.7127
   64SAPC   O21 5154   3.672   6.237   5.966 -0.1567  0.2660  0.6587
   64SAPC   C21 5155   3.725   6.167   5.871  1.2123  0.6284  0.0784
   64SAPC   O22 5156   3.665   6.125   5.773 -0.5218 -0.2682 -0.2365
   64SAPC   C22 5157   3.869   6.147   5.911 -0.1943 -0.1630 -0.3478
   64SAPC   H2R 5158   3.936   6.121   5.826 -0.0386  1.6245 -0.7881
   64SAPC   H2S 5159   3.913   6.243   5.945 -1.0515  1.1876 -2.9775
   64SAPC    C3 5160   3.502   6.393   6.056  0.0127  0.7033 -0.2019
   64SAPC    HX 5161   3.399   6.425   6.030 -1.2490 -2.7139  0.3770
   64SAPC    HY 5162   3.568   6.472   6.012 -1.3142  1.7757 -0.2958
   64SAPC   O31 5163   3.516   6.377   6.202 -0.5010 -0.1124  0.1693
   64SAPC   C31 5164   3.514   6.491   6.266  0.2828 -0.0295 -0.1324
   64SAPC   O32 5165   3.460   6.591   6.219 -0.9446  0.0529  0.2354
   64SAPC   C32 5166   3.590   6.483   6.405 -0.0719  0.2335  0.6251
   64SAPC   H2X 5167   3.612   6.377   6.430 -0.6899  0.0246  0.2978
   64SAPC   H2Y 5168   3.514   6.517   6.478  0.0491  0.4717  0.6397
   64SAPC   C23 5169   3.891   6.051   6.033  0.0082 -0.3483  1.2953
   64SAPC   H3R 5170   3.999   6.029   6.041  0.5631  0.8358 -2.0288
   64SAPC   H3S 5171   3.847   5.951   6.015  0.9425 -0.2249 -1.9387
   64SAPC   C24 5172   3.862   6.097   6.180  0.1653 -0.0455 -0.5180
   64SAPC   H4R 5173   3.752   6.114   6.187  0.3752  0.5028  1.7336
   64SAPC   H4S 5174   3.909   6.192   6.212 -1.1506 -0.5390  3.0432
   64SAPC   C25 5175   3.900   5.990   6.280  0.7097  0.1464  0.6054
   64SAPC   H5R 5176   4.001   5.954   6.255  0.7166  0.3883  0.2784
   64SAPC   C26 5177   3.822   5.935   6.372 -0.0530 -0.3818  0.4260
   64SAPC   H6R 5178   3.866   5.854   6.432  0.1912 -2.5605 -2.5428
   64SAPC   C27 5179   3.676   5.960   6.398 -0.3340 -0.7231  0.2809
   64SAPC   H7R 5180   3.629   5.913   6.309  1.3649  0.0760 -1.0707
   64SAPC   H7S 5181   3.663   6.070   6.402 -0.3837 -0.7466  0.8512
   64SAPC   C28 5182   3.635   5.896   6.526  0.4667 -0.4952 -0.2742
   64SAPC   H8R 5183   3.570   5.808   6.515 -0.5183  0.4934 -2.6240
   64SAPC   C29 5184   3.672   5.933   6.649  0.2719  0.8442  0.4039
   64SAPC   H9R 5185   3.635   5.879   6.737 -1.7957  2.1788  0.3832
   64SAPC  C210 5186   3.754   6.056   6.675 -0.1626  0.2493 -0.2833
   64SAPC  H10R 5187   3.694   6.132   6.730  0.1202 -1.2982  2.2620
   64SAPC  H10S 5188   3.782   6.115   6.585 -0.1741  1.1963  0.3196
   64SAPC  C211 5189   3.871   6.025   6.758 -1.4590  0.3554 -0.0582
   64SAPC  H11R 5190   3.961   5.998   6.701  0.3819 -2.1498  3.8483
   64SAPC  C212 5191   3.886   6.029   6.896 -0.1676 -0.6176 -0.5710
   64SAPC  H12R 5192   3.981   6.005   6.944 -0.5460  0.4813  0.7563
   64SAPC  C213 5193   3.786   6.079   6.996  0.6620 -0.0710 -0.8090
   64SAPC  H13R 5194   3.718   5.994   7.021  2.9953 -2.3941 -2.0511
   64SAPC  H13S 5195   3.717   6.158   6.959  0.1290 -0.8586 -1.5298
   64SAPC  C214 5196   3.843   6.131   7.122 -0.7532  0.6234  0.3100
   64SAPC  H14R 5197   3.883   6.233   7.118 -0.1017  0.4004  0.8639
   64SAPC  C215 5198   3.850   6.065   7.239  0.5373  0.1343 -0.1765
   64SAPC  H15R 5199   3.877   6.127   7.325  0.1742 -1.6237  1.2460
   64SAPC  C216 5200   3.812   5.922   7.269 -1.3076 -0.6207  0.0007
   64SAPC  H16R 5201   3.808   5.859   7.178  0.9618 -0.4764 -0.2349
   64SAPC  H16S 5202   3.718   5.901   7.325  0.2610 -2.2095  2.1322
   64SAPC  C217 5203   3.931   5.860   7.347 -0.7211 -0.0229  1.1962
   64SAPC  H17R 5204   4.028   5.875   7.295 -1.1899  0.0018  0.3238
   64SAPC  H17S 5205   3.920   5.749   7.350 -2.6991  0.1433  0.8456
   64SAPC  C218 5206   3.927   5.925   7.491 -0.4315 -0.0096 -0.4474
   64SAPC  H18R 5207   3.827   5.924   7.539  0.1646  0.2709  0.8513
   64SAPC  H18S 5208   3.949   6.033   7.477  0.0976  0.1941  1.7404
   64SAPC  C219 5209   4.037   5.875   7.586  0.1874 -0.1607 -0.4326
   64SAPC  H19R 5210   4.010   5.772   7.617  1.0499 -0.0288  0.7911
   64SAPC  H19S 5211   4.039   5.935   7.679 -2.6841 -1.2391  0.3760
   64SAPC  C220 5212   4.178   5.870   7.521 -0.5571  0.2545  0.2268
   64SAPC  H20R 5213   4.251   5.848   7.603 -1.1108 -1.5548  0.2508
   64SAPC  H20S 5214   4.201   5.968   7.475 -0.7547  0.5962  0.8409
   64SAPC  H20T 5215   4.205   5.790   7.449  1.1896 -1.3488  2.5524
   64SAPC   C33 5216   3.706   6.584   6.417  0.2986  0.1840 -0.3062
   64SAPC   H3X 5217   3.659   6.685   6.431 -1.0778 -0.1327 -2.3555
   64SAPC   H3Y 5218   3.756   6.595   6.319 -1.1225  0.5540 -1.0108
   64SAPC   C34 5219   3.812   6.548   6.522  0.3166 -0.2733  0.5669
   64SAPC   H4X 5220   3.899   6.616   6.507 -0.3514  0.3392 -0.5908
   64SAPC   H4Y 5221   3.845   6.443   6.506  3.1238  0.1777  2.8133
   64SAPC   C35 5222   3.753   6.564   6.660  0.4671  0.3971  0.2571
   64SAPC   H5X 5223   3.670   6.492   6.673  0.5429  0.2474 -0.0963
   64SAPC   H5Y 5224   3.717   6.668   6.676 -1.3179 -0.2973  0.8406
   64SAPC   C36 5225   3.853   6.538   6.776  0.2814  0.6201  0.6272
   64SAPC   H6X 5226   3.934   6.612   6.760 -0.1535  0.2377 -3.9590
   64SAPC   H6Y 5227   3.890   6.434   6.759  2.0157  1.4509 -0.8962
   64SAPC   C37 5228   3.789   6.565   6.913 -0.0062  0.2749 -0.0167
   64SAPC   H7X 5229   3.690   6.515   6.922  0.7861 -1.8499 -2.3703
   64SAPC   H7Y 5230   3.754   6.670   6.910 -1.6683 -0.2592 -0.0069
   64SAPC   C38 5231   3.890   6.539   7.032  0.5536 -0.0676 -0.1029
   64SAPC   H8X 5232   3.973   6.612   7.033 -0.2987  0.9488  2.7564
   64SAPC   H8Y 5233   3.936   6.443   7.003  1.7098  0.0091  1.3911
   64SAPC   C39 5234   3.828   6.542   7.164 -0.3398 -0.3997  0.1049
   64SAPC   H9X 5235   3.730   6.491   7.160 -1.6806  2.2513 -2.9809
   64SAPC   H9Y 5236   3.810   6.649   7.190  0.0961 -0.3884  0.3679
   64SAPC  C310 5237   3.913   6.483   7.275 -0.1729 -0.1621  0.2065
   64SAPC  H10X 5238   4.001   6.546   7.296  2.1868 -3.0910 -0.4624
   64SAPC  H10Y 5239   3.949   6.382   7.246 -1.1764 -1.1573  2.3215
   64SAPC  C311 5240   3.840   6.464   7.408  0.8280  0.1997 -1.0530
   64SAPC  H11X 5241   3.915   6.427   7.481  1.6434  2.0602 -0.9271
   64SAPC  H11Y 5242   3.762   6.385   7.401 -0.0942  0.8692  1.4814
   64SAPC  C312 5243   3.776   6.585   7.478  0.4394 -0.2335 -0.9606
   64SAPC  H12X 5244   3.697   6.633   7.416  0.2357  0.3304 -0.2750
   64SAPC  H12Y 5245   3.853   6.663   7.491  0.6159 -0.9774  2.9185
   64SAPC  C313 5246   3.716   6.551   7.613 -0.2958 -0.3713  0.0422
   64SAPC  H13X 5247   3.703   6.645   7.671 -1.1388  0.0844 -0.8638
   64SAPC  H13Y 5248   3.789   6.492   7.672  0.7470 -0.1084 -0.9794
   64SAPC  C314 5249   3.586   6.475   7.619  0.6679 -0.4742  0.4259
   64SAPC  H14X 5250   3.588   6.385   7.553  1.6487 -1.1996  1.4232
   64SAPC  H14Y 5251   3.511   6.542   7.571  1.8397 -0.1467 -0.9975
   64SAPC  C315 5252   3.524   6.423   7.746 -0.0207  0.2843  0.4295
   64SAPC  H15X 5253   3.550   6.498   7.825  1.5709 -0.3012  0.4885
   64SAPC  H15Y 5254   3.565   6.321   7.766 -1.5791 -0.8415 -1.9315
   64SAPC  C316 5255   3.371   6.414   7.740  0.7280  0.1937 -0.0083
   64SAPC  H16X 5256   3.341   6.359   7.648  0.4720 -2.8948  1.8288
   64SAPC  H16Y 5257   3.326   6.515   7.739  0.6429  0.1718  0.9432
   64SAPC  C317 5258   3.322   6.338   7.863  0.3448  0.6280  0.0087
   64SAPC  H17X 5259   3.367   6.236   7.860 -0.1824  0.4275 -1.2466
   64SAPC  H17Y 5260   3.213   6.328   7.844  0.2435 -0.6295  1.1392
   64SAPC  C318 5261   3.327   6.407   7.998  0.6542 -0.2083  0.0431
   64SAPC  H18X 5262   3.275   6.505   7.990  0.2666 -0.2550  1.7836
   64SAPC  H18Y 5263   3.430   6.421   8.036  0.6287  1.1831 -0.3841
   64SAPC  H18Z 5264   3.265   6.354   8.074 -0.1387  0.7148  0.0541
   65SAPC     N 5265   4.779   6.631   5.951 -0.2537 -0.0865  0.0153
   65SAPC   C12 5266   4.888   6.535   5.991  0.0603  0.3664  0.5729
   65SAPC  H12A 5267   4.980   6.590   5.982 -0.0363  0.9385  2.7095
   65SAPC  H12B 5268   4.897   6.465   5.909  1.5232 -0.7346  1.6465
   65SAPC   C13 5269   4.759   6.719   6.069 -0.3271  0.7395 -0.5106
   65SAPC  H13A 5270   4.657   6.755   6.061  0.1305  1.7420 -2.0790
   65SAPC  H13B 5271   4.772   6.655   6.155 -0.6034  2.2581  0.6838
   65SAPC  H13C 5272   4.830   6.801   6.065  0.9011 -0.2447  0.7268
   65SAPC   C14 5273   4.825   6.718   5.835 -0.3839  1.0962  0.3672
   65SAPC  H14A 5274   4.929   6.747   5.846  0.3368 -1.0388 -0.4773
   65SAPC  H14B 5275   4.830   6.662   5.743 -1.8497 -0.0066  0.9486
   65SAPC  H14C 5276   4.766   6.806   5.814  1.8197  2.3165 -0.9700
   65SAPC   C15 5277   4.650   6.557   5.918 -0.9908 -0.0767  0.6292
   65SAPC  H15A 5278   4.618   6.486   5.994  0.4913 -1.4005  0.0315
   65SAPC  H15B 5279   4.572   6.631   5.926 -0.2411  1.0335 -1.9915
   65SAPC  H15C 5280   4.653   6.516   5.818  0.2459 -1.6947  1.3050
   65SAPC   C11 5281   4.886   6.470   6.130 -0.2744 -0.4354  0.4578
   65SAPC  H11A 5282   4.899   6.540   6.215  2.8767  1.5523 -1.5330
   65SAPC  H11B 5283   4.980   6.411   6.137  0.9709  1.4402  0.0848
   65SAPC     P 5284   4.756   6.255   6.221 -0.2526 -0.1822  0.5061
   65SAPC   O13 5285   4.621   6.196   6.195  0.0297 -0.2731 -0.9240
   65SAPC   O14 5286   4.878   6.184   6.177 -0.1130 -0.1367 -0.1298
   65SAPC   O12 5287   4.761   6.406   6.157 -0.0270  0.0976  0.4745
   65SAPC   O11 5288   4.778   6.293   6.373  0.3873 -1.0013  0.1972
   65SAPC    C1 5289   4.675   6.359   6.454  0.3322 -0.1212  0.3842
   65SAPC    HA 5290   4.576   6.312   6.438  0.4855  0.0458 -1.1285
   65SAPC    HB 5291   4.691   6.334   6.561 -0.5716 -0.1266  0.5265
   65SAPC    C2 5292   4.687   6.509   6.452  0.1552 -0.1402 -0.0006
   65SAPC    HS 5293   4.678   6.547   6.348 -1.8569 -0.0266  0.1851
   65SAPC   O21 5294   4.817   6.549   6.503 -0.1392 -0.1600 -0.2093
   65SAPC   C21 5295   4.848   6.673   6.491 -0.7374  0.3716  0.1843
   65SAPC   O22 5296   4.788   6.754   6.413  0.0843 -0.3235  0.1918
   65SAPC   C22 5297   4.969   6.697   6.569 -0.3447 -0.4556 -0.3822
   65SAPC   H2R 5298   4.959   6.635   6.661 -1.8056 -0.7893 -0.7440
   65SAPC   H2S 5299   5.058   6.650   6.522  0.3013  1.2898 -0.9122
   65SAPC    C3 5300   4.567   6.565   6.539 -0.2208 -0.1410 -0.4663
   65SAPC    HX 5301   4.478   6.552   6.473  0.3288  0.6098 -1.3679
   65SAPC    HY 5302   4.577   6.674   6.559  0.9746 -0.4102  0.4259
   65SAPC   O31 5303   4.543   6.488   6.660 -0.1875  0.3159  0.3035
   65SAPC   C31 5304   4.637   6.511   6.746  0.4104 -0.4839 -0.2207
   65SAPC   O32 5305   4.693   6.620   6.753  0.1861 -0.3377 -0.4090
   65SAPC   C32 5306   4.639   6.396   6.846 -0.3729  0.1539  0.0716
   65SAPC   H2X 5307   4.651   6.303   6.787 -1.5704  0.0709 -0.0576
   65SAPC   H2Y 5308   4.543   6.394   6.902 -0.1712  2.3825  0.5577
   65SAPC   C23 5309   5.008   6.843   6.597 -0.8117 -0.9549 -0.4346
   65SAPC   H3R 5310   4.996   6.916   6.515  3.2519 -0.7044 -0.9088
   65SAPC   H3S 5311   5.116   6.830   6.622 -0.7410 -1.8315 -1.1475
   65SAPC   C24 5312   4.942   6.906   6.727 -0.9042  0.0863  0.3195
   65SAPC   H4R 5313   4.938   6.834   6.812  0.3726 -0.2024  0.1475
   65SAPC   H4S 5314   4.832   6.922   6.718 -0.7825  0.7266 -0.0298
   65SAPC   C25 5315   5.017   7.033   6.760  0.4650  0.6658 -0.2442
   65SAPC   H5R 5316   5.010   7.111   6.683 -0.4545  1.1439  0.3122
   65SAPC   C26 5317   5.093   7.049   6.872 -0.4318 -0.0994  0.8588
   65SAPC   H6R 5318   5.150   7.141   6.886  0.3756 -0.5548  0.6053
   65SAPC   C27 5319   5.126   6.941   6.963  0.0480 -0.4516 -0.1192
   65SAPC   H7R 5320   5.172   6.855   6.908  0.8156  0.2988 -0.6671
   65SAPC   H7S 5321   5.031   6.909   7.010  1.2529 -0.4852  2.3895
   65SAPC   C28 5322   5.221   6.989   7.070 -0.6248 -0.1075  0.0030
   65SAPC   H8R 5323   5.320   7.027   7.040 -0.6907  1.0500  1.1683
   65SAPC   C29 5324   5.203   6.975   7.202  0.3074  0.4929  0.3057
   65SAPC   H9R 5325   5.281   7.000   7.275  0.4891 -4.4926  2.0263
   65SAPC  C210 5326   5.098   6.905   7.267  0.3147  0.2298 -0.7189
   65SAPC  H10R 5327   5.009   6.875   7.208 -0.7879  1.0042  0.5146
   65SAPC  H10S 5328   5.062   6.989   7.329  0.9700 -0.4346  0.5903
   65SAPC  C211 5329   5.125   6.810   7.379 -0.2260  0.2807  0.7273
   65SAPC  H11R 5330   5.228   6.771   7.386 -0.1616  0.1581 -0.6783
   65SAPC  C212 5331   5.027   6.765   7.455 -0.2845 -0.0045 -0.1226
   65SAPC  H12R 5332   5.054   6.695   7.535  1.0691 -0.5737 -1.0511
   65SAPC  C213 5333   4.882   6.799   7.447 -0.2364 -0.2589  0.1261
   65SAPC  H13R 5334   4.848   6.874   7.372 -1.4444 -1.0953 -0.1687
   65SAPC  H13S 5335   4.842   6.829   7.547 -0.8136 -2.7799  0.6767
   65SAPC  C214 5336   4.822   6.667   7.401 -0.7244  0.3216  0.2598
   65SAPC  H14R 5337   4.848   6.640   7.298  3.4826  0.6855  1.1398
   65SAPC  C215 5338   4.756   6.577   7.478  0.3349 -0.1906  0.6559
   65SAPC  H15R 5339   4.720   6.480   7.439  4.0946 -1.8042  0.9383
   65SAPC  C216 5340   4.721   6.612   7.623 -0.6826 -0.1912 -0.1297
   65SAPC  H16R 5341   4.671   6.710   7.636 -0.6433  0.2473 -2.9413
   65SAPC  H16S 5342   4.815   6.617   7.683 -0.8689 -1.0290  0.2444
   65SAPC  C217 5343   4.636   6.497   7.685  0.3393 -0.3823  1.0579
   65SAPC  H17R 5344   4.669   6.401   7.641  0.3313  0.5498 -1.0334
   65SAPC  H17S 5345   4.533   6.512   7.648  0.2522 -1.4180  0.8696
   65SAPC  C218 5346   4.631   6.496   7.835  0.6478  0.3285 -0.9426
   65SAPC  H18R 5347   4.733   6.502   7.881  0.6992 -1.1335 -0.8401
   65SAPC  H18S 5348   4.577   6.408   7.876 -1.2029  2.2269  0.8149
   65SAPC  C219 5349   4.555   6.617   7.895  0.0983 -0.8357  0.0862
   65SAPC  H19R 5350   4.460   6.628   7.839 -0.3048 -2.4245  0.4403
   65SAPC  H19S 5351   4.620   6.707   7.884  0.8700 -1.6099 -1.8344
   65SAPC  C220 5352   4.539   6.598   8.049  0.8013 -0.0499 -0.6764
   65SAPC  H20R 5353   4.499   6.498   8.079 -1.3106  1.1704  0.6645
   65SAPC  H20S 5354   4.468   6.672   8.091 -1.4166 -1.9759 -0.9519
   65SAPC  H20T 5355   4.638   6.602   8.100  1.4133 -0.6247 -1.7839
   65SAPC   C33 5356   4.754   6.409   6.945 -0.1048  0.3022 -0.2140
   65SAPC   H3X 5357   4.757   6.502   7.006 -0.1909 -0.7816  1.4703
   65SAPC   H3Y 5358   4.851   6.428   6.894 -0.5404 -1.0340 -1.5720
   65SAPC   C34 5359   4.777   6.281   7.032 -0.0525 -0.5005  0.3143
   65SAPC   H4X 5360   4.770   6.188   6.971  2.2471 -1.7866  1.9011
   65SAPC   H4Y 5361   4.688   6.278   7.098 -0.4632  0.8030 -0.1600
   65SAPC   C35 5362   4.914   6.280   7.102  0.2761  0.9383 -0.6080
   65SAPC   H5X 5363   4.939   6.374   7.156  1.5415 -0.5657  1.5193
   65SAPC   H5Y 5364   4.988   6.255   7.023 -0.3669 -3.3185  0.0445
   65SAPC   C36 5365   4.919   6.159   7.204  0.3139 -0.5203  0.3526
   65SAPC   H6X 5366   4.915   6.058   7.158  1.1333 -0.2866 -0.2352
   65SAPC   H6Y 5367   4.830   6.167   7.270 -1.2633  1.4324 -1.9268
   65SAPC   C37 5368   5.034   6.147   7.293 -0.4997 -0.2597  0.4395
   65SAPC   H7X 5369   5.025   6.072   7.375 -1.7241 -1.4733 -0.7710
   65SAPC   H7Y 5370   5.039   6.243   7.348  0.3048 -0.2816  0.3998
   65SAPC   C38 5371   5.171   6.107   7.220 -0.3490 -0.0740  0.4622
   65SAPC   H8X 5372   5.185   6.203   7.164  0.8399 -2.5221 -3.6649
   65SAPC   H8Y 5373   5.161   6.027   7.143 -1.2130  0.8140 -0.3741
   65SAPC   C39 5374   5.292   6.090   7.316  0.0841  0.2143  0.3476
   65SAPC   H9X 5375   5.277   6.169   7.393 -1.2500 -2.0902  2.5247
   65SAPC   H9Y 5376   5.378   6.111   7.248 -1.9595 -0.6796 -2.6116
   65SAPC  C310 5377   5.286   5.952   7.372  0.0798  1.0962 -0.0682
   65SAPC  H10X 5378   5.302   5.881   7.289 -2.6132 -1.9074  1.8777
   65SAPC  H10Y 5379   5.183   5.937   7.410 -0.2490  1.4614 -0.8047
   65SAPC  C311 5380   5.394   5.911   7.477 -0.3506 -0.1110 -0.0932
   65SAPC  H11X 5381   5.407   5.997   7.547  3.4185  0.7929 -1.7703
   65SAPC  H11Y 5382   5.488   5.908   7.418 -1.9426  0.5966 -2.8004
   65SAPC  C312 5383   5.375   5.771   7.530  0.1654  0.3362  0.5557
   65SAPC  H12X 5384   5.385   5.683   7.462 -0.6049 -1.1262  2.2784
   65SAPC  H12Y 5385   5.268   5.773   7.560  0.3042 -0.6917  1.1464
   65SAPC  C313 5386   5.478   5.741   7.641  0.0448 -0.3033 -0.1327
   65SAPC  H13X 5387   5.443   5.792   7.733  1.8199  0.3941  0.1815
   65SAPC  H13Y 5388   5.573   5.797   7.623  0.3444  0.1394  2.5835
   65SAPC  C314 5389   5.515   5.593   7.664 -0.2816 -0.8779  0.1984
   65SAPC  H14X 5390   5.527   5.553   7.561 -0.5136  1.4194 -0.7491
   65SAPC  H14Y 5391   5.445   5.533   7.725 -0.1185 -1.6884 -0.4038
   65SAPC  C315 5392   5.657   5.586   7.726 -0.1664  0.6389 -0.9888
   65SAPC  H15X 5393   5.717   5.672   7.688 -0.0085  2.7821  3.8433
   65SAPC  H15Y 5394   5.716   5.494   7.706  0.7264  1.1806 -0.9058
   65SAPC  C316 5395   5.650   5.602   7.880 -0.1429  0.7029 -0.7641
   65SAPC  H16X 5396   5.548   5.571   7.911 -0.9037  2.8623 -1.0162
   65SAPC  H16Y 5397   5.660   5.710   7.902  0.9451  0.5343 -0.3712
   65SAPC  C317 5398   5.756   5.525   7.953  0.6831 -0.5609 -0.3688
   65SAPC  H17X 5399   5.857   5.569   7.936  1.3451 -1.5330  0.9730
   65SAPC  H17Y 5400   5.753   5.422   7.911  1.2513 -0.2704 -1.1424
   65SAPC  C318 5401   5.735   5.517   8.099  0.8432  0.4681  0.2186
   65SAPC  H18X 5402   5.675   5.429   8.130  0.7955  0.9478  1.5185
   65SAPC  H18Y 5403   5.705   5.614   8.146 -1.7583  0.6185 -1.6646
   65SAPC  H18Z 5404   5.838   5.489   8.133  0.5203 -1.9614 -0.7325
   66SAPC     N 5405   2.108   5.726   5.828 -0.3149 -0.3340 -0.1112
   66SAPC   C12 5406   2.157   5.813   5.708 -0.0287 -0.8851 -0.0836
   66SAPC  H12A 5407   2.163   5.752   5.619  0.2196  2.5698 -2.5196
   66SAPC  H12B 5408   2.254   5.852   5.735 -1.0266  2.0487 -0.5611
   66SAPC   C13 5409   1.973   5.662   5.792  0.0140  0.1671 -0.3310
   66SAPC  H13A 5410   1.936   5.604   5.875  1.5230 -1.9518 -1.0913
   66SAPC  H13B 5411   1.900   5.740   5.772  0.0377  0.0941 -0.7075
   66SAPC  H13C 5412   1.977   5.596   5.707  1.7896 -2.5577  1.8035
   66SAPC   C14 5413   2.201   5.614   5.853 -0.2242  0.1453  0.4596
   66SAPC  H14A 5414   2.203   5.552   5.764  0.4383  0.3973  0.2995
   66SAPC  H14B 5415   2.302   5.650   5.863  0.3151 -1.3586  0.5510
   66SAPC  H14C 5416   2.162   5.561   5.938  2.0773  0.0940  1.5182
   66SAPC   C15 5417   2.095   5.804   5.952 -0.0397  0.5444 -0.2475
   66SAPC  H15A 5418   2.179   5.868   5.975 -0.3950  0.4965  1.2426
   66SAPC  H15B 5419   2.014   5.874   5.941 -0.6823  0.1948  2.0251
   66SAPC  H15C 5420   2.066   5.747   6.039 -0.2048  1.4569  0.2999
   66SAPC   C11 5421   2.056   5.937   5.680  0.4711  0.0016  0.1709
   66SAPC  H11A 5422   1.950   5.904   5.684  0.0361  1.3938  0.2312
   66SAPC  H11B 5423   2.071   5.981   5.580  1.7483 -3.0399 -1.0485
   66SAPC     P 5424   2.207   6.103   5.809  0.1583  0.2820 -0.0268
   66SAPC   O13 5425   2.309   6.066   5.704  0.5838 -0.8598  0.0244
   66SAPC   O14 5426   2.176   6.244   5.814  0.0862 -0.6577  0.1625
   66SAPC   O12 5427   2.069   6.027   5.792 -0.1512 -0.2716  0.5506
   66SAPC   O11 5428   2.263   6.060   5.954 -0.1581  0.2398  0.5055
   66SAPC    C1 5429   2.194   6.094   6.074  0.1000 -0.3115  0.4084
   66SAPC    HA 5430   2.086   6.113   6.056  0.6684  1.3643 -1.4582
   66SAPC    HB 5431   2.202   6.009   6.144  1.6368  1.6939  2.7361
   66SAPC    C2 5432   2.244   6.231   6.130 -0.0320 -0.0280  1.3343
   66SAPC    HS 5433   2.283   6.286   6.042  1.3273  0.5640  2.3089
   66SAPC   O21 5434   2.355   6.192   6.209  0.3035 -0.2072  0.2358
   66SAPC   C21 5435   2.441   6.290   6.236 -0.4674 -0.7414 -0.1334
   66SAPC   O22 5436   2.443   6.399   6.181  0.4483 -0.1409  0.8797
   66SAPC   C22 5437   2.538   6.247   6.339 -0.1149  0.3160  0.2362
   66SAPC   H2R 5438   2.617   6.186   6.289  0.4959  2.1099 -1.0552
   66SAPC   H2S 5439   2.592   6.335   6.379 -0.1173  0.8736 -0.9847
   66SAPC    C3 5440   2.138   6.321   6.205 -0.5464 -0.5472  0.0070
   66SAPC    HX 5441   2.062   6.369   6.139 -0.9555 -0.3160  0.6466
   66SAPC    HY 5442   2.194   6.409   6.244  2.1757 -2.0720 -0.3028
   66SAPC   O31 5443   2.090   6.250   6.327  0.4750 -0.3250  0.3791
   66SAPC   C31 5444   1.966   6.211   6.317  0.7065  0.3599  0.1509
   66SAPC   O32 5445   1.883   6.230   6.228 -0.3016 -0.1239  0.6329
   66SAPC   C32 5446   1.930   6.133   6.447 -0.0727  0.1306 -0.8212
   66SAPC   H2X 5447   2.000   6.046   6.448  0.0015  0.1768 -1.8062
   66SAPC   H2Y 5448   1.829   6.088   6.444 -0.8781  1.3609  3.7709
   66SAPC   C23 5449   2.482   6.170   6.460 -0.9318  0.1098 -0.0240
   66SAPC   H3R 5450   2.562   6.170   6.537 -0.4584 -0.2248 -0.5187
   66SAPC   H3S 5451   2.454   6.067   6.429  0.7224 -0.5722  0.6683
   66SAPC   C24 5452   2.375   6.255   6.538 -0.4958  0.2755 -0.1480
   66SAPC   H4R 5453   2.324   6.182   6.604 -0.2148 -0.8606 -1.1651
   66SAPC   H4S 5454   2.297   6.296   6.469 -1.8819 -0.9150  0.6829
   66SAPC   C25 5455   2.442   6.359   6.631 -0.5707  0.6189 -0.3661
   66SAPC   H5R 5456   2.486   6.442   6.574  1.6770 -0.9046 -0.9391
   66SAPC   C26 5457   2.457   6.348   6.765 -0.6468 -0.0809 -0.1742
   66SAPC   H6R 5458   2.502   6.430   6.823  1.2517  0.3719 -2.1935
   66SAPC   C27 5459   2.416   6.235   6.856  0.2629  0.0752  0.7866
   66SAPC   H7R 5460   2.372   6.153   6.795 -0.6267  0.5886  0.7144
   66SAPC   H7S 5461   2.333   6.267   6.923 -0.5559  0.1182 -0.2431
   66SAPC   C28 5462   2.532   6.184   6.933  0.2600 -0.0740 -0.3045
   66SAPC   H8R 5463   2.574   6.089   6.897 -0.5937 -0.4027 -0.4335
   66SAPC   C29 5464   2.568   6.238   7.052 -0.1757 -0.1976 -0.4719
   66SAPC   H9R 5465   2.660   6.199   7.099 -0.7523 -1.5130 -0.4070
   66SAPC  C210 5466   2.505   6.347   7.128 -0.2852  0.2733 -0.2058
   66SAPC  H10R 5467   2.397   6.328   7.141 -0.6689  1.9489 -0.7784
   66SAPC  H10S 5468   2.521   6.439   7.068  2.0907  1.4782  2.1620
   66SAPC  C211 5469   2.562   6.356   7.267 -0.2420  0.1821 -0.0522
   66SAPC  H11R 5470   2.635   6.438   7.277 -0.3983  0.4536 -1.0168
   66SAPC  C212 5471   2.536   6.270   7.364  0.2638  0.1618 -0.3150
   66SAPC  H12R 5472   2.579   6.300   7.460 -1.8469  3.4521 -0.3287
   66SAPC  C213 5473   2.441   6.156   7.354 -0.0084  0.1808 -0.1956
   66SAPC  H13R 5474   2.382   6.143   7.260  0.2210 -0.8066 -0.2141
   66SAPC  H13S 5475   2.354   6.185   7.417  0.3733  0.2918  0.2774
   66SAPC  C214 5476   2.487   6.034   7.436  0.3879  0.0513 -0.2272
   66SAPC  H14R 5477   2.504   6.050   7.543  0.9376  1.6503 -0.5422
   66SAPC  C215 5478   2.515   5.904   7.396  0.0222  0.4324 -0.2212
   66SAPC  H15R 5479   2.538   5.829   7.473  1.2648  0.7153 -0.2988
   66SAPC  C216 5480   2.516   5.867   7.249 -0.4172 -0.5460 -0.1331
   66SAPC  H16R 5481   2.591   5.786   7.235 -1.3119 -1.1431 -1.5654
   66SAPC  H16S 5482   2.547   5.954   7.188 -0.0512 -0.4183  0.2377
   66SAPC  C217 5483   2.392   5.824   7.176 -0.2558 -0.5247  0.9096
   66SAPC  H17R 5484   2.325   5.911   7.193 -0.3806 -0.4676  0.1492
   66SAPC  H17S 5485   2.347   5.728   7.209 -1.7121  0.5629  2.1509
   66SAPC  C218 5486   2.423   5.799   7.023  1.3675  0.3507  0.4808
   66SAPC  H18R 5487   2.504   5.725   7.013  1.9581  0.8885  1.2453
   66SAPC  H18S 5488   2.470   5.891   6.982  2.5552  0.2453  1.6108
   66SAPC  C219 5489   2.296   5.766   6.938 -0.3318 -0.4776  0.3738
   66SAPC  H19R 5490   2.242   5.680   6.985 -0.5540 -0.3748  0.3050
   66SAPC  H19S 5491   2.329   5.734   6.837  1.6619 -1.5639  1.3276
   66SAPC  C220 5492   2.197   5.880   6.929  0.1166  0.7681 -0.1537
   66SAPC  H20R 5493   2.235   5.974   6.885  0.4371  0.2302 -1.0435
   66SAPC  H20S 5494   2.140   5.904   7.021 -0.5434  1.9657 -0.8679
   66SAPC  H20T 5495   2.126   5.851   6.849  1.4166 -0.8817 -0.7496
   66SAPC   C33 5496   1.947   6.224   6.572  0.2843  0.3281  0.7457
   66SAPC   H3X 5497   1.874   6.308   6.570 -2.1886 -1.7302  1.9129
   66SAPC   H3Y 5498   2.052   6.261   6.570  0.4474 -0.1559 -0.8193
   66SAPC   C34 5499   1.929   6.153   6.708  0.3839  0.4321 -0.1300
   66SAPC   H4X 5500   1.959   6.047   6.700 -0.9654  0.1953 -2.3734
   66SAPC   H4Y 5501   1.820   6.135   6.723  0.0815  0.1102 -2.5857
   66SAPC   C35 5502   1.990   6.215   6.835 -0.3147  0.3522 -0.0985
   66SAPC   H5X 5503   1.973   6.325   6.828  1.2653  0.5908 -0.3776
   66SAPC   H5Y 5504   2.101   6.202   6.837 -0.4910 -1.2677 -0.7008
   66SAPC   C36 5505   1.936   6.160   6.969  0.4872 -1.0242  1.1358
   66SAPC   H6X 5506   1.930   6.051   6.951 -1.6965 -0.8157  0.5093
   66SAPC   H6Y 5507   1.834   6.196   6.994  0.2841 -1.6611  1.2307
   66SAPC   C37 5508   2.016   6.209   7.092 -0.1387  0.0618 -0.1096
   66SAPC   H7X 5509   2.007   6.319   7.088 -0.3932  0.1217  1.6663
   66SAPC   H7Y 5510   2.126   6.192   7.082  0.1353  2.2191 -1.0259
   66SAPC   C38 5511   1.960   6.159   7.225  0.0408 -0.7827 -0.3257
   66SAPC   H8X 5512   1.959   6.048   7.237  0.1522 -0.9684 -1.9448
   66SAPC   H8Y 5513   1.854   6.189   7.235  0.3637  0.9007 -1.7744
   66SAPC   C39 5514   2.050   6.203   7.342  0.6416 -0.6769  0.0470
   66SAPC   H9X 5515   2.157   6.199   7.312  0.6671  2.0682 -0.3719
   66SAPC   H9Y 5516   2.028   6.144   7.433 -0.4442 -0.1602  0.1319
   66SAPC  C310 5517   2.022   6.345   7.394 -0.5773  0.4505 -0.1499
   66SAPC  H10X 5518   2.046   6.423   7.318  1.7344  0.1159  0.1983
   66SAPC  H10Y 5519   2.088   6.354   7.483 -2.1810 -0.1104  1.1029
   66SAPC  C311 5520   1.876   6.373   7.427 -0.3838  0.3948 -0.1631
   66SAPC  H11X 5521   1.842   6.283   7.482 -3.2838  2.9189  2.3646
   66SAPC  H11Y 5522   1.814   6.370   7.335  0.5358 -0.6317 -0.7564
   66SAPC  C312 5523   1.860   6.500   7.506  0.2646 -0.5816  0.1789
   66SAPC  H12X 5524   1.937   6.514   7.585  0.2572 -1.1077  0.2865
   66SAPC  H12Y 5525   1.761   6.509   7.555  1.1553  0.5525  1.8255
   66SAPC  C313 5526   1.874   6.621   7.409 -0.4331  0.1419 -0.0237
   66SAPC  H13X 5527   1.816   6.608   7.315  1.0988  2.9178 -1.3924
   66SAPC  H13Y 5528   1.982   6.619   7.384 -1.2595 -1.8617 -3.7420
   66SAPC  C314 5529   1.833   6.760   7.471  0.1958 -0.3820 -0.1238
   66SAPC  H14X 5530   1.880   6.773   7.571  0.5258  2.3588 -0.5928
   66SAPC  H14Y 5531   1.722   6.770   7.474  0.1011 -1.7638  1.9975
   66SAPC  C315 5532   1.891   6.866   7.391  0.2521  0.5958  0.3171
   66SAPC  H15X 5533   2.002   6.856   7.393  0.2960  1.2837  1.3887
   66SAPC  H15Y 5534   1.872   6.968   7.430  1.2168  0.8663  0.0970
   66SAPC  C316 5535   1.841   6.870   7.241  0.3558  0.1155 -0.6358
   66SAPC  H16X 5536   1.731   6.884   7.242  0.4705  1.1770  1.9804
   66SAPC  H16Y 5537   1.858   6.779   7.179  1.1579 -0.6699  0.7094
   66SAPC  C317 5538   1.904   7.000   7.177 -0.0359 -0.2762  0.0905
   66SAPC  H17X 5539   2.012   6.987   7.156 -0.3824  1.4760 -3.0240
   66SAPC  H17Y 5540   1.894   7.091   7.239 -1.2763 -0.9786  0.9512
   66SAPC  C318 5541   1.848   6.999   7.033  0.4415  0.9746 -0.7499
   66SAPC  H18X 5542   1.737   7.001   7.036  0.4283  1.1607 -1.3304
   66SAPC  H18Y 5543   1.881   6.914   6.971  1.2619  0.0036  0.9804
   66SAPC  H18Z 5544   1.887   7.091   6.985 -0.1102  1.7256  0.2049
   67SAPC     N 5545   7.021   2.730   5.672 -0.7023  0.0326  0.2782
   67SAPC   C12 5546   6.968   2.742   5.811  0.5225  0.7329 -0.3400
   67SAPC  H12A 5547   7.026   2.810   5.872 -0.1524  0.2673  0.8155
   67SAPC  H12B 5548   6.986   2.649   5.863  0.1420  0.4936 -0.6436
   67SAPC   C13 5549   7.169   2.711   5.662 -0.7533 -0.2100 -0.2711
   67SAPC  H13A 5550   7.211   2.799   5.708 -1.2334  0.7073 -1.5307
   67SAPC  H13B 5551   7.189   2.627   5.727 -2.1746 -0.9454 -0.7542
   67SAPC  H13C 5552   7.198   2.708   5.558  1.1910  1.8117  0.1821
   67SAPC   C14 5553   6.954   2.614   5.599 -0.5219 -0.4391 -0.2645
   67SAPC  H14A 5554   7.004   2.520   5.618  2.8835  1.3936  0.1617
   67SAPC  H14B 5555   6.848   2.624   5.613 -0.3488 -0.1972  0.9683
   67SAPC  H14C 5556   6.974   2.624   5.493  0.3989  0.0494 -0.0454
   67SAPC   C15 5557   6.994   2.863   5.601  0.4949  0.8038  0.1057
   67SAPC  H15A 5558   7.027   2.855   5.498  0.3697  1.5787  0.0019
   67SAPC  H15B 5559   6.889   2.889   5.599  0.9042  2.5092 -2.9016
   67SAPC  H15C 5560   7.044   2.942   5.654  1.9402 -0.1203  0.1592
   67SAPC   C11 5561   6.820   2.770   5.831  0.0769 -0.7371 -0.0087
   67SAPC  H11A 5562   6.799   2.878   5.815  2.5632  0.4706  3.9563
   67SAPC  H11B 5563   6.808   2.763   5.942  1.1423 -1.0115  0.0950
   67SAPC     P 5564   6.670   2.548   5.831  0.2330 -0.5620  0.3615
   67SAPC   O13 5565   6.570   2.583   5.934  0.2645  0.0052 -0.0801
   67SAPC   O14 5566   6.615   2.475   5.715  0.1568 -0.3605  0.7158
   67SAPC   O12 5567   6.728   2.680   5.775  0.2459 -0.5566 -0.0377
   67SAPC   O11 5568   6.800   2.461   5.883 -0.6399  0.0948 -0.7239
   67SAPC    C1 5569   6.794   2.323   5.868  0.2684  0.3684  0.0218
   67SAPC    HA 5570   6.779   2.283   5.766 -1.8505 -2.5225  1.3970
   67SAPC    HB 5571   6.892   2.279   5.898 -0.4637 -1.5145 -0.2972
   67SAPC    C2 5572   6.684   2.258   5.961 -0.4205  0.3179  0.9286
   67SAPC    HS 5573   6.586   2.303   5.935  0.7161  0.6101 -3.2084
   67SAPC   O21 5574   6.729   2.286   6.099 -0.1355 -0.2549 -0.3668
   67SAPC   C21 5575   6.617   2.304   6.180 -0.1303 -0.7906  0.4701
   67SAPC   O22 5576   6.501   2.291   6.144  0.0583 -0.2290 -0.2644
   67SAPC   C22 5577   6.654   2.321   6.327  0.1500  0.0768  0.0993
   67SAPC   H2R 5578   6.765   2.312   6.333 -0.0720 -2.7088  0.7509
   67SAPC   H2S 5579   6.621   2.419   6.365  1.9878  0.5498  0.5344
   67SAPC    C3 5580   6.679   2.106   5.916 -0.0404  0.1973  0.0120
   67SAPC    HX 5581   6.616   2.088   5.826 -1.4039  0.1330  0.9765
   67SAPC    HY 5582   6.632   2.046   5.996 -0.2294 -0.7787 -0.8212
   67SAPC   O31 5583   6.817   2.058   5.896 -1.0468 -0.2897 -0.5071
   67SAPC   C31 5584   6.816   1.922   5.909  0.2047 -0.1817 -0.0688
   67SAPC   O32 5585   6.713   1.859   5.920  0.4522  0.3618  0.0807
   67SAPC   C32 5586   6.957   1.866   5.917 -0.4084 -0.1840  0.0506
   67SAPC   H2X 5587   7.026   1.931   5.860  0.8128 -0.5060  1.1439
   67SAPC   H2Y 5588   6.949   1.774   5.856 -0.0876 -0.4309  0.3823
   67SAPC   C23 5589   6.579   2.228   6.431  0.6296  0.0494 -0.1269
   67SAPC   H3R 5590   6.469   2.240   6.424  0.4637  0.1399  2.3411
   67SAPC   H3S 5591   6.618   2.249   6.533  0.7574 -0.6083 -0.0419
   67SAPC   C24 5592   6.626   2.080   6.416  0.5753  0.4552  0.3923
   67SAPC   H4R 5593   6.609   2.034   6.516 -0.0637  2.0578  1.0430
   67SAPC   H4S 5594   6.737   2.079   6.408  0.6742  0.8736  1.5486
   67SAPC   C25 5595   6.550   1.998   6.315  0.4282 -0.1289  0.0330
   67SAPC   H5R 5596   6.562   2.043   6.215 -1.1659  0.9071  0.2931
   67SAPC   C26 5597   6.452   1.909   6.342 -0.0652 -0.3603  0.5974
   67SAPC   H6R 5598   6.401   1.854   6.262 -0.7614  0.9192  0.1471
   67SAPC   C27 5599   6.419   1.871   6.479 -0.2689  0.3989 -0.6746
   67SAPC   H7R 5600   6.316   1.828   6.478  0.6867 -2.0750  1.5226
   67SAPC   H7S 5601   6.400   1.962   6.539  0.0588 -1.0849  1.7516
   67SAPC   C28 5602   6.506   1.771   6.549  0.7413  0.1851 -0.3336
   67SAPC   H8R 5603   6.564   1.701   6.486  0.7856  0.1346 -0.2364
   67SAPC   C29 5604   6.535   1.767   6.681 -0.2772 -0.0244 -0.4270
   67SAPC   H9R 5605   6.603   1.688   6.715 -0.3386  0.5181  0.9926
   67SAPC  C210 5606   6.492   1.853   6.798  0.3695 -0.4128 -0.5982
   67SAPC  H10R 5607   6.390   1.885   6.769  0.2274  0.2300  0.5605
   67SAPC  H10S 5608   6.547   1.950   6.796  1.0310 -0.7638  0.1172
   67SAPC  C211 5609   6.470   1.784   6.931  0.3515  0.4093  0.3254
   67SAPC  H11R 5610   6.444   1.679   6.915  1.2609 -0.0490  1.7735
   67SAPC  C212 5611   6.501   1.836   7.050  0.1558 -0.5902 -0.2163
   67SAPC  H12R 5612   6.479   1.773   7.137  0.3303 -0.7288 -0.2735
   67SAPC  C213 5613   6.558   1.977   7.077  0.7958 -0.2204 -0.0015
   67SAPC  H13R 5614   6.588   2.025   6.981  1.8722 -2.4822 -0.8170
   67SAPC  H13S 5615   6.650   1.967   7.138  2.8757  1.2601 -2.7921
   67SAPC  C214 5616   6.464   2.068   7.140 -0.2777 -0.2860 -0.7930
   67SAPC  H14R 5617   6.420   2.152   7.086 -1.7030 -1.4491 -1.4480
   67SAPC  C215 5618   6.424   2.062   7.274  0.0169  0.5795  0.5091
   67SAPC  H15R 5619   6.340   2.121   7.311  1.6375  2.0143  2.0116
   67SAPC  C216 5620   6.475   1.964   7.372 -0.4740  0.1855  0.0054
   67SAPC  H16R 5621   6.577   1.941   7.334 -1.0230 -2.4900  0.0028
   67SAPC  H16S 5622   6.409   1.874   7.373  0.9903 -0.9114  0.3234
   67SAPC  C217 5623   6.493   2.018   7.518 -0.5663 -0.5325  0.8465
   67SAPC  H17R 5624   6.392   2.012   7.564 -0.4858  1.2437  1.2984
   67SAPC  H17S 5625   6.526   2.124   7.512  0.2820 -0.8057  0.7100
   67SAPC  C218 5626   6.592   1.941   7.606 -0.0237 -0.5441 -0.0040
   67SAPC  H18R 5627   6.679   1.920   7.540 -0.1717 -0.5297 -0.2054
   67SAPC  H18S 5628   6.547   1.844   7.634  1.0986 -0.4325  2.3120
   67SAPC  C219 5629   6.616   2.013   7.739 -0.1492 -0.0682  0.3018
   67SAPC  H19R 5630   6.572   2.115   7.733 -1.9122 -0.8165  0.2806
   67SAPC  H19S 5631   6.727   2.014   7.742 -0.1464 -0.5910  0.4543
   67SAPC  C220 5632   6.573   1.920   7.850 -0.0892 -0.3090 -0.3723
   67SAPC  H20R 5633   6.466   1.897   7.830 -0.4083  0.7265  0.1591
   67SAPC  H20S 5634   6.565   1.955   7.954  0.2360 -1.5738  0.0907
   67SAPC  H20T 5635   6.637   1.830   7.860 -0.9921 -0.8739  0.4397
   67SAPC   C33 5636   7.006   1.844   6.064 -0.5667 -0.0784  0.3137
   67SAPC   H3X 5637   7.109   1.804   6.058 -1.0479 -1.1627 -0.8612
   67SAPC   H3Y 5638   6.942   1.772   6.120  0.9637 -2.1563 -0.5775
   67SAPC   C34 5639   7.015   1.979   6.146 -0.1576  0.4800 -0.1070
   67SAPC   H4X 5640   6.923   2.042   6.138  0.4978  1.6652  1.3675
   67SAPC   H4Y 5641   7.111   2.027   6.120  0.2783 -1.1074 -1.5070
   67SAPC   C35 5642   7.029   1.951   6.298  0.7194 -0.2448  0.1632
   67SAPC   H5X 5643   7.116   1.886   6.322  1.8048  0.7936 -0.9032
   67SAPC   H5Y 5644   6.943   1.896   6.342  1.1603  0.1330  1.5037
   67SAPC   C36 5645   7.050   2.075   6.382 -0.2637  0.2529 -0.6479
   67SAPC   H6X 5646   6.986   2.161   6.353 -2.5419 -1.5999 -1.2707
   67SAPC   H6Y 5647   7.152   2.115   6.362 -0.9929  2.5185 -0.0453
   67SAPC   C37 5648   7.042   2.037   6.533  0.1342 -0.1371 -0.5149
   67SAPC   H7X 5649   7.136   1.988   6.569 -0.2466 -0.3515  0.1862
   67SAPC   H7Y 5650   6.956   1.968   6.547 -0.9007  1.5079  1.4340
   67SAPC   C38 5651   7.017   2.166   6.601  0.5323  0.3291 -0.5478
   67SAPC   H8X 5652   6.917   2.202   6.568  1.6662  0.2569 -4.3081
   67SAPC   H8Y 5653   7.089   2.243   6.565  0.9027  0.0113 -0.4806
   67SAPC   C39 5654   7.019   2.157   6.749  0.1112  0.3408 -0.3953
   67SAPC   H9X 5655   6.971   2.246   6.795 -1.3319 -0.4154 -0.4088
   67SAPC   H9Y 5656   7.126   2.152   6.779 -0.8278 -0.1071  3.1904
   67SAPC  C310 5657   6.936   2.042   6.805 -0.1738  0.3682  0.0593
   67SAPC  H10X 5658   6.981   1.941   6.793  0.5682  0.7437 -0.3412
   67SAPC  H10Y 5659   6.838   2.048   6.753 -0.8559 -2.2295  0.9393
   67SAPC  C311 5660   6.912   2.059   6.957 -0.1979 -0.0142 -0.3195
   67SAPC  H11X 5661   6.842   1.981   6.994  0.1008 -1.6736 -3.1032
   67SAPC  H11Y 5662   6.867   2.157   6.982  1.0815  0.2192  1.1258
   67SAPC  C312 5663   7.040   2.035   7.047  0.0093  0.5534  0.4555
   67SAPC  H12X 5664   7.118   2.110   7.023  0.7651 -0.5483 -0.6161
   67SAPC  H12Y 5665   7.087   1.941   7.009 -1.0173  0.6926 -1.2120
   67SAPC  C313 5666   7.020   2.015   7.200  0.5442 -0.1648 -0.3304
   67SAPC  H13X 5667   7.113   1.975   7.245 -0.4882 -1.0979  1.0015
   67SAPC  H13Y 5668   6.955   1.927   7.217 -0.4768  0.1213 -2.5385
   67SAPC  C314 5669   6.968   2.144   7.275 -0.5142 -0.2208  0.0835
   67SAPC  H14X 5670   6.866   2.173   7.242  0.7313  1.2564 -2.6143
   67SAPC  H14Y 5671   7.031   2.229   7.242 -1.2031  0.2688  0.0355
   67SAPC  C315 5672   6.966   2.132   7.428  0.0972 -0.0474 -0.1096
   67SAPC  H15X 5673   6.897   2.055   7.468 -2.1321  1.9128 -0.0606
   67SAPC  H15Y 5674   6.925   2.229   7.464 -0.4149 -1.2920  2.8002
   67SAPC  C316 5675   7.108   2.130   7.485  0.1175  0.2119 -0.0687
   67SAPC  H16X 5676   7.159   2.214   7.434  2.4921 -0.9794  0.2640
   67SAPC  H16Y 5677   7.163   2.037   7.458  0.6853 -0.2441  2.5274
   67SAPC  C317 5678   7.125   2.153   7.636 -0.4843 -0.4026 -0.3576
   67SAPC  H17X 5679   7.067   2.244   7.663  2.2982  1.6886 -1.1869
   67SAPC  H17Y 5680   7.234   2.174   7.643  0.2909 -4.2293  0.2132
   67SAPC  C318 5681   7.082   2.027   7.706  0.2570 -0.4999  0.2673
   67SAPC  H18X 5682   7.148   1.950   7.661  0.0672 -0.1709 -0.5752
   67SAPC  H18Y 5683   6.981   1.998   7.671 -0.5066  2.7789 -0.4531
   67SAPC  H18Z 5684   7.085   2.049   7.815  0.6330  0.1483  0.1287
   68SAPC     N 5685   1.995   0.142   6.099  0.0442 -0.2245 -0.1563
   68SAPC   C12 5686   1.953   0.003   6.057 -0.4126  0.0494  0.3212
   68SAPC  H12A 5687   1.928   0.004   5.952  1.3512  0.4800 -0.1249
   68SAPC  H12B 5688   1.860  -0.022   6.104 -1.6239 -0.2676 -2.1520
   68SAPC   C13 5689   2.047   0.144   6.241  0.9150  0.3791 -0.6844
   68SAPC  H13A 5690   2.035   0.245   6.279  1.4755  0.8663 -1.7674
   68SAPC  H13B 5691   1.982   0.097   6.313  1.3520 -0.7889 -1.0582
   68SAPC  H13C 5692   2.145   0.100   6.254  0.7490  0.6407  1.6119
   68SAPC   C14 5693   2.105   0.195   6.009  0.4327  0.3785 -0.2440
   68SAPC  H14A 5694   2.160   0.284   6.036  1.5060 -0.2357 -0.3766
   68SAPC  H14B 5695   2.180   0.117   6.012 -0.0014 -0.0243  0.2805
   68SAPC  H14C 5696   2.075   0.205   5.906  0.9426 -0.9360 -0.5427
   68SAPC   C15 5697   1.885   0.235   6.085  1.2343  0.0542 -0.4003
   68SAPC  H15A 5698   1.902   0.336   6.118  2.0518 -0.5223  0.9579
   68SAPC  H15B 5699   1.860   0.255   5.982  2.3488  0.0024 -0.6868
   68SAPC  H15C 5700   1.795   0.205   6.136  1.2519  0.8855  0.1259
   68SAPC   C11 5701   2.054  -0.106   6.095  0.3147 -0.5079 -0.2980
   68SAPC  H11A 5702   2.011  -0.204   6.066 -1.1280 -0.1988  0.7307
   68SAPC  H11B 5703   2.069  -0.112   6.205  1.1821  0.9103 -0.3301
   68SAPC     P 5704   2.317  -0.114   6.088  0.4817  0.7543  0.2980
   68SAPC   O13 5705   2.329  -0.265   6.074  0.6684 -0.0009 -0.3274
   68SAPC   O14 5706   2.424  -0.031   6.031  0.1480 -0.0391 -0.1146
   68SAPC   O12 5707   2.175  -0.082   6.030 -0.3182  0.6696  0.3292
   68SAPC   O11 5708   2.306  -0.066   6.237  0.5166 -0.2298 -0.1826
   68SAPC    C1 5709   2.402  -0.102   6.335  0.6149 -0.3250  0.4348
   68SAPC    HA 5710   2.359  -0.080   6.436  0.8131 -0.7334  0.6054
   68SAPC    HB 5711   2.418  -0.211   6.330  0.8873 -0.3099  0.8911
   68SAPC    C2 5712   2.520  -0.001   6.344  0.2270  0.6250 -0.0356
   68SAPC    HS 5713   2.567   0.002   6.243 -0.0853 -0.7784 -0.2278
   68SAPC   O21 5714   2.597  -0.038   6.453 -0.4379  0.0036  0.2733
   68SAPC   C21 5715   2.662  -0.151   6.456 -0.3172 -0.1513  0.2763
   68SAPC   O22 5716   2.676  -0.229   6.363  0.4091 -0.0132 -0.7746
   68SAPC   C22 5717   2.718  -0.163   6.595  0.2931 -0.5150 -0.6984
   68SAPC   H2R 5718   2.718  -0.269   6.630  2.6974 -0.6529 -0.9747
   68SAPC   H2S 5719   2.825  -0.135   6.583 -0.6167  2.8092 -1.5559
   68SAPC    C3 5720   2.463   0.137   6.361  0.2340  0.2394 -0.6948
   68SAPC    HX 5721   2.408   0.171   6.271 -0.6167 -1.6065 -0.8893
   68SAPC    HY 5722   2.550   0.206   6.368  0.7192 -0.3591 -0.7912
   68SAPC   O31 5723   2.374   0.152   6.474  0.1701  0.2282  0.9709
   68SAPC   C31 5724   2.416   0.227   6.574  0.1096  0.7438  0.1416
   68SAPC   O32 5725   2.528   0.270   6.598  0.3907 -0.6658  0.5424
   68SAPC   C32 5726   2.297   0.239   6.664  0.2511  0.4249 -0.0423
   68SAPC   H2X 5727   2.202   0.196   6.624  0.1889  0.2527  0.2843
   68SAPC   H2Y 5728   2.260   0.343   6.677 -0.9234  0.1996 -1.4415
   68SAPC   C23 5729   2.646  -0.074   6.704 -0.3731  0.3413  0.4441
   68SAPC   H3R 5730   2.535  -0.087   6.710 -0.2119 -0.8111  1.0129
   68SAPC   H3S 5731   2.671   0.031   6.678  0.8024  0.0093  0.1979
   68SAPC   C24 5732   2.700  -0.108   6.848  0.2907 -0.1268 -0.0038
   68SAPC   H4R 5733   2.679  -0.014   6.904  0.7892  0.3607 -0.6263
   68SAPC   H4S 5734   2.811  -0.107   6.844  0.2706 -1.7513 -1.5697
   68SAPC   C25 5735   2.640  -0.227   6.927  0.3165 -0.1914 -0.4012
   68SAPC   H5R 5736   2.582  -0.311   6.886 -1.6864  0.0358  1.8818
   68SAPC   C26 5737   2.666  -0.250   7.060 -0.4578 -0.0131  0.4985
   68SAPC   H6R 5738   2.620  -0.329   7.121  2.4199 -2.1052  0.0398
   68SAPC   C27 5739   2.761  -0.156   7.131  0.0291  0.2875  0.4274
   68SAPC   H7R 5740   2.839  -0.116   7.062  0.4160 -2.6728 -0.9245
   68SAPC   H7S 5741   2.820  -0.215   7.204  1.7839 -0.0871 -1.2479
   68SAPC   C28 5742   2.688  -0.046   7.209 -0.4264  0.1311 -0.1682
   68SAPC   H8R 5743   2.618  -0.077   7.288  0.3409 -0.5115  0.2692
   68SAPC   C29 5744   2.720   0.080   7.222 -0.5481 -0.3620 -0.1622
   68SAPC   H9R 5745   2.661   0.135   7.297  0.3706  0.4649 -0.0259
   68SAPC  C210 5746   2.844   0.155   7.159 -0.1841  0.2487  0.0231
   68SAPC  H10R 5747   2.864   0.109   7.060 -1.1746 -1.6456  0.6706
   68SAPC  H10S 5748   2.938   0.136   7.216  0.3332  0.9769 -0.5765
   68SAPC  C211 5749   2.804   0.299   7.137  0.1962  0.0727 -0.1690
   68SAPC  H11R 5750   2.711   0.314   7.082 -0.1623 -1.7077 -0.0778
   68SAPC  C212 5751   2.875   0.410   7.169 -0.2950 -0.9703 -0.2985
   68SAPC  H12R 5752   2.831   0.509   7.155  1.9301  0.5457  2.8113
   68SAPC  C213 5753   3.010   0.435   7.229 -1.0818  0.3068 -0.6670
   68SAPC  H13R 5754   3.021   0.537   7.271  1.1391 -1.1855  2.6452
   68SAPC  H13S 5755   3.095   0.445   7.158 -0.9893  0.5776 -0.5179
   68SAPC  C214 5756   3.055   0.343   7.347 -0.9194 -0.2624 -0.1548
   68SAPC  H14R 5757   3.142   0.283   7.321  0.7182  1.1832  1.7881
   68SAPC  C215 5758   3.020   0.357   7.472  1.0963 -0.4557  0.7914
   68SAPC  H15R 5759   3.061   0.284   7.544 -1.1755 -1.1901  1.3682
   68SAPC  C216 5760   2.929   0.468   7.522 -0.5234  0.3597 -0.3861
   68SAPC  H16R 5761   2.850   0.489   7.447  0.5010  0.6057 -1.3990
   68SAPC  H16S 5762   2.987   0.559   7.550 -0.8422  0.6655 -0.7179
   68SAPC  C217 5763   2.841   0.405   7.636 -0.4237  0.9726  0.0775
   68SAPC  H17R 5764   2.799   0.305   7.612  0.7502  0.9682 -2.0995
   68SAPC  H17S 5765   2.755   0.473   7.656 -0.0920  1.1545  0.9063
   68SAPC  C218 5766   2.930   0.408   7.767  1.4654 -0.1238  0.0962
   68SAPC  H18R 5767   2.979   0.506   7.783  1.8198 -0.5402  1.7021
   68SAPC  H18S 5768   3.005   0.326   7.771  2.4250  0.6649 -1.4165
   68SAPC  C219 5769   2.827   0.400   7.886  0.0665  0.2999  0.3514
   68SAPC  H19R 5770   2.736   0.344   7.857 -0.9122  1.5468  0.9579
   68SAPC  H19S 5771   2.794   0.505   7.903  1.3577  0.4760  1.9703
   68SAPC  C220 5772   2.878   0.356   8.025 -0.0233 -0.1477  0.7154
   68SAPC  H20R 5773   2.958   0.431   8.041  1.2898 -1.2831 -0.4275
   68SAPC  H20S 5774   2.921   0.256   8.003  3.8026  1.4694  0.4196
   68SAPC  H20T 5775   2.806   0.365   8.109  0.0307 -1.2036  0.8768
   68SAPC   C33 5776   2.331   0.170   6.799 -0.1495  0.2590 -0.3617
   68SAPC   H3X 5777   2.408   0.091   6.782 -0.7869 -0.3136 -0.5941
   68SAPC   H3Y 5778   2.238   0.119   6.831  0.2860  0.8318  1.9160
   68SAPC   C34 5779   2.365   0.269   6.909  0.8124  0.8120  0.3240
   68SAPC   H4X 5780   2.278   0.334   6.934 -1.4182 -1.8015 -0.4421
   68SAPC   H4Y 5781   2.444   0.340   6.876  0.5487  0.7047 -0.5277
   68SAPC   C35 5782   2.401   0.190   7.040  0.2072 -0.0505  0.8896
   68SAPC   H5X 5783   2.438   0.262   7.116  2.6457  0.5236 -0.7407
   68SAPC   H5Y 5784   2.477   0.109   7.031  0.6626  0.3931  0.6791
   68SAPC   C36 5785   2.272   0.121   7.099  0.7523 -0.2183  0.1798
   68SAPC   H6X 5786   2.247   0.046   7.021 -1.6643  0.8694 -0.1129
   68SAPC   H6Y 5787   2.186   0.189   7.117  1.0134  0.5611 -1.4759
   68SAPC   C37 5788   2.308   0.037   7.224 -0.1258 -0.2733 -0.2754
   68SAPC   H7X 5789   2.353   0.109   7.295  0.7740 -0.3057 -0.8088
   68SAPC   H7Y 5790   2.371  -0.052   7.203 -1.1970 -2.0662  3.5971
   68SAPC   C38 5791   2.166   0.002   7.284  0.2004 -0.1840 -0.2321
   68SAPC   H8X 5792   2.110  -0.045   7.201 -0.7764  1.8868 -0.7799
   68SAPC   H8Y 5793   2.106   0.095   7.298 -1.6701 -1.5015  0.6833
   68SAPC   C39 5794   2.186  -0.083   7.411  0.6531 -0.2084 -0.1964
   68SAPC   H9X 5795   2.273  -0.050   7.471  0.5460 -0.4731  0.1077
   68SAPC   H9Y 5796   2.202  -0.187   7.375  3.1585  0.2271 -0.3974
   68SAPC  C310 5797   2.075  -0.076   7.511 -0.3241 -0.3110 -0.2225
   68SAPC  H10X 5798   1.975  -0.101   7.469 -1.2909  0.1208  1.8078
   68SAPC  H10Y 5799   2.073   0.023   7.560 -2.0589 -0.1957 -0.4905
   68SAPC  C311 5800   2.116  -0.165   7.625  0.8097  0.1474  0.5466
   68SAPC  H11X 5801   2.226  -0.167   7.643  0.7652  0.8803  0.9004
   68SAPC  H11Y 5802   2.087  -0.270   7.603 -1.2333  0.9175 -0.4961
   68SAPC  C312 5803   2.045  -0.127   7.763  0.1047 -1.0002 -0.0692
   68SAPC  H12X 5804   1.952  -0.186   7.755  0.6638 -1.8332 -0.5146
   68SAPC  H12Y 5805   2.005  -0.023   7.760  0.6497 -0.7428  1.3913
   68SAPC  C313 5806   2.130  -0.146   7.883  0.4710 -0.5545  0.6039
   68SAPC  H13X 5807   2.165  -0.251   7.897  0.2894 -0.6741  0.1697
   68SAPC  H13Y 5808   2.056  -0.133   7.964 -1.5552 -0.9174 -1.1425
   68SAPC  C314 5809   2.251  -0.049   7.885  0.1741  0.7437  0.1354
   68SAPC  H14X 5810   2.221   0.055   7.862  2.6811  0.9465 -2.5786
   68SAPC  H14Y 5811   2.323  -0.069   7.802  0.0742  1.6353 -0.1721
   68SAPC  C315 5812   2.317  -0.050   8.023 -0.3542  0.1023 -0.1300
   68SAPC  H15X 5813   2.334  -0.156   8.053  0.4111  0.9635  2.6318
   68SAPC  H15Y 5814   2.248   0.005   8.090 -1.5540 -2.5956  0.9220
   68SAPC  C316 5815   2.448   0.030   8.043  0.0388  0.2398  0.0174
   68SAPC  H16X 5816   2.420   0.137   8.055 -0.0742  0.2150 -0.0223
   68SAPC  H16Y 5817   2.504   0.025   7.947 -2.2739 -2.1519 -1.2732
   68SAPC  C317 5818   2.535  -0.022   8.154  0.1152 -0.0940 -0.5702
   68SAPC  H17X 5819   2.472  -0.029   8.245  2.4453  2.3705  1.3101
   68SAPC  H17Y 5820   2.620   0.043   8.181  2.4304 -2.2752 -2.3896
   68SAPC  C318 5821   2.597  -0.150   8.112 -0.3878  0.6439  0.1819
   68SAPC  H18X 5822   2.655  -0.201   8.191 -1.8684 -1.1204  0.1660
   68SAPC  H18Y 5823   2.653  -0.142   8.016 -2.6626 -1.5658 -1.3935
   68SAPC  H18Z 5824   2.523  -0.229   8.087  0.9927 -0.0015 -1.9999
   69SLPC     N 5825   2.953   4.639   9.926  0.5352 -0.2549  1.1638
   69SLPC   C13 5826   2.928   4.559  10.054  0.0686 -0.5918 -0.1639
   69SLPC  H13A 5827   3.020   4.528  10.102 -0.4292 -0.8109  0.6622
   69SLPC  H13B 5828   2.867   4.621  10.117  0.5766 -0.4565  0.1930
   69SLPC  H13C 5829   2.875   4.468  10.030 -2.0467  0.9226 -1.3813
   69SLPC   C14 5830   3.061   4.559   9.853 -0.3069  0.7249  0.2985
   69SLPC  H14A 5831   3.152   4.566   9.910 -0.0517 -0.5500  0.0679
   69SLPC  H14B 5832   3.037   4.458   9.823  1.8951  0.2373  0.0835
   69SLPC  H14C 5833   3.089   4.603   9.758  1.5869 -0.1740  0.4251
   69SLPC   C15 5834   3.013   4.770   9.961 -0.4678 -0.0215  0.6795
   69SLPC  H15A 5835   3.111   4.748   9.999 -0.7372 -1.9856  0.3040
   69SLPC  H15B 5836   3.018   4.838   9.877  0.8567 -0.1368  0.6522
   69SLPC  H15C 5837   2.973   4.823  10.046 -3.9129 -1.1077 -0.1783
   69SLPC   C12 5838   2.835   4.657   9.832  0.3752 -0.0884  0.5464
   69SLPC  H12A 5839   2.874   4.728   9.760 -0.4777 -1.6818 -1.5483
   69SLPC  H12B 5840   2.764   4.707   9.896  0.7863  0.5924  0.4806
   69SLPC   C11 5841   2.754   4.544   9.766  0.4012  0.6309 -0.5508
   69SLPC  H11A 5842   2.824   4.490   9.698 -2.0073  0.4084 -2.9391
   69SLPC  H11B 5843   2.685   4.586   9.690 -1.2368 -1.5837 -0.3084
   69SLPC     P 5844   2.709   4.299   9.843  0.1702 -0.6247  0.2628
   69SLPC   O13 5845   2.831   4.267   9.922 -0.9305  0.1653 -0.2429
   69SLPC   O14 5846   2.584   4.237   9.888  0.0678  0.1757 -0.4025
   69SLPC   O12 5847   2.680   4.458   9.858  0.1880 -0.2088 -0.3697
   69SLPC   O11 5848   2.742   4.270   9.685  0.6424  0.0854 -0.0179
   69SLPC    C1 5849   2.771   4.127   9.659  0.4325 -0.3733 -0.1348
   69SLPC    HA 5850   2.746   4.045   9.730  1.0663 -1.1378 -0.7916
   69SLPC    HB 5851   2.707   4.097   9.573  1.4394 -1.3777 -0.5464
   69SLPC    C2 5852   2.909   4.101   9.608 -0.6980 -0.4489  0.2326
   69SLPC    HS 5853   2.921   3.991   9.595  1.2335 -0.3421  0.9499
   69SLPC   O21 5854   3.015   4.143   9.698  0.5413  0.2434  0.1141
   69SLPC   C21 5855   3.023   4.077   9.813  0.5341 -0.9173  0.1870
   69SLPC   O22 5856   2.957   3.981   9.837  0.4646 -0.6141  0.4433
   69SLPC   C22 5857   3.131   4.143   9.898  0.3836  0.1173 -0.3580
   69SLPC   H2R 5858   3.098   4.245   9.930 -4.0683 -1.0997 -0.7379
   69SLPC   H2S 5859   3.126   4.084   9.992  0.8396  0.3021 -0.2145
   69SLPC    C3 5860   2.938   4.157   9.470 -0.1755 -0.2135 -0.0288
   69SLPC    HX 5861   2.931   4.268   9.474 -0.1213 -0.2269  0.4741
   69SLPC    HY 5862   2.854   4.129   9.403 -0.4093  0.9961 -0.2475
   69SLPC   O31 5863   3.065   4.112   9.416  0.6477  0.6131 -0.0758
   69SLPC   C31 5864   3.106   4.199   9.317  0.1862  0.1337 -0.6662
   69SLPC   O32 5865   3.036   4.286   9.271  0.6021  0.2095  0.4195
   69SLPC   C32 5866   3.246   4.171   9.272 -0.1734 -0.7284  0.3900
   69SLPC   H2X 5867   3.258   4.067   9.235  1.4354 -0.0316 -1.1053
   69SLPC   H2Y 5868   3.307   4.186   9.364 -0.6294 -1.7225  0.8541
   69SLPC   C23 5869   3.268   4.148   9.828 -0.2938 -0.6567 -0.0777
   69SLPC   H3R 5870   3.293   4.060   9.765  0.8719 -1.6581  1.7223
   69SLPC   H3S 5871   3.339   4.148   9.914 -0.5259 -2.9956  0.1430
   69SLPC   C24 5872   3.310   4.281   9.764 -0.1474 -0.6540  0.2679
   69SLPC   H4R 5873   3.292   4.363   9.837  1.5693  0.5735 -0.6346
   69SLPC   H4S 5874   3.239   4.296   9.680  0.0115 -1.4824 -0.0236
   69SLPC   C25 5875   3.453   4.275   9.713  0.2082 -0.5729 -0.0504
   69SLPC   H5R 5876   3.476   4.202   9.633 -0.7515  0.9723 -1.7846
   69SLPC   H5S 5877   3.509   4.261   9.808 -1.5425  3.5598  1.7377
   69SLPC   C26 5878   3.495   4.423   9.681 -0.3116  0.1102  0.2757
   69SLPC   H6R 5879   3.605   4.437   9.673 -0.3058  1.0900  1.7419
   69SLPC   H6S 5880   3.457   4.486   9.765  0.5699  0.4408  0.4364
   69SLPC   C27 5881   3.436   4.481   9.550 -1.2164  0.1633 -0.2193
   69SLPC   H7R 5882   3.333   4.441   9.547 -1.3221  0.4681 -0.6875
   69SLPC   H7S 5883   3.485   4.425   9.468 -0.0863 -2.3686  2.1050
   69SLPC   C28 5884   3.436   4.633   9.535  0.4066  0.9658 -0.5550
   69SLPC   H8R 5885   3.398   4.662   9.434  1.3894  0.5165 -1.0603
   69SLPC   H8S 5886   3.544   4.656   9.535  0.7222 -0.4729 -0.3459
   69SLPC   C29 5887   3.354   4.698   9.640  0.1478 -0.0062  0.3312
   69SLPC   H9R 5888   3.399   4.683   9.739 -0.5628 -2.5348  0.3099
   69SLPC  C210 5889   3.233   4.754   9.638 -0.0052  0.9854  0.7902
   69SLPC  H10R 5890   3.193   4.801   9.729  1.3490 -1.0676  2.4693
   69SLPC  C211 5891   3.139   4.774   9.516  0.8123 -0.1913 -0.2291
   69SLPC  H11R 5892   3.189   4.769   9.417 -0.0506  0.6575 -0.7214
   69SLPC  H11S 5893   3.098   4.877   9.526 -1.0418 -0.8129 -1.0873
   69SLPC  C212 5894   3.024   4.672   9.509 -0.3681  0.0795  0.2391
   69SLPC  H12R 5895   3.047   4.576   9.558 -0.6658  0.5805  1.3739
   69SLPC  C213 5896   2.901   4.684   9.451  0.2995 -0.1399 -0.8087
   69SLPC  H13R 5897   2.839   4.593   9.450  0.1761 -0.1016  1.3955
   69SLPC  C214 5898   2.858   4.805   9.367  0.7693 -0.1318 -0.1226
   69SLPC  H14R 5899   2.941   4.863   9.322  0.7443 -0.3161 -0.4080
   69SLPC  H14S 5900   2.811   4.876   9.439  1.1005  1.0399 -1.0627
   69SLPC  C215 5901   2.747   4.775   9.266  0.2625 -0.5428 -0.1698
   69SLPC  H15R 5902   2.790   4.731   9.174 -0.7156 -2.8716  0.4578
   69SLPC  H15S 5903   2.716   4.880   9.246  1.3092 -0.1509  0.2153
   69SLPC  C216 5904   2.626   4.702   9.328  1.0137  0.2967  0.2856
   69SLPC  H16R 5905   2.630   4.724   9.437  0.6335  0.5910  0.2420
   69SLPC  H16S 5906   2.628   4.593   9.305 -0.9565  0.4639 -0.8331
   69SLPC  C217 5907   2.487   4.751   9.278 -0.4699  0.0063 -0.7464
   69SLPC  H17R 5908   2.493   4.861   9.294  0.6090 -0.0527 -0.7161
   69SLPC  H17S 5909   2.407   4.729   9.352 -0.2662 -1.5469 -0.9852
   69SLPC  C218 5910   2.452   4.708   9.140 -0.4524  0.6066  0.0436
   69SLPC  H18R 5911   2.533   4.735   9.068 -1.9955  2.1800 -1.1548
   69SLPC  H18S 5912   2.358   4.761   9.115  0.0656  1.5931  0.1810
   69SLPC  H18T 5913   2.430   4.599   9.143 -0.3026  0.4342 -3.1309
   69SLPC   C33 5914   3.303   4.260   9.164  0.1679  0.2671 -1.1692
   69SLPC   H3X 5915   3.303   4.364   9.202  0.4935 -0.8974  2.2168
   69SLPC   H3Y 5916   3.251   4.245   9.067  1.0117  0.0832 -1.6034
   69SLPC   C34 5917   3.452   4.244   9.143  0.2326  0.0349  0.1288
   69SLPC   H4X 5918   3.478   4.143   9.105 -0.1713 -0.2308  0.5593
   69SLPC   H4Y 5919   3.505   4.256   9.240 -1.1346 -1.8504  1.1358
   69SLPC   C35 5920   3.506   4.346   9.045 -0.0526  0.1575  0.4015
   69SLPC   H5X 5921   3.510   4.442   9.102 -0.7431  0.2138  0.3571
   69SLPC   H5Y 5922   3.432   4.347   8.962 -1.4165  0.8026  1.5958
   69SLPC   C36 5923   3.643   4.304   8.998 -0.3073 -0.1511  0.5994
   69SLPC   H6X 5924   3.653   4.194   8.997 -0.8210 -0.1973  0.3368
   69SLPC   H6Y 5925   3.708   4.349   9.075 -0.8668  1.9496 -0.1112
   69SLPC   C37 5926   3.683   4.343   8.854 -0.2747  0.3304 -0.0175
   69SLPC   H7X 5927   3.693   4.453   8.840 -1.6412 -0.0899 -5.5573
   69SLPC   H7Y 5928   3.600   4.327   8.782 -0.5843 -1.6625  0.7383
   69SLPC   C38 5929   3.810   4.274   8.811  0.1722 -0.2811  0.6454
   69SLPC   H8X 5930   3.789   4.166   8.823  1.1456 -0.2548  2.6480
   69SLPC   H8Y 5931   3.895   4.306   8.875 -1.8464  0.4524  3.0469
   69SLPC   C39 5932   3.847   4.295   8.658  0.3114 -0.3400 -0.5987
   69SLPC   H9X 5933   3.932   4.228   8.632  0.2147 -0.8496  0.3552
   69SLPC   H9Y 5934   3.891   4.396   8.655 -0.2087 -0.0820  0.3712
   69SLPC  C310 5935   3.718   4.273   8.569  0.1041  0.5823  0.2137
   69SLPC  H10X 5936   3.752   4.305   8.468 -0.5306  1.8641  0.3938
   69SLPC  H10Y 5937   3.638   4.343   8.600  0.7596  1.3410  0.1937
   69SLPC  C311 5938   3.660   4.137   8.578 -0.0669 -0.2142 -0.2423
   69SLPC  H11X 5939   3.626   4.116   8.682 -0.4347 -1.4313 -0.5997
   69SLPC  H11Y 5940   3.745   4.065   8.571  1.7536  1.8012  0.5685
   69SLPC  C312 5941   3.533   4.111   8.493 -0.6936 -0.3251 -0.0427
   69SLPC  H12X 5942   3.481   4.016   8.519 -3.2956  0.4198 -2.1932
   69SLPC  H12Y 5943   3.555   4.106   8.384  3.3587 -0.8377  0.7432
   69SLPC  C313 5944   3.419   4.216   8.498  0.2879 -0.0907 -0.4696
   69SLPC  H13X 5945   3.332   4.184   8.437  1.6949  1.3815 -3.3320
   69SLPC  H13Y 5946   3.452   4.312   8.454 -2.1679  0.2668 -1.5901
   69SLPC  C314 5947   3.357   4.227   8.639 -0.9668 -0.4250 -1.2211
   69SLPC  H14X 5948   3.319   4.329   8.664 -0.6554 -0.5937 -0.0219
   69SLPC  H14Y 5949   3.435   4.216   8.718 -1.2785  2.2974 -0.4566
   69SLPC  C315 5950   3.249   4.120   8.658  0.3514 -0.6971  0.2417
   69SLPC  H15X 5951   3.302   4.023   8.674  2.7737  0.4533 -0.6195
   69SLPC  H15Y 5952   3.178   4.105   8.574 -0.0649  1.4934  0.1796
   69SLPC  C316 5953   3.150   4.162   8.776 -0.2815  0.2822  0.5962
   69SLPC  H16X 5954   3.133   4.272   8.768 -0.1029  0.2813  0.1822
   69SLPC  H16Y 5955   3.210   4.156   8.869  0.9123 -1.7410 -0.2695
   69SLPC  C317 5956   3.018   4.079   8.777  0.1957 -0.1586  0.7309
   69SLPC  H17X 5957   2.985   4.090   8.882  1.8236  1.0507  1.1333
   69SLPC  H17Y 5958   3.043   3.971   8.773 -1.7506 -0.6007  0.3054
   69SLPC  C318 5959   2.898   4.103   8.684 -0.0695 -0.3727 -1.0887
   69SLPC  H18X 5960   2.823   4.169   8.732 -0.0778 -2.1040  1.3805
   69SLPC  H18Y 5961   2.851   4.003   8.672 -1.4409 -0.1226  1.8289
   69SLPC  H18Z 5962   2.914   4.133   8.578  0.5830  1.8390 -0.3998
   70SLPC     N 5963   4.240   4.034   9.911  0.2705 -0.3207  0.2371
   70SLPC   C13 5964   4.121   4.011   9.816 -0.6121  0.1330  0.0742
   70SLPC  H13A 5965   4.031   3.978   9.865  0.1334 -0.2997  1.1673
   70SLPC  H13B 5966   4.104   4.107   9.770 -1.2976  0.7731  1.6194
   70SLPC  H13C 5967   4.153   3.940   9.741  0.7571 -0.3971  1.1413
   70SLPC   C14 5968   4.195   4.114  10.028  0.2810 -0.1782 -0.2394
   70SLPC  H14A 5969   4.120   4.057  10.082 -0.0247 -1.1339 -1.6455
   70SLPC  H14B 5970   4.274   4.151  10.092  0.2929  0.9483 -0.9090
   70SLPC  H14C 5971   4.140   4.200   9.995  1.4743  0.9837  0.7802
   70SLPC   C15 5972   4.350   4.111   9.843  0.1096  0.0732  0.1715
   70SLPC  H15A 5973   4.429   4.148   9.907 -1.5004  2.5968  0.7637
   70SLPC  H15B 5974   4.400   4.041   9.777  1.5443 -1.1780  2.5382
   70SLPC  H15C 5975   4.311   4.198   9.792  1.2345  0.1847 -0.5188
   70SLPC   C12 5976   4.294   3.908   9.964 -0.3679  1.1497  0.2468
   70SLPC  H12A 5977   4.219   3.864  10.028 -0.9076  3.0676  0.9400
   70SLPC  H12B 5978   4.383   3.937  10.017  0.9881 -1.1198 -0.6727
   70SLPC   C11 5979   4.334   3.803   9.859  0.3312 -1.0013 -0.1745
   70SLPC  H11A 5980   4.414   3.737   9.897  1.2471 -0.4493 -1.1333
   70SLPC  H11B 5981   4.375   3.842   9.764 -2.5226 -0.8956 -1.4280
   70SLPC     P 5982   4.167   3.615   9.941  0.1025  0.0245  0.2829
   70SLPC   O13 5983   4.285   3.543   9.992  1.1155  0.1095  0.1106
   70SLPC   O14 5984   4.083   3.678  10.044  0.3942 -0.1300  0.5812
   70SLPC   O12 5985   4.220   3.724   9.836  0.4631 -0.2061 -0.2148
   70SLPC   O11 5986   4.072   3.514   9.870  0.2243 -0.0268 -0.3692
   70SLPC    C1 5987   4.086   3.489   9.732 -0.1091 -0.2078  0.6094
   70SLPC    HA 5988   3.986   3.456   9.697  0.8828 -0.3704 -2.1995
   70SLPC    HB 5989   4.108   3.577   9.669  2.6253 -0.7210  0.7866
   70SLPC    C2 5990   4.197   3.387   9.704  0.4583 -0.2476  0.4149
   70SLPC    HS 5991   4.252   3.364   9.797 -1.5629 -2.6903  1.0301
   70SLPC   O21 5992   4.287   3.466   9.622  0.1073 -0.1425 -0.1209
   70SLPC   C21 5993   4.416   3.445   9.653 -0.2206 -0.1450  0.2927
   70SLPC   O22 5994   4.460   3.359   9.722 -0.8438  0.3825 -0.5710
   70SLPC   C22 5995   4.499   3.551   9.582 -0.7578 -0.4331 -0.4617
   70SLPC   H2R 5996   4.438   3.628   9.529 -0.8933 -0.8948 -0.9796
   70SLPC   H2S 5997   4.554   3.603   9.664  0.2400  0.1801 -1.5005
   70SLPC    C3 5998   4.160   3.250   9.643  0.7114 -0.4559  0.3274
   70SLPC    HX 5999   4.084   3.209   9.713  0.1650  1.7045  1.0424
   70SLPC    HY 6000   4.241   3.175   9.653 -0.4472 -1.8636 -0.7264
   70SLPC   O31 6001   4.128   3.259   9.501  0.6893 -0.6215 -0.0295
   70SLPC   C31 6002   4.001   3.231   9.469 -0.3627 -0.3325 -0.0363
   70SLPC   O32 6003   3.914   3.217   9.552  0.3048  0.5165  0.4783
   70SLPC   C32 6004   3.984   3.245   9.317  0.4190 -0.2474  0.2848
   70SLPC   H2X 6005   3.907   3.322   9.293  0.6058 -0.1143  0.1125
   70SLPC   H2Y 6006   3.940   3.148   9.287 -0.2402  0.5413 -1.3406
   70SLPC   C23 6007   4.594   3.494   9.482 -0.4162  0.3047  0.2406
   70SLPC   H3R 6008   4.657   3.412   9.522  0.1912  0.2047 -0.8757
   70SLPC   H3S 6009   4.661   3.575   9.446  1.0600  0.6750  3.6344
   70SLPC   C24 6010   4.531   3.443   9.354  0.3996  0.4315  0.8817
   70SLPC   H4R 6011   4.608   3.451   9.274 -0.7616 -1.3049 -0.4639
   70SLPC   H4S 6012   4.457   3.519   9.321  0.4719  0.3475  0.5218
   70SLPC   C25 6013   4.462   3.306   9.367 -0.3481  0.2857  0.1235
   70SLPC   H5R 6014   4.360   3.334   9.401 -0.7288  1.1261 -1.6707
   70SLPC   H5S 6015   4.511   3.251   9.450  3.8957  0.9653 -1.8184
   70SLPC   C26 6016   4.456   3.230   9.235  0.4570 -0.3072  0.0186
   70SLPC   H6R 6017   4.400   3.279   9.152 -2.1922 -2.7204  0.3004
   70SLPC   H6S 6018   4.413   3.129   9.253 -1.4729  0.4807 -0.0520
   70SLPC   C27 6019   4.597   3.194   9.184  0.1086  0.2510 -0.4217
   70SLPC   H7R 6020   4.655   3.184   9.279 -1.1954 -0.1029  0.3484
   70SLPC   H7S 6021   4.641   3.281   9.130  1.3361  0.5938  1.0810
   70SLPC   C28 6022   4.597   3.067   9.090 -0.5179 -0.2358  0.3609
   70SLPC   H8R 6023   4.534   2.989   9.139  0.4360 -2.1883 -1.4446
   70SLPC   H8S 6024   4.699   3.026   9.075 -0.6506 -0.2101 -0.6656
   70SLPC   C29 6025   4.550   3.109   8.951 -0.4019 -0.3441 -0.7476
   70SLPC   H9R 6026   4.580   3.210   8.919  0.1954 -0.7008 -1.3375
   70SLPC  C210 6027   4.459   3.050   8.872  1.3391  0.5363  0.2043
   70SLPC  H10R 6028   4.427   3.105   8.783  1.7267 -0.9998 -0.9144
   70SLPC  C211 6029   4.384   2.922   8.904  0.0889 -0.3268 -0.0184
   70SLPC  H11R 6030   4.385   2.883   9.008 -0.0748  0.5778  0.3220
   70SLPC  H11S 6031   4.420   2.840   8.838 -0.3918 -0.8263  0.3379
   70SLPC  C212 6032   4.229   2.943   8.880 -0.3181  0.0517 -0.5278
   70SLPC  H12R 6033   4.171   2.963   8.972 -0.3640 -1.5534 -0.1984
   70SLPC  C213 6034   4.174   2.961   8.758 -0.7747  0.0118  0.6569
   70SLPC  H13R 6035   4.073   3.001   8.741 -0.6818 -0.2157 -0.4401
   70SLPC  C214 6036   4.241   2.969   8.620  0.3996 -0.0086  0.0563
   70SLPC  H14R 6037   4.347   2.937   8.621  0.2577 -0.4964  1.0329
   70SLPC  H14S 6038   4.228   3.072   8.580  2.2522  0.5639  0.8942
   70SLPC  C215 6039   4.181   2.869   8.522  0.0944  0.3177  0.4342
   70SLPC  H15R 6040   4.070   2.872   8.522  0.0464 -1.0894  0.4186
   70SLPC  H15S 6041   4.216   2.765   8.541  2.9523  1.1537  0.0616
   70SLPC  C216 6042   4.230   2.890   8.377  0.2108 -0.5143 -0.9308
   70SLPC  H16R 6043   4.225   2.997   8.348  0.2687 -0.7404 -1.7813
   70SLPC  H16S 6044   4.160   2.834   8.312 -2.1522  1.5911 -0.2690
   70SLPC  C217 6045   4.372   2.836   8.351  0.2815 -0.3471 -0.4467
   70SLPC  H17R 6046   4.376   2.727   8.369 -1.1238 -0.7623 -2.4826
   70SLPC  H17S 6047   4.441   2.885   8.423  0.0043 -0.5513 -0.0467
   70SLPC  C218 6048   4.417   2.860   8.209  0.0586  0.4331 -0.7025
   70SLPC  H18R 6049   4.416   2.969   8.184  0.4478  0.4564 -0.6133
   70SLPC  H18S 6050   4.346   2.815   8.135  0.1375  0.8663 -1.0497
   70SLPC  H18T 6051   4.523   2.838   8.187  0.0606 -0.4081  0.1636
   70SLPC   C33 6052   4.104   3.274   9.228 -0.5531 -0.1406 -0.1707
   70SLPC   H3X 6053   4.171   3.188   9.246 -3.8653 -2.3552  2.0593
   70SLPC   H3Y 6054   4.161   3.359   9.273  0.3813 -1.1674  0.6164
   70SLPC   C34 6055   4.055   3.310   9.084 -0.4315  0.9354 -0.1709
   70SLPC   H4X 6056   3.978   3.390   9.093 -0.1881  1.3111 -1.3848
   70SLPC   H4Y 6057   4.007   3.221   9.040  0.6389 -0.1366  0.7964
   70SLPC   C35 6058   4.173   3.356   8.995  0.6586 -0.0913  0.0328
   70SLPC   H5X 6059   4.256   3.284   9.001 -0.5753 -1.5755 -0.3217
   70SLPC   H5Y 6060   4.214   3.452   9.033  0.3858  1.3065 -3.0765
   70SLPC   C36 6061   4.122   3.387   8.856 -0.2890  0.0630 -0.0193
   70SLPC   H6X 6062   4.031   3.451   8.856 -0.3053  0.1323  2.9357
   70SLPC   H6Y 6063   4.089   3.287   8.819  2.1821 -0.2568 -1.4993
   70SLPC   C37 6064   4.218   3.455   8.759 -0.0263  0.2692 -0.8708
   70SLPC   H7X 6065   4.305   3.386   8.752 -0.7993 -1.0115  1.6640
   70SLPC   H7Y 6066   4.256   3.552   8.797  2.0579 -0.5687 -0.7454
   70SLPC   C38 6067   4.153   3.478   8.619  0.1308 -0.4680 -0.5243
   70SLPC   H8X 6068   4.055   3.527   8.635  0.5314  0.2991 -0.4276
   70SLPC   H8Y 6069   4.114   3.383   8.577 -1.0554 -0.2095 -0.0340
   70SLPC   C39 6070   4.246   3.552   8.520  0.3759  0.2737  0.0541
   70SLPC   H9X 6071   4.259   3.652   8.566  0.7511  0.9288 -1.4439
   70SLPC   H9Y 6072   4.192   3.561   8.423  1.6948 -1.8606 -0.9321
   70SLPC  C310 6073   4.381   3.486   8.484  0.0023  0.2173  0.3147
   70SLPC  H10X 6074   4.449   3.481   8.572 -2.5883 -1.3381  2.3163
   70SLPC  H10Y 6075   4.428   3.558   8.414  2.6715 -1.8139 -0.0855
   70SLPC  C311 6076   4.369   3.362   8.402 -0.8744 -0.2287 -0.2979
   70SLPC  H11X 6077   4.307   3.401   8.318  0.4901  2.8918  0.0898
   70SLPC  H11Y 6078   4.308   3.285   8.455 -0.7665 -0.0223  0.1293
   70SLPC  C312 6079   4.501   3.306   8.354 -0.3838  0.0331 -0.0008
   70SLPC  H12X 6080   4.533   3.379   8.277  2.1572  0.7375  1.6987
   70SLPC  H12Y 6081   4.486   3.205   8.308 -0.9484 -0.3631  1.0336
   70SLPC  C313 6082   4.596   3.284   8.472 -0.2811 -0.4616 -0.2880
   70SLPC  H13X 6083   4.539   3.221   8.544  1.1695 -0.3842  0.9498
   70SLPC  H13Y 6084   4.628   3.383   8.511 -1.0835  0.5443 -2.0725
   70SLPC  C314 6085   4.728   3.218   8.421 -0.2781  0.1140  0.1336
   70SLPC  H14X 6086   4.718   3.110   8.400  0.7631 -0.4612  2.4958
   70SLPC  H14Y 6087   4.794   3.219   8.510  0.7720 -1.0103 -0.6112
   70SLPC  C315 6088   4.786   3.281   8.294  0.6198  0.2022 -0.5208
   70SLPC  H15X 6089   4.816   3.388   8.304  1.2877 -0.0408  0.1667
   70SLPC  H15Y 6090   4.714   3.284   8.210 -1.2615  2.8091  1.1106
   70SLPC  C316 6091   4.904   3.196   8.242 -0.1198 -0.5637  0.3692
   70SLPC  H16X 6092   4.863   3.094   8.227 -1.8737  0.1712  0.0123
   70SLPC  H16Y 6093   4.983   3.194   8.320  0.7657  1.9452 -0.4230
   70SLPC  C317 6094   4.971   3.232   8.112  0.5710  0.1197  0.2466
   70SLPC  H17X 6095   4.997   3.340   8.122 -0.5500  0.3144  1.1349
   70SLPC  H17Y 6096   4.897   3.219   8.030  2.3994  2.0730 -1.7588
   70SLPC  C318 6097   5.107   3.165   8.073  0.0762 -0.4369 -0.1957
   70SLPC  H18X 6098   5.100   3.062   8.033 -1.5958 -0.6796  0.6552
   70SLPC  H18Y 6099   5.186   3.169   8.151 -0.3742 -1.0984  0.2977
   70SLPC  H18Z 6100   5.166   3.213   7.992 -1.8115  0.3727 -1.1362
   71SLPC     N 6101   4.305   1.744   9.893 -0.8457 -0.4708 -0.1348
   71SLPC   C13 6102   4.332   1.722   9.745  0.1901  0.1258  0.1803
   71SLPC  H13A 6103   4.407   1.794   9.714  1.0720 -0.9141 -0.1378
   71SLPC  H13B 6104   4.359   1.620   9.724  0.0185  0.2315 -0.5756
   71SLPC  H13C 6105   4.235   1.738   9.700 -0.2059  0.4000  1.1310
   71SLPC   C14 6106   4.438   1.728   9.969 -0.6366 -0.2066  0.2571
   71SLPC  H14A 6107   4.511   1.804   9.946 -1.5764  1.2722  2.0136
   71SLPC  H14B 6108   4.430   1.725  10.077  3.3116  1.8795  0.6998
   71SLPC  H14C 6109   4.481   1.633   9.940  1.5395  0.6706  0.5254
   71SLPC   C15 6110   4.214   1.634   9.946 -0.1572 -0.6638 -0.5760
   71SLPC  H15A 6111   4.119   1.652   9.897 -0.9034  1.1535  1.4296
   71SLPC  H15B 6112   4.250   1.535   9.924  1.3679 -0.6676  1.7066
   71SLPC  H15C 6113   4.199   1.649  10.052  0.9765 -0.0829 -0.4961
   71SLPC   C12 6114   4.245   1.871   9.935  0.5040 -0.3239 -0.0533
   71SLPC  H12A 6115   4.309   1.956   9.952  1.7149 -1.0018 -1.0764
   71SLPC  H12B 6116   4.207   1.858  10.035  0.0837  2.8808  0.2389
   71SLPC   C11 6117   4.139   1.941   9.837 -0.0513 -0.4062 -0.2525
   71SLPC  H11A 6118   4.183   1.968   9.738  0.1446  1.0056  0.2143
   71SLPC  H11B 6119   4.114   2.041   9.878 -0.4812 -0.2072 -0.9872
   71SLPC     P 6120   3.899   1.844   9.914 -0.0784  0.1654  0.1210
   71SLPC   O13 6121   3.912   1.751  10.023 -0.4479  0.2670 -0.1489
   71SLPC   O14 6122   3.867   1.984   9.961 -0.2006  0.3339  0.1084
   71SLPC   O12 6123   4.024   1.854   9.820 -0.3754 -0.7716  0.0840
   71SLPC   O11 6124   3.782   1.793   9.823  0.2237 -0.1318  0.1863
   71SLPC    C1 6125   3.751   1.879   9.711 -0.0065  0.1444  0.4585
   71SLPC    HA 6126   3.833   1.946   9.678 -0.1973 -1.0792 -2.7676
   71SLPC    HB 6127   3.743   1.814   9.621  0.7736 -0.8800  1.1106
   71SLPC    C2 6128   3.616   1.965   9.728  0.3262 -0.4745 -0.7215
   71SLPC    HS 6129   3.625   2.001   9.833 -0.1002  0.2208 -0.9243
   71SLPC   O21 6130   3.504   1.877   9.706  0.0971 -0.0498 -0.0117
   71SLPC   C21 6131   3.400   1.911   9.772  0.4112 -0.0781  0.4987
   71SLPC   O22 6132   3.382   2.000   9.856 -0.2030  0.2966 -0.3962
   71SLPC   C22 6133   3.285   1.820   9.735  0.0449  0.0260 -0.0608
   71SLPC   H2R 6134   3.287   1.788   9.628 -2.2346  0.7776 -0.3496
   71SLPC   H2S 6135   3.301   1.727   9.793  3.4952 -0.3881 -1.5369
   71SLPC    C3 6136   3.622   2.096   9.630  0.3553 -0.1545  0.4976
   71SLPC    HX 6137   3.714   2.153   9.655  1.4927 -1.1503 -1.3012
   71SLPC    HY 6138   3.527   2.146   9.657 -1.5717 -1.3449 -3.6551
   71SLPC   O31 6139   3.627   2.064   9.488  0.5815  0.6129 -0.4242
   71SLPC   C31 6140   3.523   2.001   9.435 -0.4547 -0.4774 -0.2985
   71SLPC   O32 6141   3.410   1.995   9.475 -0.0297  0.1110 -0.2625
   71SLPC   C32 6142   3.583   1.939   9.312  0.0231  0.1938  0.4496
   71SLPC   H2X 6143   3.660   1.862   9.335 -0.0397 -0.2278 -0.6967
   71SLPC   H2Y 6144   3.610   2.024   9.246 -0.8859  1.1221  1.2598
   71SLPC   C23 6145   3.154   1.888   9.783 -0.2091  0.0171  0.2065
   71SLPC   H3R 6146   3.155   1.917   9.890 -1.0449  1.2764 -0.1019
   71SLPC   H3S 6147   3.080   1.806   9.780  0.0090 -0.1640 -0.3396
   71SLPC   C24 6148   3.108   2.004   9.690 -0.9516  0.1524 -0.3377
   71SLPC   H4R 6149   3.124   1.982   9.583 -0.8064  2.6138 -0.8619
   71SLPC   H4S 6150   3.164   2.098   9.712  1.6027 -1.6341  1.1406
   71SLPC   C25 6151   2.963   2.039   9.735 -0.0910 -0.3021  0.5575
   71SLPC   H5R 6152   2.941   2.005   9.839 -2.6754  1.2862  0.5868
   71SLPC   H5S 6153   2.898   1.972   9.675 -2.0413  2.0482 -0.0336
   71SLPC   C26 6154   2.920   2.187   9.732 -1.1360 -0.1649  0.0341
   71SLPC   H6R 6155   2.971   2.233   9.645  1.0594 -0.0252  1.3539
   71SLPC   H6S 6156   2.961   2.243   9.819  0.0130 -0.3197 -0.4016
   71SLPC   C27 6157   2.775   2.230   9.737 -0.0377  0.0692  1.1783
   71SLPC   H7R 6158   2.773   2.340   9.746 -0.5361  0.1699 -0.1028
   71SLPC   H7S 6159   2.735   2.182   9.829  3.2216 -1.4429  1.8782
   71SLPC   C28 6160   2.690   2.194   9.612  0.2643  0.1995 -0.2422
   71SLPC   H8R 6161   2.594   2.247   9.627  0.2592  0.1592 -0.1339
   71SLPC   H8S 6162   2.677   2.083   9.615  1.5331  0.0450 -0.0528
   71SLPC   C29 6163   2.737   2.250   9.478  0.1126  0.2254 -0.8352
   71SLPC   H9R 6164   2.729   2.360   9.479 -1.5955  0.1161 -0.7664
   71SLPC  C210 6165   2.785   2.184   9.370  0.4953  0.3071  0.6060
   71SLPC  H10R 6166   2.817   2.245   9.284  1.7707 -0.7581  0.3076
   71SLPC  C211 6167   2.808   2.037   9.344 -1.1093 -0.3551  0.2822
   71SLPC  H11R 6168   2.772   2.022   9.240  0.1199 -0.0264 -0.1969
   71SLPC  H11S 6169   2.746   1.968   9.405 -1.8206 -2.4994 -2.7273
   71SLPC  C212 6170   2.956   2.000   9.339  0.6085  0.8158  0.0967
   71SLPC  H12R 6171   3.018   2.069   9.398 -2.0883  0.8786  2.9188
   71SLPC  C213 6172   3.003   1.909   9.254  0.4327  0.5940  0.1004
   71SLPC  H13R 6173   3.110   1.884   9.262  0.8955  2.6265  0.5411
   71SLPC  C214 6174   2.928   1.839   9.141 -0.3210 -0.4440 -0.2281
   71SLPC  H14R 6175   2.820   1.862   9.127 -0.4965 -1.0564  0.0924
   71SLPC  H14S 6176   2.939   1.731   9.164 -0.3356 -0.5916 -0.9299
   71SLPC  C215 6177   2.979   1.838   9.000 -0.1816  0.1661  0.1217
   71SLPC  H15R 6178   2.973   1.941   8.957 -2.8388  1.2109  2.7925
   71SLPC  H15S 6179   2.923   1.764   8.938  2.5477 -0.0266 -2.2197
   71SLPC  C216 6180   3.133   1.802   8.985  0.0165 -0.1903 -0.6172
   71SLPC  H16R 6181   3.148   1.697   9.018  1.4542  0.3370  0.4777
   71SLPC  H16S 6182   3.196   1.872   9.045 -0.0074 -0.8784  0.2234
   71SLPC  C217 6183   3.187   1.814   8.834 -0.4523 -1.1564 -0.2242
   71SLPC  H17R 6184   3.295   1.789   8.842 -0.5714 -1.3232  0.8864
   71SLPC  H17S 6185   3.182   1.918   8.795 -1.9442 -0.2988  2.1549
   71SLPC  C218 6186   3.123   1.729   8.726  0.3700 -0.1085 -0.1402
   71SLPC  H18R 6187   3.169   1.764   8.631  0.6314 -0.4576 -0.1434
   71SLPC  H18S 6188   3.014   1.740   8.709  0.8094  1.0806 -2.3904
   71SLPC  H18T 6189   3.133   1.619   8.739 -3.6042 -0.3563  1.4647
   71SLPC   C33 6190   3.471   1.873   9.227 -0.6793 -0.2962  0.2153
   71SLPC   H3X 6191   3.510   1.841   9.128 -1.2700  0.1770 -0.1734
   71SLPC   H3Y 6192   3.387   1.944   9.212  2.1747  3.7438  2.4899
   71SLPC   C34 6193   3.423   1.739   9.291  0.5743  0.1213  0.6628
   71SLPC   H4X 6194   3.333   1.704   9.238  1.6968 -2.0393  0.1202
   71SLPC   H4Y 6195   3.390   1.748   9.396 -1.5841  0.5507 -0.0328
   71SLPC   C35 6196   3.518   1.619   9.284 -0.1176 -0.7809 -0.6612
   71SLPC   H5X 6197   3.459   1.534   9.325  2.3456 -1.1901  2.1845
   71SLPC   H5Y 6198   3.606   1.643   9.347  0.0904  0.3052 -1.3530
   71SLPC   C36 6199   3.571   1.586   9.149  0.3475  0.1591 -0.3097
   71SLPC   H6X 6200   3.637   1.500   9.170 -0.0105  0.0036  0.1915
   71SLPC   H6Y 6201   3.628   1.675   9.115 -1.1103  0.9354 -0.7760
   71SLPC   C37 6202   3.468   1.554   9.040 -0.3836 -0.7988  0.4053
   71SLPC   H7X 6203   3.389   1.631   9.047  1.4882  1.4121 -1.8798
   71SLPC   H7Y 6204   3.433   1.455   9.076 -2.2247  0.1662  1.3471
   71SLPC   C38 6205   3.513   1.538   8.898 -0.1381  0.1794 -0.5180
   71SLPC   H8X 6206   3.615   1.493   8.900  0.2436  0.9061 -2.2174
   71SLPC   H8Y 6207   3.527   1.633   8.841 -2.2447  2.1377  2.0789
   71SLPC   C39 6208   3.408   1.462   8.816  0.3036  0.7203 -0.1529
   71SLPC   H9X 6209   3.308   1.504   8.839  0.3890  0.2859  1.0019
   71SLPC   H9Y 6210   3.403   1.353   8.837  1.6484  0.1408 -2.6318
   71SLPC  C310 6211   3.430   1.492   8.668 -0.1446  0.6494  0.3216
   71SLPC  H10X 6212   3.534   1.465   8.638  0.1434  1.0657  0.9371
   71SLPC  H10Y 6213   3.428   1.603   8.663  1.1605  0.6546 -0.3846
   71SLPC  C311 6214   3.323   1.425   8.578  0.1154 -0.0963 -0.0530
   71SLPC  H11X 6215   3.218   1.457   8.588 -0.4790 -1.6815 -0.9703
   71SLPC  H11Y 6216   3.337   1.314   8.581 -1.3575 -0.3409 -1.7624
   71SLPC  C312 6217   3.364   1.456   8.430  0.6824 -0.0720 -0.5066
   71SLPC  H12X 6218   3.457   1.412   8.387 -0.1147 -0.2644 -2.0743
   71SLPC  H12Y 6219   3.369   1.566   8.419 -1.5635  0.0412 -0.7034
   71SLPC  C313 6220   3.259   1.413   8.323  0.3165 -0.0625 -0.2939
   71SLPC  H13X 6221   3.161   1.450   8.361 -0.1859 -1.8357  0.1654
   71SLPC  H13Y 6222   3.265   1.302   8.322  0.2757 -0.0623 -1.9097
   71SLPC  C314 6223   3.274   1.447   8.173 -0.1670  0.1313  0.6741
   71SLPC  H14X 6224   3.351   1.383   8.125 -0.3922  2.0694 -2.4305
   71SLPC  H14Y 6225   3.295   1.556   8.158  0.4811  0.0702  1.0836
   71SLPC  C315 6226   3.144   1.413   8.095 -0.2581  0.1109 -0.1977
   71SLPC  H15X 6227   3.064   1.447   8.164  1.9354  0.9248  2.0196
   71SLPC  H15Y 6228   3.140   1.302   8.085  0.2726  0.1779 -1.2456
   71SLPC  C316 6229   3.136   1.469   7.945  0.4270 -0.0170 -0.3873
   71SLPC  H16X 6230   3.159   1.578   7.946  1.1880 -0.1759  0.4911
   71SLPC  H16Y 6231   3.029   1.460   7.916  0.8376  0.5789 -2.1554
   71SLPC  C317 6232   3.224   1.392   7.851 -0.1517  0.1069  0.6195
   71SLPC  H17X 6233   3.217   1.283   7.870  2.6928 -0.1951  0.0366
   71SLPC  H17Y 6234   3.329   1.428   7.852  0.1083 -0.6347  0.5626
   71SLPC  C318 6235   3.189   1.400   7.700  0.0066 -0.2167  0.0717
   71SLPC  H18X 6236   3.167   1.505   7.674  1.2422  0.4503  1.6701
   71SLPC  H18Y 6237   3.096   1.342   7.683 -0.7294  0.9949 -0.0316
   71SLPC  H18Z 6238   3.270   1.358   7.635  0.2227  2.4534 -1.4479
   72SLPC     N 6239   5.788   6.253   9.918  0.1584 -0.2048 -0.7309
   72SLPC   C13 6240   5.765   6.282  10.066  0.4933  0.4681  0.2980
   72SLPC  H13A 6241   5.764   6.193  10.127 -0.1068  2.0048  2.5707
   72SLPC  H13B 6242   5.819   6.364  10.111  0.1697  1.0936 -0.4329
   72SLPC  H13C 6243   5.661   6.310  10.069  0.1181 -0.8536  0.1144
   72SLPC   C14 6244   5.792   6.381   9.843  0.3098 -0.0393 -0.1077
   72SLPC  H14A 6245   5.799   6.365   9.737 -2.0236 -1.2866 -0.1103
   72SLPC  H14B 6246   5.702   6.438   9.861  0.1670 -0.4149  0.3938
   72SLPC  H14C 6247   5.873   6.449   9.865  0.3861  0.1281 -0.8993
   72SLPC   C15 6248   5.682   6.162   9.865  0.8791 -0.0266 -0.2219
   72SLPC  H15A 6249   5.587   6.213   9.859  0.8145 -0.3730 -3.0900
   72SLPC  H15B 6250   5.702   6.147   9.760 -0.0472  1.0189 -0.5545
   72SLPC  H15C 6251   5.666   6.067   9.913  1.7809  0.5791  1.2908
   72SLPC   C12 6252   5.928   6.183   9.901  0.9858  0.3067  0.7825
   72SLPC  H12A 6253   5.929   6.096   9.964  2.3816 -1.8387 -2.0936
   72SLPC  H12B 6254   5.993   6.254   9.949 -0.4531  1.4543  1.0846
   72SLPC   C11 6255   5.983   6.148   9.762  0.3390  0.4784  0.2083
   72SLPC  H11A 6256   6.086   6.111   9.779 -0.2731 -0.7612  1.3497
   72SLPC  H11B 6257   6.002   6.245   9.711  0.2055 -0.4819 -1.7412
   72SLPC     P 6258   5.891   5.911   9.704  0.1525  0.2169 -0.6347
   72SLPC   O13 6259   5.794   5.865   9.803 -0.6647 -0.5294 -0.1206
   72SLPC   O14 6260   5.851   5.862   9.571 -0.0814  0.2797 -0.4043
   72SLPC   O12 6261   5.896   6.065   9.692 -0.6340  0.0214  0.2251
   72SLPC   O11 6262   6.036   5.866   9.736  0.4478  0.1848  0.1546
   72SLPC    C1 6263   6.150   5.834   9.655  0.1006  0.0362 -0.2779
   72SLPC    HA 6264   6.216   5.772   9.721 -0.6167  0.4631  0.8510
   72SLPC    HB 6265   6.120   5.770   9.569  0.3747 -0.2397 -0.1710
   72SLPC    C2 6266   6.227   5.956   9.594  0.6097  0.1510  0.4161
   72SLPC    HS 6267   6.233   6.023   9.682  1.9980 -0.4445  0.7770
   72SLPC   O21 6268   6.145   6.017   9.494  0.0680 -0.3600  0.2188
   72SLPC   C21 6269   6.180   6.133   9.465 -0.1614 -0.3109 -0.0814
   72SLPC   O22 6270   6.268   6.197   9.525  0.2276 -0.3481  0.9506
   72SLPC   C22 6271   6.106   6.187   9.350 -0.0256 -0.3519  0.3280
   72SLPC   H2R 6272   6.000   6.161   9.368 -0.2995  1.8274  2.0989
   72SLPC   H2S 6273   6.112   6.298   9.360 -1.3979 -0.3016  0.5836
   72SLPC    C3 6274   6.365   5.912   9.532  0.4147 -1.4301 -0.2136
   72SLPC    HX 6275   6.416   5.865   9.619  0.3859 -2.5235 -0.7809
   72SLPC    HY 6276   6.433   5.991   9.494  1.5295 -1.2315  2.0783
   72SLPC   O31 6277   6.334   5.821   9.425 -0.2482  0.0109 -0.0357
   72SLPC   C31 6278   6.426   5.727   9.410 -0.3522 -0.5219 -0.3940
   72SLPC   O32 6279   6.508   5.698   9.495 -0.8524 -0.0404  0.1526
   72SLPC   C32 6280   6.411   5.648   9.287  0.0551  0.0030  0.2966
   72SLPC   H2X 6281   6.458   5.550   9.306  0.2429 -0.1539 -0.9684
   72SLPC   H2Y 6282   6.468   5.698   9.206  0.8978 -0.3227  0.6838
   72SLPC   C23 6283   6.166   6.126   9.220 -0.2901 -0.6522  0.1429
   72SLPC   H3R 6284   6.131   6.183   9.132  2.7119 -1.2192 -1.4885
   72SLPC   H3S 6285   6.115   6.028   9.209 -1.3664 -0.1011  0.2267
   72SLPC   C24 6286   6.318   6.138   9.205 -0.0135 -0.0950 -0.4844
   72SLPC   H4R 6287   6.364   6.067   9.277 -0.1787  1.3039  1.0023
   72SLPC   H4S 6288   6.350   6.235   9.247 -2.7267  0.4638  0.3476
   72SLPC   C25 6289   6.367   6.113   9.060  0.0123 -0.6144  0.2902
   72SLPC   H5R 6290   6.477   6.129   9.053  0.2674 -1.1270  2.6184
   72SLPC   H5S 6291   6.320   6.196   9.005 -0.3142 -1.1474 -0.2436
   72SLPC   C26 6292   6.325   5.975   9.012 -0.5749  0.1364 -0.6023
   72SLPC   H6R 6293   6.215   5.964   9.024 -0.8024  0.2955 -2.4188
   72SLPC   H6S 6294   6.366   5.896   9.078 -0.1182  1.7452  1.1005
   72SLPC   C27 6295   6.371   5.957   8.865 -0.4197  0.1450 -0.0902
   72SLPC   H7R 6296   6.480   5.977   8.859 -0.7956  2.3071  0.1040
   72SLPC   H7S 6297   6.307   6.019   8.798  0.4089  0.6603 -0.4150
   72SLPC   C28 6298   6.352   5.812   8.816  0.0411  0.6638  0.5347
   72SLPC   H8R 6299   6.247   5.786   8.844  0.3499 -0.7227  0.4664
   72SLPC   H8S 6300   6.421   5.757   8.884  1.4217 -2.0426 -2.9322
   72SLPC   C29 6301   6.393   5.791   8.675  0.4216  0.5162 -0.8675
   72SLPC   H9R 6302   6.466   5.865   8.637 -0.0684 -0.3743 -3.6612
   72SLPC  C210 6303   6.349   5.697   8.584 -0.3297 -0.4619  0.0759
   72SLPC  H10R 6304   6.380   5.714   8.480  0.5962 -0.7053  0.3073
   72SLPC  C211 6305   6.254   5.584   8.607 -0.2490  0.2402 -0.0342
   72SLPC  H11R 6306   6.183   5.618   8.685 -0.5313  1.6487 -0.8971
   72SLPC  H11S 6307   6.307   5.493   8.642 -0.4782 -0.3585 -1.2502
   72SLPC  C212 6308   6.183   5.543   8.483  0.0208 -0.4598  0.5063
   72SLPC  H12R 6309   6.079   5.576   8.470 -0.8723 -3.1955  0.3808
   72SLPC  C213 6310   6.231   5.450   8.397  0.0225 -0.5670  0.0367
   72SLPC  H13R 6311   6.173   5.430   8.305 -1.6077  2.2392  0.3903
   72SLPC  C214 6312   6.355   5.378   8.408  1.1497 -0.1506  0.2194
   72SLPC  H14R 6313   6.338   5.278   8.454  0.0344  0.0289  0.2131
   72SLPC  H14S 6314   6.428   5.435   8.470  1.0851  0.4147 -0.2292
   72SLPC  C215 6315   6.436   5.362   8.278 -0.1882 -0.7225  0.2438
   72SLPC  H15R 6316   6.461   5.462   8.238  2.1644 -2.5536 -3.1148
   72SLPC  H15S 6317   6.371   5.313   8.202 -0.2219  1.8131 -1.4030
   72SLPC  C216 6318   6.563   5.292   8.299 -0.2183 -0.6438  0.2887
   72SLPC  H16R 6319   6.550   5.185   8.323 -2.4853 -0.2353  1.0281
   72SLPC  H16S 6320   6.612   5.346   8.383 -1.2213 -0.0907  0.5315
   72SLPC  C217 6321   6.660   5.281   8.175  0.0863 -0.8209 -0.0074
   72SLPC  H17R 6322   6.678   5.383   8.136  1.0125 -1.0920 -0.2987
   72SLPC  H17S 6323   6.598   5.222   8.104 -0.2363 -0.9210  0.3539
   72SLPC  C218 6324   6.799   5.226   8.213  0.2862 -0.0042  0.9054
   72SLPC  H18R 6325   6.840   5.267   8.307  0.3630  0.1603  0.7997
   72SLPC  H18S 6326   6.880   5.248   8.140  1.6596 -0.6579  2.2096
   72SLPC  H18T 6327   6.791   5.117   8.234 -1.3796  0.0700  0.6734
   72SLPC   C33 6328   6.266   5.631   9.244  0.7858 -0.7985 -0.0265
   72SLPC   H3X 6329   6.221   5.724   9.202  0.5433 -1.2839 -0.8507
   72SLPC   H3Y 6330   6.204   5.612   9.334  0.4028  1.8941  0.3054
   72SLPC   C34 6331   6.242   5.523   9.136  0.1768 -0.0566 -0.4338
   72SLPC   H4X 6332   6.281   5.429   9.180 -0.8040 -0.1474  0.2686
   72SLPC   H4Y 6333   6.308   5.545   9.049  0.6719 -0.1571 -0.0831
   72SLPC   C35 6334   6.098   5.518   9.091 -0.0879  0.1588 -0.6046
   72SLPC   H5X 6335   6.042   5.527   9.186  1.0925 -0.4688  0.1654
   72SLPC   H5Y 6336   6.077   5.417   9.049  2.2409 -0.0441 -1.3647
   72SLPC   C36 6337   6.072   5.617   8.978  0.9962  0.3762  0.8163
   72SLPC   H6X 6338   6.133   5.579   8.893  0.7202 -0.4201  0.9768
   72SLPC   H6Y 6339   6.100   5.722   9.002  0.9983  0.6034 -0.1517
   72SLPC   C37 6340   5.928   5.619   8.934  0.0569  0.6111  0.6856
   72SLPC   H7X 6341   5.873   5.664   9.019 -2.0598 -0.6092 -0.0145
   72SLPC   H7Y 6342   5.891   5.515   8.919  0.4688  0.5154  0.3318
   72SLPC   C38 6343   5.911   5.704   8.807  0.4218 -0.6328 -0.4370
   72SLPC   H8X 6344   5.805   5.690   8.777  0.2503  0.6669 -0.4745
   72SLPC   H8Y 6345   5.976   5.670   8.724  2.4949  0.6082  0.6608
   72SLPC   C39 6346   5.919   5.858   8.842  0.3945  0.3235  0.2047
   72SLPC   H9X 6347   6.020   5.867   8.887  0.1475  0.3257  0.7746
   72SLPC   H9Y 6348   5.847   5.895   8.919 -0.7547 -2.0134  0.3000
   72SLPC  C310 6349   5.920   5.946   8.718  0.0324  0.1990 -0.6833
   72SLPC  H10X 6350   5.923   6.053   8.749 -1.2236 -0.0336  0.2720
   72SLPC  H10Y 6351   5.832   5.927   8.653  2.1138 -2.6748 -2.7639
   72SLPC  C311 6352   6.040   5.926   8.623  0.2132 -0.6209  0.0768
   72SLPC  H11X 6353   6.021   5.833   8.565 -0.5425 -1.6028  1.8894
   72SLPC  H11Y 6354   6.138   5.912   8.673  0.5311 -3.1062 -1.1581
   72SLPC  C312 6355   6.059   6.043   8.522 -0.2360 -0.3170  0.3160
   72SLPC  H12X 6356   6.160   6.019   8.481 -0.1409  1.7236 -0.6881
   72SLPC  H12Y 6357   6.059   6.138   8.579  0.2577  1.1615 -2.0566
   72SLPC  C313 6358   5.952   6.052   8.411 -0.4097 -0.0295  0.2876
   72SLPC  H13X 6359   5.970   6.147   8.356 -2.0013 -0.1138 -0.4126
   72SLPC  H13Y 6360   5.852   6.068   8.459 -0.6999  1.2241 -0.7011
   72SLPC  C314 6361   5.955   5.922   8.329  0.0989  0.7893  0.1437
   72SLPC  H14X 6362   5.937   5.829   8.386 -1.2278 -0.1248 -1.7194
   72SLPC  H14Y 6363   6.048   5.912   8.269  0.5409  1.6405  0.6826
   72SLPC  C315 6364   5.846   5.917   8.225  0.0703 -0.0673  0.1078
   72SLPC  H15X 6365   5.742   5.904   8.262 -0.2996  1.1916 -0.4475
   72SLPC  H15Y 6366   5.862   5.823   8.168 -0.7347 -0.3307  0.3004
   72SLPC  C316 6367   5.845   6.042   8.142 -0.3492  0.4418 -0.6384
   72SLPC  H16X 6368   5.952   6.057   8.117  0.1900 -1.9188  0.0678
   72SLPC  H16Y 6369   5.809   6.127   8.203 -1.4776  1.3730 -2.5320
   72SLPC  C317 6370   5.753   6.043   8.014  0.4303 -0.2738  0.1038
   72SLPC  H17X 6371   5.799   5.968   7.946 -0.0973 -1.8433  1.4301
   72SLPC  H17Y 6372   5.762   6.144   7.970  0.7674  0.7936  2.5850
   72SLPC  C318 6373   5.604   6.006   8.042 -0.8388  0.2376  0.1027
   72SLPC  H18X 6374   5.585   5.901   8.071  1.7185 -0.1843  0.3539
   72SLPC  H18Y 6375   5.536   6.007   7.954 -0.3323  0.7436 -0.2901
   72SLPC  H18Z 6376   5.573   6.063   8.132 -0.1574 -2.2458  1.9575
   73SLPC     N 6377   6.840   5.603   9.724 -0.2114  0.0370  0.3136
   73SLPC   C13 6378   6.857   5.591   9.572 -0.5041  0.0629 -0.2102
   73SLPC  H13A 6379   6.957   5.616   9.543  0.5841 -0.7873  2.6593
   73SLPC  H13B 6380   6.854   5.486   9.547  2.5024  0.0326 -0.5226
   73SLPC  H13C 6381   6.783   5.647   9.516  0.1388  0.4313 -0.7010
   73SLPC   C14 6382   6.697   5.602   9.749 -0.2694  0.4914 -0.4812
   73SLPC  H14A 6383   6.674   5.641   9.848 -1.3170 -0.5823 -0.2895
   73SLPC  H14B 6384   6.640   5.644   9.667 -0.1007  0.6227 -0.5314
   73SLPC  H14C 6385   6.670   5.501   9.775 -0.7696  0.7751  0.1151
   73SLPC   C15 6386   6.900   5.734   9.765 -0.3498 -0.2429 -0.4679
   73SLPC  H15A 6387   6.860   5.816   9.706  0.9629  0.6096 -0.1885
   73SLPC  H15B 6388   6.890   5.760   9.870 -3.0811  0.1491 -0.7774
   73SLPC  H15C 6389   7.006   5.738   9.747 -0.2724  0.3604  0.0765
   73SLPC   C12 6390   6.910   5.482   9.795  0.0551 -0.5130 -0.1676
   73SLPC  H12A 6391   6.908   5.504   9.900 -0.6702  1.4645 -0.5577
   73SLPC  H12B 6392   7.014   5.489   9.769  0.5463 -1.9142  1.3724
   73SLPC   C11 6393   6.845   5.337   9.776  0.8199  0.0739 -0.3776
   73SLPC  H11A 6394   6.915   5.252   9.788 -1.4664 -2.2683 -2.9434
   73SLPC  H11B 6395   6.819   5.334   9.668 -1.2339  0.3731  0.0962
   73SLPC     P 6396   6.702   5.252   9.978  0.5851  0.1953  0.0314
   73SLPC   O13 6397   6.802   5.291  10.073 -0.3188 -0.5025  0.1129
   73SLPC   O14 6398   6.561   5.274  10.028 -0.1965 -0.3774  0.0751
   73SLPC   O12 6399   6.721   5.328   9.843  0.3374 -0.0733 -0.0338
   73SLPC   O11 6400   6.717   5.104   9.938  0.0977 -0.2136 -0.0905
   73SLPC    C1 6401   6.597   5.021   9.913 -0.0905  0.8578  0.0920
   73SLPC    HA 6402   6.534   5.018  10.004  0.3523 -1.5116  0.3336
   73SLPC    HB 6403   6.535   5.052   9.826 -0.3497 -2.0847 -0.8356
   73SLPC    C2 6404   6.652   4.886   9.858  0.1707  0.2730  0.1721
   73SLPC    HS 6405   6.728   4.837   9.923  1.1976  0.6994 -0.6955
   73SLPC   O21 6406   6.708   4.910   9.729  0.7090 -0.0743 -0.4496
   73SLPC   C21 6407   6.785   4.808   9.683  0.3204 -0.1057  0.1519
   73SLPC   O22 6408   6.816   4.714   9.742 -0.8157 -0.1954  0.4079
   73SLPC   C22 6409   6.826   4.838   9.537  0.4795 -0.8165  0.4976
   73SLPC   H2R 6410   6.739   4.804   9.476  0.5018 -0.3915  0.2299
   73SLPC   H2S 6411   6.823   4.948   9.527 -2.0099 -1.0568 -2.3153
   73SLPC    C3 6412   6.542   4.778   9.847  0.8776  0.2314 -0.1712
   73SLPC    HX 6413   6.516   4.759   9.953  2.3687 -2.3576 -0.2405
   73SLPC    HY 6414   6.585   4.679   9.821  2.1791  0.7395 -0.0030
   73SLPC   O31 6415   6.423   4.813   9.769  0.1111  0.1327 -0.0109
   73SLPC   C31 6416   6.411   4.791   9.644 -0.2755  0.4120  0.0261
   73SLPC   O32 6417   6.494   4.723   9.578 -0.1130  0.2810  0.1261
   73SLPC   C32 6418   6.272   4.857   9.594  0.6422  0.4685  0.4569
   73SLPC   H2X 6419   6.246   4.944   9.658 -1.9838 -0.2690  0.4606
   73SLPC   H2Y 6420   6.193   4.782   9.617  0.9545  0.8853  2.9932
   73SLPC   C23 6421   6.956   4.765   9.505  0.1874 -0.2128  0.3826
   73SLPC   H3R 6422   6.951   4.658   9.534  1.1952 -0.6527 -1.0451
   73SLPC   H3S 6423   7.028   4.799   9.583  1.6297  0.2356 -1.1376
   73SLPC   C24 6424   7.027   4.799   9.372  0.6008  1.0501  0.2080
   73SLPC   H4R 6425   6.984   4.891   9.326  0.5354  1.4999  1.1670
   73SLPC   H4S 6426   7.016   4.715   9.301  0.7842  0.0787  1.3169
   73SLPC   C25 6427   7.172   4.829   9.384 -0.3394 -0.2226 -0.6532
   73SLPC   H5R 6428   7.205   4.737   9.437  0.4408  0.2895 -0.2362
   73SLPC   H5S 6429   7.172   4.911   9.458  2.0721 -1.2664  0.5719
   73SLPC   C26 6430   7.246   4.846   9.257 -0.0054  1.1036 -0.0988
   73SLPC   H6R 6431   7.169   4.899   9.197 -0.4538 -0.4177 -0.9027
   73SLPC   H6S 6432   7.259   4.746   9.210  1.5540  0.6633  1.2270
   73SLPC   C27 6433   7.370   4.933   9.266  0.5921 -0.0031  0.2940
   73SLPC   H7R 6434   7.435   4.869   9.330 -0.1604 -0.3646  0.6963
   73SLPC   H7S 6435   7.345   5.028   9.317  1.6671  0.0404  0.7707
   73SLPC   C28 6436   7.439   4.954   9.131  0.5392  0.3028 -0.4237
   73SLPC   H8R 6437   7.471   4.861   9.079 -0.7243 -0.9296  0.9582
   73SLPC   H8S 6438   7.537   5.000   9.154  1.0024 -1.2654  0.8201
   73SLPC   C29 6439   7.377   5.057   9.038 -0.5540  0.1477 -0.2048
   73SLPC   H9R 6440   7.392   5.162   9.066 -0.1542  0.5829 -1.9896
   73SLPC  C210 6441   7.315   5.033   8.924 -0.4356  0.0788  0.3525
   73SLPC  H10R 6442   7.290   5.113   8.852  0.6729 -0.5256 -0.7326
   73SLPC  C211 6443   7.307   4.897   8.873  1.0102 -0.0202  0.0722
   73SLPC  H11R 6444   7.219   4.894   8.806  0.2028  0.3659  1.1085
   73SLPC  H11S 6445   7.281   4.825   8.953 -1.7850  1.0911  0.1972
   73SLPC  C212 6446   7.427   4.833   8.800 -0.2314  0.5944  0.0196
   73SLPC  H12R 6447   7.499   4.775   8.860  0.6272  0.5845 -0.9963
   73SLPC  C213 6448   7.456   4.862   8.668  0.4844 -0.1586  0.1897
   73SLPC  H13R 6449   7.534   4.805   8.615  1.5133  1.1964  0.2071
   73SLPC  C214 6450   7.368   4.947   8.584  0.0717  0.1054  0.5339
   73SLPC  H14R 6451   7.347   5.043   8.636  1.7637 -0.1153  1.6617
   73SLPC  H14S 6452   7.277   4.889   8.559  0.9351 -0.5433 -1.1331
   73SLPC  C215 6453   7.432   4.986   8.448 -0.3455 -0.7160  0.2948
   73SLPC  H15R 6454   7.537   5.022   8.462 -0.0286 -1.6515  0.3499
   73SLPC  H15S 6455   7.380   5.069   8.395  1.5056 -0.1174 -0.6658
   73SLPC  C216 6456   7.424   4.866   8.349 -0.9022  0.2677  0.3222
   73SLPC  H16R 6457   7.317   4.839   8.340 -0.5920 -1.1818  0.7741
   73SLPC  H16S 6458   7.477   4.773   8.381  1.6251  1.0957 -1.3201
   73SLPC  C217 6459   7.465   4.903   8.211 -0.4348  0.4709 -1.1874
   73SLPC  H17R 6460   7.572   4.929   8.224 -1.2466  2.4539  2.0884
   73SLPC  H17S 6461   7.409   4.995   8.183  1.5210  1.4493 -2.0079
   73SLPC  C218 6462   7.441   4.799   8.110  1.1443 -0.4870 -0.2445
   73SLPC  H18R 6463   7.332   4.785   8.096  0.2358  4.8479  0.5662
   73SLPC  H18S 6464   7.481   4.702   8.147 -1.8178 -1.6402  0.0571
   73SLPC  H18T 6465   7.478   4.821   8.008  1.1747  0.1147 -0.1093
   73SLPC   C33 6466   6.268   4.899   9.441 -0.2147  0.2832  0.2686
   73SLPC   H3X 6467   6.288   4.809   9.380 -1.2849 -0.4748  1.0291
   73SLPC   H3Y 6468   6.351   4.973   9.430 -0.0484 -0.0153 -0.5036
   73SLPC   C34 6469   6.141   4.962   9.399  0.0850 -0.8469  0.1193
   73SLPC   H4X 6470   6.132   5.065   9.440  1.0554 -0.5892 -0.3005
   73SLPC   H4Y 6471   6.046   4.925   9.444  0.0874  0.3470  1.1407
   73SLPC   C35 6472   6.128   4.979   9.244  0.0507 -0.1911  0.1958
   73SLPC   H5X 6473   6.029   5.028   9.232 -0.4569 -1.2527 -0.0659
   73SLPC   H5Y 6474   6.114   4.879   9.196 -0.2039 -0.6442  1.1943
   73SLPC   C36 6475   6.246   5.056   9.186 -0.1374 -0.6511  0.0635
   73SLPC   H6X 6476   6.340   5.012   9.226 -1.0697 -0.8329  2.1479
   73SLPC   H6Y 6477   6.252   5.165   9.204 -2.5064 -0.6794  1.2808
   73SLPC   C37 6478   6.251   5.043   9.037 -0.6823 -0.0394  1.0653
   73SLPC   H7X 6479   6.165   5.096   8.990  0.1984 -0.9491 -1.6247
   73SLPC   H7Y 6480   6.253   4.936   9.007  0.1942 -0.3055  2.0319
   73SLPC   C38 6481   6.378   5.118   8.981 -0.0422 -0.7107  0.4737
   73SLPC   H8X 6482   6.470   5.082   9.031 -0.6884 -2.7207  0.2750
   73SLPC   H8Y 6483   6.381   5.224   9.013 -0.8106  0.5738 -3.4521
   73SLPC   C39 6484   6.379   5.102   8.830 -0.5427  0.0426  0.4217
   73SLPC   H9X 6485   6.295   5.170   8.804 -0.1402 -0.0775 -1.2475
   73SLPC   H9Y 6486   6.366   4.997   8.796 -2.5137 -0.3724  2.3312
   73SLPC  C310 6487   6.500   5.151   8.746 -0.1590  0.2385 -0.5187
   73SLPC  H10X 6488   6.457   5.164   8.645 -3.4355  0.5957  0.8349
   73SLPC  H10Y 6489   6.581   5.074   8.747 -0.2047  0.1607 -2.4974
   73SLPC  C311 6490   6.549   5.292   8.795  0.4748 -0.4472  0.1546
   73SLPC  H11X 6491   6.565   5.278   8.905  0.5659 -2.2896 -0.0785
   73SLPC  H11Y 6492   6.467   5.363   8.773  0.6678  0.0150  0.8786
   73SLPC  C312 6493   6.680   5.325   8.730 -0.2730  0.1264 -0.3762
   73SLPC  H12X 6494   6.674   5.328   8.619  0.0086  1.3023 -0.3661
   73SLPC  H12Y 6495   6.757   5.246   8.742  1.1656  1.4487 -0.9204
   73SLPC  C313 6496   6.723   5.468   8.762 -0.0264 -0.2453 -0.0742
   73SLPC  H13X 6497   6.649   5.543   8.727  1.4897  0.4652 -1.8851
   73SLPC  H13Y 6498   6.816   5.486   8.704 -1.8377  2.5549 -2.2432
   73SLPC  C314 6499   6.761   5.498   8.907 -0.2603  0.4967 -0.3935
   73SLPC  H14X 6500   6.844   5.426   8.924  0.8568  1.4055 -1.8421
   73SLPC  H14Y 6501   6.676   5.468   8.973 -1.6622  0.2582 -2.2515
   73SLPC  C315 6502   6.829   5.632   8.934  0.0365  0.2257  0.2754
   73SLPC  H15X 6503   6.747   5.700   8.901  0.1262  1.0028  1.6304
   73SLPC  H15Y 6504   6.914   5.619   8.864  0.5065  1.6304  0.5884
   73SLPC  C316 6505   6.878   5.661   9.078 -0.1052  1.1045  0.8411
   73SLPC  H16X 6506   6.789   5.639   9.140 -0.5265  1.3163  0.3117
   73SLPC  H16Y 6507   6.904   5.768   9.089  1.9783  0.8804 -1.4173
   73SLPC  C317 6508   6.993   5.568   9.125  0.0372  0.8018  0.4268
   73SLPC  H17X 6509   7.086   5.606   9.077 -0.7307  1.1990 -0.7571
   73SLPC  H17Y 6510   6.979   5.462   9.093  0.8787  0.8662 -0.1875
   73SLPC  C318 6511   7.006   5.572   9.276  0.0625 -0.4020 -0.8295
   73SLPC  H18X 6512   6.924   5.518   9.328  1.1897 -1.1550  0.2012
   73SLPC  H18Y 6513   7.014   5.675   9.316  0.7082 -1.1643  1.0894
   73SLPC  H18Z 6514   7.105   5.532   9.309  0.4968  2.7788  1.9280
   74SLPC     N 6515   6.550   6.987  10.210 -0.8691  0.5172  0.4780
   74SLPC   C13 6516   6.508   6.858  10.148  0.7653  0.3855 -1.0215
   74SLPC  H13A 6517   6.535   6.851  10.044  0.8174 -2.0849 -0.8770
   74SLPC  H13B 6518   6.540   6.775  10.210  2.6964  1.6534 -0.2792
   74SLPC  H13C 6519   6.400   6.853  10.145  0.7221 -2.3332  2.0824
   74SLPC   C14 6520   6.702   6.996  10.206  0.2208 -0.0157  0.3276
   74SLPC  H14A 6521   6.731   7.091  10.249 -0.2719  1.6036 -2.8018
   74SLPC  H14B 6522   6.770   6.919  10.240  0.8437  1.6301  2.9918
   74SLPC  H14C 6523   6.725   6.993  10.101 -0.5649 -2.8914  0.2056
   74SLPC   C15 6524   6.516   6.978  10.357  0.9721  0.0316  0.0562
   74SLPC  H15A 6525   6.408   6.989  10.364  0.9257  0.4719 -1.3282
   74SLPC  H15B 6526   6.535   6.881  10.401 -0.7279 -0.8815 -1.1528
   74SLPC  H15C 6527   6.562   7.051  10.422 -0.1930 -0.4064  1.4203
   74SLPC   C12 6528   6.482   7.100  10.129 -0.1022  0.0727 -0.1952
   74SLPC  H12A 6529   6.507   7.196  10.171  1.7395 -0.3889 -0.1852
   74SLPC  H12B 6530   6.374   7.095  10.126 -0.2334  1.9127  0.7266
   74SLPC   C11 6531   6.516   7.116   9.981 -0.1213  0.2387 -0.1313
   74SLPC  H11A 6532   6.621   7.147   9.963 -0.1706  2.4285  2.8516
   74SLPC  H11B 6533   6.468   7.205   9.935  0.6371  0.0313 -1.3310
   74SLPC     P 6534   6.371   6.976   9.798  0.4911  0.1141  0.1608
   74SLPC   O13 6535   6.382   6.840   9.746 -0.6921  0.4038 -0.1549
   74SLPC   O14 6536   6.241   7.021   9.853  0.4200  0.2567  0.0183
   74SLPC   O12 6537   6.479   6.994   9.911  0.3169  0.2610  0.4832
   74SLPC   O11 6538   6.424   7.081   9.690  0.3991  0.4524 -0.0575
   74SLPC    C1 6539   6.537   7.062   9.610 -0.0611  0.9937  0.1681
   74SLPC    HA 6540   6.589   7.157   9.585 -0.4730  0.4994 -2.7591
   74SLPC    HB 6541   6.613   6.994   9.655  0.0830  0.8256 -0.3192
   74SLPC    C2 6542   6.493   7.015   9.471 -0.3152  0.1737  0.2814
   74SLPC    HS 6543   6.456   6.910   9.478 -0.4650  0.0494 -1.9979
   74SLPC   O21 6544   6.612   7.013   9.383  0.5751  0.4364  0.5811
   74SLPC   C21 6545   6.709   6.925   9.414 -0.5340  0.3541  0.2456
   74SLPC   O22 6546   6.700   6.835   9.499  0.0417 -0.3075  0.4394
   74SLPC   C22 6547   6.836   6.944   9.325 -0.7452  0.2005 -0.2767
   74SLPC   H2R 6548   6.876   7.040   9.365 -0.0471 -0.6896  1.2252
   74SLPC   H2S 6549   6.910   6.864   9.344 -0.7249 -0.0578 -1.4563
   74SLPC    C3 6550   6.384   7.104   9.411  0.0173 -0.2471  0.1043
   74SLPC    HX 6551   6.426   7.206   9.408  1.6475 -0.8418  1.6231
   74SLPC    HY 6552   6.306   7.106   9.491  0.7085  0.1418  0.7740
   74SLPC   O31 6553   6.328   7.060   9.287  0.1134  0.4534 -0.1995
   74SLPC   C31 6554   6.339   7.144   9.183 -0.2312 -0.4218  0.4737
   74SLPC   O32 6555   6.383   7.256   9.184  0.4758 -0.4756  0.6666
   74SLPC   C32 6556   6.282   7.076   9.067  0.4135  0.0613 -0.5574
   74SLPC   H2X 6557   6.172   7.087   9.073  0.0768 -1.6289 -2.8457
   74SLPC   H2Y 6558   6.317   6.970   9.065  0.3786  0.0627 -1.4711
   74SLPC   C23 6559   6.813   6.947   9.174 -0.0736 -0.3629 -0.2511
   74SLPC   H3R 6560   6.715   6.993   9.147 -1.5717 -1.9030  2.3725
   74SLPC   H3S 6561   6.811   6.842   9.140 -0.5956 -0.0525 -1.2090
   74SLPC   C24 6562   6.929   7.017   9.094  1.0271  0.0935 -0.7835
   74SLPC   H4R 6563   7.020   6.970   9.138  1.8063  1.9087 -0.4507
   74SLPC   H4S 6564   6.942   7.125   9.115  0.7327  0.1743 -1.0091
   74SLPC   C25 6565   6.930   7.002   8.940 -0.6094 -0.0589 -0.6687
   74SLPC   H5R 6566   6.848   7.065   8.898 -0.9430 -0.0883 -0.0657
   74SLPC   H5S 6567   6.919   6.897   8.907  0.3493 -0.8999  1.5884
   74SLPC   C26 6568   7.063   7.055   8.885 -0.2672 -0.2069  0.4723
   74SLPC   H6R 6569   7.139   6.988   8.931 -0.3815 -0.9401 -0.3841
   74SLPC   H6S 6570   7.090   7.149   8.938  0.4063 -0.2961  0.2845
   74SLPC   C27 6571   7.073   7.055   8.727  0.1136  0.1735 -0.5110
   74SLPC   H7R 6572   6.998   7.132   8.698  1.6697  1.6318 -0.7129
   74SLPC   H7S 6573   7.031   6.963   8.682  0.3205  0.3706 -1.1019
   74SLPC   C28 6574   7.220   7.090   8.685 -0.1334  0.0763  0.4030
   74SLPC   H8R 6575   7.293   7.020   8.731 -1.1135  0.0064  1.8817
   74SLPC   H8S 6576   7.233   7.191   8.727  0.1428 -0.6003  1.9807
   74SLPC   C29 6577   7.233   7.091   8.535 -0.0821  0.3931 -0.0535
   74SLPC   H9R 6578   7.261   6.994   8.491 -1.2129  0.2093 -0.3755
   74SLPC  C210 6579   7.227   7.201   8.458  0.3700  0.0547  0.3940
   74SLPC  H10R 6580   7.229   7.182   8.349 -0.0824 -0.5644  0.4938
   74SLPC  C211 6581   7.200   7.348   8.483 -0.0996  0.1772 -0.3743
   74SLPC  H11R 6582   7.147   7.368   8.578  0.7824  1.3208 -0.1094
   74SLPC  H11S 6583   7.138   7.391   8.402  1.7921 -0.4656 -2.2256
   74SLPC  C212 6584   7.331   7.412   8.490  0.4409  0.3040 -0.3015
   74SLPC  H12R 6585   7.425   7.360   8.516  1.1490  0.2509 -2.8495
   74SLPC  C213 6586   7.353   7.534   8.448 -0.2030 -0.5864 -0.0554
   74SLPC  H13R 6587   7.460   7.563   8.448 -0.3977  0.2106 -1.8361
   74SLPC  C214 6588   7.262   7.641   8.392  0.0262  0.7214 -0.0062
   74SLPC  H14R 6589   7.294   7.744   8.417  1.9254  0.4077 -1.1421
   74SLPC  H14S 6590   7.157   7.637   8.430 -0.2774  1.9089 -0.7184
   74SLPC  C215 6591   7.251   7.634   8.241  0.3891 -0.5597 -0.3130
   74SLPC  H15R 6592   7.200   7.538   8.218  1.0561 -1.0864  0.3530
   74SLPC  H15S 6593   7.350   7.638   8.191 -0.1862  0.4009 -1.4156
   74SLPC  C216 6594   7.163   7.757   8.187  0.3685 -0.6439 -0.2995
   74SLPC  H16R 6595   7.203   7.856   8.218  1.8190 -0.8541 -1.4316
   74SLPC  H16S 6596   7.063   7.747   8.234 -0.8313 -1.4650 -2.9385
   74SLPC  C217 6597   7.153   7.763   8.034  0.1261  0.5740 -0.2088
   74SLPC  H17R 6598   7.102   7.671   8.000  1.8829 -0.6519  0.4130
   74SLPC  H17S 6599   7.258   7.742   8.005  0.0550  1.1860 -0.9218
   74SLPC  C218 6600   7.095   7.901   7.985  0.3971 -0.0929 -0.2623
   74SLPC  H18R 6601   7.168   7.983   7.999 -0.2346  0.5558 -0.8066
   74SLPC  H18S 6602   6.994   7.922   8.026 -0.7132 -2.5464 -1.6573
   74SLPC  H18T 6603   7.073   7.901   7.877  0.4264  0.6528 -0.2664
   74SLPC   C33 6604   6.329   7.136   8.928  0.4008 -0.0553 -0.0460
   74SLPC   H3X 6605   6.439   7.147   8.930  0.3840  0.1134 -0.0178
   74SLPC   H3Y 6606   6.297   7.243   8.931 -0.2436 -0.2719  1.7784
   74SLPC   C34 6607   6.292   7.057   8.804  0.5559  0.0695 -0.3639
   74SLPC   H4X 6608   6.318   7.119   8.716  0.7664  1.0441  0.3668
   74SLPC   H4Y 6609   6.181   7.045   8.804  0.4418  1.0510 -0.7995
   74SLPC   C35 6610   6.372   6.926   8.793 -0.3033  0.5887 -0.3810
   74SLPC   H5X 6611   6.336   6.871   8.703  1.2285 -1.0339 -0.0285
   74SLPC   H5Y 6612   6.360   6.856   8.878  1.2018  1.1454  0.2976
   74SLPC   C36 6613   6.523   6.939   8.774  0.5124 -0.0464 -1.0070
   74SLPC   H6X 6614   6.576   6.842   8.782  1.6354  0.7719  2.1817
   74SLPC   H6Y 6615   6.572   7.008   8.846  3.1003 -3.3711  0.5649
   74SLPC   C37 6616   6.554   6.997   8.639 -0.5525 -0.2828  0.0638
   74SLPC   H7X 6617   6.539   7.107   8.632  1.2780  0.0557  1.2486
   74SLPC   H7Y 6618   6.506   6.949   8.551 -2.3448  2.3584 -0.4548
   74SLPC   C38 6619   6.699   6.981   8.601  0.0936  0.0860 -0.2702
   74SLPC   H8X 6620   6.728   6.874   8.611 -1.9138 -0.3295  1.3689
   74SLPC   H8Y 6621   6.759   7.034   8.677 -2.5232  1.9092  0.5783
   74SLPC   C39 6622   6.722   7.044   8.462  0.1024  0.2402 -0.3844
   74SLPC   H9X 6623   6.685   7.149   8.462  1.7439  0.8802  2.2591
   74SLPC   H9Y 6624   6.651   6.999   8.390 -3.5907  1.9231  2.0372
   74SLPC  C310 6625   6.866   7.049   8.411  0.1146  0.2495  0.2621
   74SLPC  H10X 6626   6.949   7.055   8.484  0.7915 -0.0084 -0.4739
   74SLPC  H10Y 6627   6.871   7.143   8.351 -0.0491  0.5080  0.6558
   74SLPC  C311 6628   6.892   6.948   8.297  0.0295 -0.1300 -0.2028
   74SLPC  H11X 6629   6.800   6.960   8.236  0.1166 -0.2415 -0.3571
   74SLPC  H11Y 6630   6.887   6.848   8.344  1.1133 -0.6882 -1.2562
   74SLPC  C312 6631   7.022   6.968   8.222 -0.2077  0.4649  0.7048
   74SLPC  H12X 6632   7.034   6.885   8.150 -1.1423  0.8618  0.0880
   74SLPC  H12Y 6633   7.107   6.970   8.294 -0.6812 -1.1064  1.3349
   74SLPC  C313 6634   7.024   7.100   8.146 -0.0864 -0.0011 -0.4216
   74SLPC  H13X 6635   7.002   7.186   8.212  1.4407  0.9166 -1.0856
   74SLPC  H13Y 6636   6.944   7.106   8.069  1.2798  1.0566 -1.7935
   74SLPC  C314 6637   7.155   7.143   8.070 -1.3806 -0.5488  0.5491
   74SLPC  H14X 6638   7.169   7.058   8.000 -0.6210  0.1340 -0.1255
   74SLPC  H14Y 6639   7.238   7.147   8.144 -2.4875  2.9315  1.7203
   74SLPC  C315 6640   7.138   7.288   8.008 -0.1835  0.2032  0.0128
   74SLPC  H15X 6641   7.104   7.348   8.096 -0.7079 -0.2218  0.1031
   74SLPC  H15Y 6642   7.062   7.285   7.927  0.5940 -1.2099 -0.6632
   74SLPC  C316 6643   7.253   7.354   7.937 -0.1010  0.1084  0.1919
   74SLPC  H16X 6644   7.239   7.463   7.920  2.9435  0.4635 -0.3917
   74SLPC  H16Y 6645   7.279   7.305   7.840  1.4218  0.6856  0.2952
   74SLPC  C317 6646   7.380   7.355   8.029  0.3945 -0.0246  0.3293
   74SLPC  H17X 6647   7.419   7.252   8.044  2.2703  0.4171 -1.2547
   74SLPC  H17Y 6648   7.359   7.380   8.135  5.2070  0.8645  1.2227
   74SLPC  C318 6649   7.504   7.424   7.977  0.3304 -0.0885 -0.7650
   74SLPC  H18X 6650   7.524   7.392   7.872 -1.5189  0.3643 -1.2896
   74SLPC  H18Y 6651   7.592   7.396   8.038  0.2868  1.2975 -0.0594
   74SLPC  H18Z 6652   7.490   7.533   7.960 -0.4696 -0.3271 -1.7182
   75SLPC     N 6653   1.406   2.521   5.908 -0.2346 -0.9173  0.8559
   75SLPC   C13 6654   1.550   2.493   5.948 -0.1987 -0.0374  0.3390
   75SLPC  H13A 6655   1.565   2.386   5.947 -0.9379 -0.1508  0.8435
   75SLPC  H13B 6656   1.626   2.544   5.891  1.3532  0.8135  3.1188
   75SLPC  H13C 6657   1.574   2.535   6.045  1.5499 -0.4943  0.1169
   75SLPC   C14 6658   1.395   2.469   5.770  0.1994 -0.1106 -0.1784
   75SLPC  H14A 6659   1.315   2.518   5.717 -1.3467 -2.5413 -0.1957
   75SLPC  H14B 6660   1.487   2.493   5.718  0.3558  1.2782  0.7259
   75SLPC  H14C 6661   1.374   2.363   5.771 -1.9943  0.2759 -1.2815
   75SLPC   C15 6662   1.396   2.670   5.917  0.5078 -0.0590 -0.2510
   75SLPC  H15A 6663   1.479   2.705   5.858  2.4471 -1.4627  1.5808
   75SLPC  H15B 6664   1.302   2.714   5.885  0.3368  0.1843  0.5826
   75SLPC  H15C 6665   1.408   2.705   6.019 -1.5889 -2.0824  0.7341
   75SLPC   C12 6666   1.317   2.452   6.006  0.1032  0.0480  0.2872
   75SLPC  H12A 6667   1.306   2.350   5.972 -0.4326  0.3602 -0.5109
   75SLPC  H12B 6668   1.218   2.492   5.987 -0.8951 -1.3896  2.2806
   75SLPC   C11 6669   1.349   2.467   6.158  0.2226  0.3839  0.9181
   75SLPC  H11A 6670   1.438   2.406   6.183 -0.1586  0.0629  1.5205
   75SLPC  H11B 6671   1.269   2.419   6.219 -1.3366  1.0884 -0.5053
   75SLPC     P 6672   1.471   2.665   6.285 -0.3324 -0.4311 -0.3709
   75SLPC   O13 6673   1.598   2.622   6.221 -0.2300  0.3677 -0.0373
   75SLPC   O14 6674   1.439   2.811   6.280  0.3381  0.0522  0.6189
   75SLPC   O12 6675   1.356   2.604   6.206  0.6736 -0.5212 -0.4079
   75SLPC   O11 6676   1.455   2.604   6.423 -0.4885 -0.2876  0.1916
   75SLPC    C1 6677   1.392   2.680   6.531 -0.4232 -0.4639  0.0730
   75SLPC    HA 6678   1.399   2.620   6.623  1.3098 -1.0134 -0.3916
   75SLPC    HB 6679   1.447   2.777   6.538  0.5199 -0.9408 -0.6188
   75SLPC    C2 6680   1.243   2.719   6.515 -0.3596 -0.0973 -0.0654
   75SLPC    HS 6681   1.231   2.766   6.415 -1.2786  1.6900  0.8607
   75SLPC   O21 6682   1.212   2.803   6.626  0.1885 -0.2856 -0.0368
   75SLPC   C21 6683   1.241   2.927   6.630 -0.1807  0.1218 -0.1794
   75SLPC   O22 6684   1.297   2.992   6.541  0.4458 -0.5106 -0.4496
   75SLPC   C22 6685   1.196   2.983   6.765  1.0497  0.4442 -0.1881
   75SLPC   H2R 6686   1.267   3.066   6.781  0.8129  0.4370  0.9702
   75SLPC   H2S 6687   1.097   3.034   6.760  1.4520  1.1133 -1.4902
   75SLPC    C3 6688   1.147   2.596   6.495 -0.1383  0.1013 -0.0888
   75SLPC    HX 6689   1.164   2.553   6.393  2.1842  1.0495 -0.1291
   75SLPC    HY 6690   1.040   2.621   6.483 -0.5914 -1.7192 -0.0514
   75SLPC   O31 6691   1.171   2.501   6.605  0.0251  0.2210 -0.3639
   75SLPC   C31 6692   1.091   2.517   6.706  0.3592  0.3641 -0.4192
   75SLPC   O32 6693   0.999   2.591   6.717 -0.9159  0.5384 -0.2904
   75SLPC   C32 6694   1.120   2.414   6.810  0.3484 -0.3458  0.2739
   75SLPC   H2X 6695   1.194   2.342   6.769 -1.1153 -1.8467  0.2301
   75SLPC   H2Y 6696   1.023   2.366   6.834 -1.6037  3.2183 -0.1138
   75SLPC   C23 6697   1.219   2.877   6.882  0.2205  0.2614  0.1969
   75SLPC   H3R 6698   1.319   2.832   6.866 -0.4300 -1.7189  1.5399
   75SLPC   H3S 6699   1.137   2.802   6.878 -0.7234  1.2051  1.3775
   75SLPC   C24 6700   1.212   2.945   7.014  0.0363 -0.4086 -0.0122
   75SLPC   H4R 6701   1.292   3.021   7.033  0.6539 -1.1210  0.2453
   75SLPC   H4S 6702   1.219   2.872   7.097 -0.3574  2.2059  2.4114
   75SLPC   C25 6703   1.070   3.010   7.037  1.0054 -0.3555 -0.1210
   75SLPC   H5R 6704   0.989   2.939   7.012  0.2652  1.3080 -2.6735
   75SLPC   H5S 6705   1.059   3.106   6.981 -3.1662  0.1218  1.3904
   75SLPC   C26 6706   1.053   3.051   7.185  0.6577  0.8296  0.4360
   75SLPC   H6R 6707   1.141   3.024   7.247  0.8097 -0.4871 -0.3569
   75SLPC   H6S 6708   0.967   2.989   7.218  0.3713  0.9057 -0.1609
   75SLPC   C27 6709   1.000   3.198   7.218  0.0561  0.6946  0.1016
   75SLPC   H7R 6710   0.901   3.218   7.171  0.5542  3.7941  0.2434
   75SLPC   H7S 6711   1.068   3.278   7.181 -2.2923  2.1407 -1.2362
   75SLPC   C28 6712   0.972   3.232   7.364 -0.3216 -0.2942  0.6060
   75SLPC   H8R 6713   0.931   3.334   7.374 -1.4449 -0.7640  0.7701
   75SLPC   H8S 6714   1.072   3.256   7.407 -0.1373 -1.2095  0.7041
   75SLPC   C29 6715   0.903   3.135   7.457  0.5046 -1.1746  0.3516
   75SLPC   H9R 6716   0.802   3.103   7.428  1.4659 -4.9595  0.8066
   75SLPC  C210 6717   0.961   3.067   7.560  0.5999  0.6725  0.1784
   75SLPC  H10R 6718   0.894   3.012   7.627 -2.1922 -0.6390 -3.5087
   75SLPC  C211 6719   1.108   3.075   7.596  0.2160 -0.4264  0.2970
   75SLPC  H11R 6720   1.173   3.087   7.507  2.5575  2.3630  2.2759
   75SLPC  H11S 6721   1.142   2.974   7.628  2.5546 -0.2067 -1.3853
   75SLPC  C212 6722   1.154   3.180   7.700 -0.1891  0.1600 -0.2835
   75SLPC  H12R 6723   1.140   3.280   7.657  1.6733 -0.3905 -2.2796
   75SLPC  C213 6724   1.192   3.149   7.827  0.0041 -0.1112  0.7178
   75SLPC  H13R 6725   1.216   3.237   7.890 -2.4448  1.1307 -0.0145
   75SLPC  C214 6726   1.213   3.010   7.887  0.6712  0.0299  0.6025
   75SLPC  H14R 6727   1.218   2.933   7.807 -0.6487 -0.4651  0.9805
   75SLPC  H14S 6728   1.136   2.986   7.963  1.5486 -1.4560  1.0363
   75SLPC  C215 6729   1.354   3.005   7.958  0.3396  0.1198  0.2625
   75SLPC  H15R 6730   1.356   3.094   8.025 -0.2103  0.0792  0.3299
   75SLPC  H15S 6731   1.442   3.024   7.893  1.5160  1.3992  2.1541
   75SLPC  C216 6732   1.376   2.874   8.035 -0.2186  0.1763  1.0249
   75SLPC  H16R 6733   1.371   2.782   7.974  0.1375  1.0759 -0.4003
   75SLPC  H16S 6734   1.299   2.869   8.115  1.1856  1.1883  2.4723
   75SLPC  C217 6735   1.523   2.865   8.096 -0.3245  0.6855 -0.1888
   75SLPC  H17R 6736   1.549   2.957   8.151  0.3908  0.7098 -0.5661
   75SLPC  H17S 6737   1.600   2.862   8.016  1.5646  1.9291  1.5416
   75SLPC  C218 6738   1.562   2.751   8.190  0.2085  0.6615 -0.0787
   75SLPC  H18R 6739   1.558   2.652   8.140 -1.6300 -0.3034  1.8931
   75SLPC  H18S 6740   1.506   2.748   8.286  0.2196 -1.6842 -0.1168
   75SLPC  H18T 6741   1.671   2.762   8.213  0.6399 -2.4492 -0.4244
   75SLPC   C33 6742   1.165   2.489   6.944 -0.0925 -0.3778  0.6291
   75SLPC   H3X 6743   1.131   2.595   6.951  0.2397 -0.2470  0.2795
   75SLPC   H3Y 6744   1.128   2.435   7.033  0.1497  0.4603  1.2389
   75SLPC   C34 6745   1.318   2.481   6.945 -0.8228  0.4437  0.2913
   75SLPC   H4X 6746   1.357   2.545   6.862 -0.5085 -1.2128 -0.8626
   75SLPC   H4Y 6747   1.342   2.373   6.935 -1.4600  0.2742  0.5782
   75SLPC   C35 6748   1.392   2.535   7.065  0.2070 -0.2627 -0.2171
   75SLPC   H5X 6749   1.365   2.642   7.074 -0.4846 -0.3615 -1.0809
   75SLPC   H5Y 6750   1.500   2.516   7.050  0.5523 -0.3851  2.1926
   75SLPC   C36 6751   1.353   2.468   7.199  0.1120  0.0766 -0.3977
   75SLPC   H6X 6752   1.354   2.358   7.181 -0.0461 -0.2764  1.6193
   75SLPC   H6Y 6753   1.248   2.495   7.223 -0.0638  0.4595 -1.5693
   75SLPC   C37 6754   1.435   2.518   7.319  0.2280  0.0634  0.6363
   75SLPC   H7X 6755   1.373   2.540   7.408 -0.1075  0.4461  0.3087
   75SLPC   H7Y 6756   1.476   2.619   7.299  1.6507 -0.4404  0.9039
   75SLPC   C38 6757   1.544   2.424   7.361  0.0499  0.4333  0.0698
   75SLPC   H8X 6758   1.629   2.424   7.289 -0.3468 -0.7986 -0.4125
   75SLPC   H8Y 6759   1.509   2.318   7.364 -0.5772  0.6781  2.0542
   75SLPC   C39 6760   1.593   2.464   7.500  0.4358 -0.2208  0.1728
   75SLPC   H9X 6761   1.507   2.439   7.566  0.3697 -3.1429 -0.9416
   75SLPC   H9Y 6762   1.621   2.569   7.520  0.8632 -0.0903 -1.0788
   75SLPC  C310 6763   1.711   2.379   7.556  0.1395 -0.2701  0.1515
   75SLPC  H10X 6764   1.799   2.420   7.502  0.4382  0.2324  1.0071
   75SLPC  H10Y 6765   1.691   2.271   7.535 -0.3789 -0.2415  0.4832
   75SLPC  C311 6766   1.736   2.396   7.708  0.6508 -0.2790 -0.2410
   75SLPC  H11X 6767   1.730   2.506   7.723 -0.2642 -0.3967  0.2713
   75SLPC  H11Y 6768   1.833   2.360   7.749  0.1690  0.1125  1.2961
   75SLPC  C312 6769   1.624   2.324   7.795  0.5459  0.1262 -0.0807
   75SLPC  H12X 6770   1.624   2.217   7.767  1.5091  0.4141 -1.2220
   75SLPC  H12Y 6771   1.530   2.376   7.766  1.2371  0.8344 -1.0912
   75SLPC  C313 6772   1.657   2.339   7.943 -0.4848 -0.0349  0.1906
   75SLPC  H13X 6773   1.617   2.437   7.976 -1.4796 -0.9365  1.7309
   75SLPC  H13Y 6774   1.766   2.342   7.963 -0.6255  0.6028  0.8712
   75SLPC  C314 6775   1.598   2.231   8.034  0.2314 -0.3607  0.4909
   75SLPC  H14X 6776   1.634   2.263   8.135  2.3509 -0.6254 -0.1559
   75SLPC  H14Y 6777   1.648   2.137   8.003 -2.0535 -1.0428 -1.2197
   75SLPC  C315 6778   1.443   2.217   8.031  0.0380  0.7700 -0.7910
   75SLPC  H15X 6779   1.413   2.170   7.935 -1.5173  0.7514 -0.3083
   75SLPC  H15Y 6780   1.384   2.310   8.026  1.4439  1.7624  0.5388
   75SLPC  C316 6781   1.399   2.128   8.149  0.3954  0.0226 -0.7690
   75SLPC  H16X 6782   1.406   2.187   8.243 -2.0448  1.2549 -1.3242
   75SLPC  H16Y 6783   1.462   2.037   8.163  1.7041  1.1472  0.8536
   75SLPC  C317 6784   1.257   2.075   8.131  0.6672 -0.3174 -0.3741
   75SLPC  H17X 6785   1.256   2.018   8.036  1.2059  1.0502 -1.2277
   75SLPC  H17Y 6786   1.202   2.171   8.119  0.0566 -0.1774  3.0694
   75SLPC  C318 6787   1.203   1.994   8.249  0.1295  0.1622  0.0747
   75SLPC  H18X 6788   1.197   2.060   8.338 -0.9239 -0.6804  0.6398
   75SLPC  H18Y 6789   1.272   1.910   8.270  0.6940  0.2201 -1.4598
   75SLPC  H18Z 6790   1.102   1.953   8.227 -0.8451  2.2907  0.4648
   76SLPC     N 6791   2.000   0.768   5.909 -0.0635 -0.4074  0.0446
   76SLPC   C13 6792   2.070   0.865   5.831  0.1920  0.2301 -0.6706
   76SLPC  H13A 6793   2.044   0.874   5.727  0.7020 -1.9986 -1.0255
   76SLPC  H13B 6794   2.066   0.961   5.881 -2.5710  0.1704 -0.7076
   76SLPC  H13C 6795   2.176   0.843   5.827  0.3728  0.2051  2.6841
   76SLPC   C14 6796   2.044   0.632   5.862  1.1426 -0.4643  0.7357
   76SLPC  H14A 6797   2.018   0.616   5.758  0.9548  2.1906  0.3448
   76SLPC  H14B 6798   2.150   0.613   5.876  1.4411 -0.9350 -1.8332
   76SLPC  H14C 6799   1.986   0.558   5.915 -0.9662 -0.2874 -1.2500
   76SLPC   C15 6800   1.849   0.778   5.898 -1.0089 -0.1240 -0.1808
   76SLPC  H15A 6801   1.797   0.701   5.952  1.0287 -0.1924  1.7800
   76SLPC  H15B 6802   1.813   0.868   5.945  1.1299  2.1893 -2.7562
   76SLPC  H15C 6803   1.821   0.781   5.794 -1.1666 -2.5333 -0.2398
   76SLPC   C12 6804   2.050   0.766   6.056 -0.1184 -0.2354 -0.3374
   76SLPC  H12A 6805   2.157   0.753   6.048  0.1881  1.1144  1.2842
   76SLPC  H12B 6806   2.002   0.686   6.111  0.3096  1.5974  2.8364
   76SLPC   C11 6807   2.033   0.892   6.139 -0.1614 -0.6194 -0.2467
   76SLPC  H11A 6808   2.048   0.872   6.248  1.2036  1.3484 -0.0448
   76SLPC  H11B 6809   1.928   0.925   6.137  0.1740  0.4130 -3.4071
   76SLPC     P 6810   2.280   0.981   6.141 -0.1970 -0.1746  0.0597
   76SLPC   O13 6811   2.329   0.845   6.127 -0.2853 -0.4508 -0.8092
   76SLPC   O14 6812   2.369   1.083   6.078  0.1655  0.1044 -0.6231
   76SLPC   O12 6813   2.126   0.992   6.093  0.2717 -0.4410  0.1315
   76SLPC   O11 6814   2.262   1.014   6.295 -0.1406  0.4249 -0.2233
   76SLPC    C1 6815   2.320   0.925   6.397  0.0278 -0.1430  0.4859
   76SLPC    HA 6816   2.267   0.944   6.493  0.9522  0.8626  0.8118
   76SLPC    HB 6817   2.295   0.820   6.375 -0.6577 -0.2110  1.5586
   76SLPC    C2 6818   2.471   0.950   6.409  0.4490  0.0541  0.0597
   76SLPC    HS 6819   2.522   0.938   6.310 -1.2430  1.4236 -0.9883
   76SLPC   O21 6820   2.521   0.839   6.489 -0.0357 -0.2328 -0.1351
   76SLPC   C21 6821   2.648   0.811   6.481  0.7529 -0.2569 -0.0657
   76SLPC   O22 6822   2.726   0.863   6.403  0.7461 -0.0242  0.3698
   76SLPC   C22 6823   2.685   0.713   6.594 -0.2274  0.0528  0.2223
   76SLPC   H2R 6824   2.620   0.728   6.682 -0.1307 -2.2107  0.7078
   76SLPC   H2S 6825   2.662   0.610   6.559  1.5873 -0.5613  0.7709
   76SLPC    C3 6826   2.495   1.092   6.470 -0.2588  0.7158 -0.1580
   76SLPC    HX 6827   2.434   1.159   6.406  1.4171 -0.4552 -3.0866
   76SLPC    HY 6828   2.600   1.127   6.466 -0.4181  1.1521 -0.6019
   76SLPC   O31 6829   2.453   1.097   6.605 -0.5368 -0.3396 -0.2223
   76SLPC   C31 6830   2.385   1.202   6.639  0.2281 -0.3877 -0.0050
   76SLPC   O32 6831   2.356   1.297   6.577 -0.6839 -0.7155  0.6096
   76SLPC   C32 6832   2.358   1.189   6.788  0.2353  0.6109 -0.1071
   76SLPC   H2X 6833   2.413   1.102   6.830  0.3140  1.1169  0.8596
   76SLPC   H2Y 6834   2.249   1.171   6.803  0.1493  0.3965 -0.9427
   76SLPC   C23 6835   2.829   0.724   6.640  0.3162 -0.1619 -0.1034
   76SLPC   H3R 6836   2.853   0.829   6.668  2.5719 -0.5128 -0.6540
   76SLPC   H3S 6837   2.904   0.711   6.559  1.6675  0.9011  0.9452
   76SLPC   C24 6838   2.884   0.640   6.753 -0.1380 -0.4509 -0.2424
   76SLPC   H4R 6839   2.892   0.540   6.705 -0.2650 -0.2960 -0.5923
   76SLPC   H4S 6840   2.810   0.637   6.835  0.2436 -2.3157  0.0577
   76SLPC   C25 6841   3.019   0.668   6.819  0.1702  0.1035  0.1323
   76SLPC   H5R 6842   3.055   0.575   6.869  2.0335  0.8333  0.1873
   76SLPC   H5S 6843   3.009   0.757   6.884  1.0836  1.5741 -1.6871
   76SLPC   C26 6844   3.130   0.700   6.711 -0.3237  0.3214 -0.0666
   76SLPC   H6R 6845   3.112   0.801   6.668 -4.5445  0.1162  0.9873
   76SLPC   H6S 6846   3.113   0.628   6.629  0.4794 -1.0265  0.9235
   76SLPC   C27 6847   3.277   0.678   6.756 -1.1363 -0.6843 -0.0182
   76SLPC   H7R 6848   3.300   0.741   6.845  0.1219 -1.6264  0.3441
   76SLPC   H7S 6849   3.349   0.706   6.676  0.1726  1.1792  1.7639
   76SLPC   C28 6850   3.317   0.531   6.781 -0.0245 -0.1678  0.0670
   76SLPC   H8R 6851   3.252   0.475   6.853 -1.1089  0.9459 -0.0324
   76SLPC   H8S 6852   3.307   0.484   6.681  2.3839 -0.1568 -0.1857
   76SLPC   C29 6853   3.462   0.514   6.804 -0.0013 -0.1900  0.1487
   76SLPC   H9R 6854   3.519   0.502   6.711  1.8186 -2.5751  1.5138
   76SLPC  C210 6855   3.525   0.524   6.929 -0.5222 -0.3320 -0.0770
   76SLPC  H10R 6856   3.630   0.490   6.935 -0.1624  0.2148 -2.8622
   76SLPC  C211 6857   3.454   0.560   7.055 -0.2628  0.2103  0.2120
   76SLPC  H11R 6858   3.375   0.484   7.071  0.8936 -1.1853 -0.5433
   76SLPC  H11S 6859   3.400   0.655   7.040  1.3679  0.9961 -0.8369
   76SLPC  C212 6860   3.552   0.581   7.169 -0.3048 -0.4143  1.0398
   76SLPC  H12R 6861   3.629   0.654   7.139 -0.0289 -0.9119  0.5410
   76SLPC  C213 6862   3.539   0.542   7.297 -0.7851 -0.6689 -0.2606
   76SLPC  H13R 6863   3.606   0.595   7.367  0.1892  1.1649 -2.5219
   76SLPC  C214 6864   3.441   0.444   7.345  0.3983  0.7351  0.3475
   76SLPC  H14R 6865   3.471   0.344   7.307 -1.1092  0.8301 -1.1371
   76SLPC  H14S 6866   3.344   0.483   7.306 -0.0836  1.3069  2.0821
   76SLPC  C215 6867   3.447   0.461   7.495 -0.8118 -0.7545  0.3440
   76SLPC  H15R 6868   3.416   0.561   7.533 -1.7627 -0.6754 -0.6140
   76SLPC  H15S 6869   3.551   0.449   7.531 -0.3683  0.3775 -0.5536
   76SLPC  C216 6870   3.363   0.351   7.568 -0.1382 -0.0991 -0.1310
   76SLPC  H16R 6871   3.355   0.261   7.503  0.9183  2.7994 -4.5256
   76SLPC  H16S 6872   3.262   0.388   7.596 -0.3802 -1.6283  1.0710
   76SLPC  C217 6873   3.419   0.299   7.703 -0.3537 -0.4022  0.4909
   76SLPC  H17R 6874   3.524   0.268   7.686 -0.5720 -2.1601  2.1146
   76SLPC  H17S 6875   3.370   0.205   7.737  0.2047 -0.5498  0.8880
   76SLPC  C218 6876   3.432   0.412   7.812 -0.1638 -0.4494  0.3393
   76SLPC  H18R 6877   3.488   0.376   7.901 -0.6641  1.3712  1.4109
   76SLPC  H18S 6878   3.325   0.436   7.831 -0.1388 -0.3985  0.4167
   76SLPC  H18T 6879   3.490   0.494   7.764  0.2615 -2.2135 -2.2818
   76SLPC   C33 6880   2.405   1.317   6.864 -1.2086 -0.8190 -0.2838
   76SLPC   H3X 6881   2.327   1.393   6.844 -0.5967  0.3091  1.4409
   76SLPC   H3Y 6882   2.498   1.351   6.814 -1.9311  1.5070 -0.1323
   76SLPC   C34 6883   2.425   1.281   7.011 -0.1156 -0.2967  0.4412
   76SLPC   H4X 6884   2.503   1.203   7.027 -1.2092 -1.5414 -0.1368
   76SLPC   H4Y 6885   2.329   1.240   7.049  0.5769 -1.6704  0.7357
   76SLPC   C35 6886   2.475   1.396   7.103 -0.1457 -0.2708  0.7140
   76SLPC   H5X 6887   2.408   1.483   7.084 -0.9110 -1.0126 -0.0155
   76SLPC   H5Y 6888   2.579   1.416   7.070 -0.8265 -0.4502 -1.5874
   76SLPC   C36 6889   2.477   1.364   7.251  0.7596 -0.0379 -0.3241
   76SLPC   H6X 6890   2.372   1.348   7.284  0.0414  0.7441 -2.1800
   76SLPC   H6Y 6891   2.526   1.444   7.310  1.0031 -0.2340 -0.2599
   76SLPC   C37 6892   2.573   1.239   7.283  0.4833 -0.4436  0.1036
   76SLPC   H7X 6893   2.662   1.249   7.217  0.5583  2.7348  0.5903
   76SLPC   H7Y 6894   2.516   1.149   7.250  3.3047 -1.8803 -1.0046
   76SLPC   C38 6895   2.626   1.230   7.430 -0.9801  0.0875 -0.3285
   76SLPC   H8X 6896   2.680   1.135   7.446  3.8582  2.8372  0.4251
   76SLPC   H8Y 6897   2.535   1.226   7.494 -1.2760 -1.6893 -0.8144
   76SLPC   C39 6898   2.729   1.329   7.478  0.9510 -0.1996 -0.7959
   76SLPC   H9X 6899   2.722   1.319   7.589 -2.3968  1.2517 -0.8257
   76SLPC   H9Y 6900   2.702   1.434   7.452  0.2256 -0.2554 -0.2668
   76SLPC  C310 6901   2.880   1.304   7.432  0.1066  0.4424 -0.3320
   76SLPC  H10X 6902   2.884   1.211   7.372 -0.5841  1.0207 -1.2885
   76SLPC  H10Y 6903   2.938   1.288   7.526 -0.8364  2.1768  0.5735
   76SLPC  C311 6904   2.941   1.433   7.362 -0.0283  0.7454  0.0695
   76SLPC  H11X 6905   3.050   1.412   7.358  0.1883  2.1309 -1.6489
   76SLPC  H11Y 6906   2.917   1.519   7.428  0.1912  0.9127 -0.0711
   76SLPC  C312 6907   2.897   1.439   7.216  0.6925  0.4857 -0.6098
   76SLPC  H12X 6908   2.926   1.534   7.166 -0.9236  1.4806  0.2794
   76SLPC  H12Y 6909   2.786   1.442   7.206  0.6132  1.8936  0.5126
   76SLPC  C313 6910   2.964   1.329   7.130 -1.0269  0.0547  0.0189
   76SLPC  H13X 6911   2.941   1.226   7.166  1.7545 -1.3761 -2.0977
   76SLPC  H13Y 6912   3.072   1.347   7.147 -0.5318 -1.7395 -1.0606
   76SLPC  C314 6913   2.937   1.337   6.977  0.0449 -0.0471 -0.9901
   76SLPC  H14X 6914   2.937   1.441   6.938  1.6440  0.0464 -0.7738
   76SLPC  H14Y 6915   2.831   1.311   6.959 -0.0115  1.2681 -2.6672
   76SLPC  C315 6916   3.016   1.237   6.899 -0.1655  0.6531 -0.0901
   76SLPC  H15X 6917   3.013   1.134   6.941 -0.0117  0.5549 -0.3126
   76SLPC  H15Y 6918   3.123   1.264   6.905  0.1164 -0.2755 -0.7411
   76SLPC  C316 6919   2.968   1.237   6.751 -0.1175 -0.1613 -0.2621
   76SLPC  H16X 6920   3.004   1.336   6.718 -0.5303  0.0022 -0.2213
   76SLPC  H16Y 6921   2.857   1.248   6.747 -0.0566 -0.0374 -2.3017
   76SLPC  C317 6922   3.019   1.117   6.665  0.1791  0.0640  0.0925
   76SLPC  H17X 6923   2.997   1.026   6.725  0.3899 -0.5500 -0.7540
   76SLPC  H17Y 6924   3.129   1.124   6.666  0.2559 -0.5119 -1.8654
   76SLPC  C318 6925   2.955   1.104   6.528 -0.3958 -0.6929 -0.6128
   76SLPC  H18X 6926   2.845   1.121   6.539 -0.3874 -1.0387 -0.0052
   76SLPC  H18Y 6927   2.986   1.004   6.491  0.0757 -0.4151 -0.9730
   76SLPC  H18Z 6928   2.986   1.183   6.456 -1.5596 -0.5457 -0.9631
   77SLPC     N 6929   5.903   1.692   5.779  0.2219  0.4340 -0.4094
   77SLPC   C13 6930   5.938   1.706   5.923  0.6237 -0.1162 -0.7825
   77SLPC  H13A 6931   6.045   1.700   5.937  0.7495  3.1756  0.0791
   77SLPC  H13B 6932   5.912   1.806   5.955  0.1899 -0.1385 -1.0608
   77SLPC  H13C 6933   5.897   1.627   5.983 -1.9634 -1.2466 -3.8801
   77SLPC   C14 6934   6.008   1.770   5.698 -0.7089  0.5796  0.3396
   77SLPC  H14A 6935   6.020   1.872   5.731  0.1031 -0.2294  2.6501
   77SLPC  H14B 6936   6.106   1.724   5.701 -0.4076  1.1025 -0.9049
   77SLPC  H14C 6937   5.967   1.786   5.600 -2.4015  0.9537  1.0972
   77SLPC   C15 6938   5.779   1.772   5.759  0.4440  0.0223 -0.2384
   77SLPC  H15A 6939   5.754   1.768   5.654 -1.1329 -0.6230  0.1521
   77SLPC  H15B 6940   5.694   1.731   5.810  0.5280  1.4659  1.0910
   77SLPC  H15C 6941   5.789   1.875   5.788 -1.2897  0.3041 -0.6052
   77SLPC   C12 6942   5.910   1.551   5.736  0.9932  0.1439 -0.0190
   77SLPC  H12A 6943   6.014   1.527   5.716  0.5039 -1.3158 -0.8396
   77SLPC  H12B 6944   5.853   1.547   5.645 -1.1011  4.0586  0.9857
   77SLPC   C11 6945   5.850   1.442   5.835 -0.0082 -0.0544  0.6603
   77SLPC  H11A 6946   5.816   1.353   5.778 -1.6612  1.2210 -0.3911
   77SLPC  H11B 6947   5.749   1.485   5.853  0.6442  1.4718  0.7413
   77SLPC     P 6948   6.059   1.348   5.946 -0.0764  0.2081 -0.1826
   77SLPC   O13 6949   6.047   1.214   5.885  0.0780 -0.4686 -0.1503
   77SLPC   O14 6950   6.158   1.434   5.881  0.0793  0.0419  0.1355
   77SLPC   O12 6951   5.915   1.413   5.954 -0.4327  0.2237 -0.4251
   77SLPC   O11 6952   6.096   1.337   6.097  0.0080  0.2751  0.1466
   77SLPC    C1 6953   6.000   1.332   6.207 -0.7135 -1.2338  0.5695
   77SLPC    HA 6954   5.925   1.413   6.194 -2.3753 -2.6560  1.1338
   77SLPC    HB 6955   5.946   1.235   6.208  0.9377 -2.1754  2.9167
   77SLPC    C2 6956   6.070   1.348   6.349 -0.4402  0.1057 -0.3013
   77SLPC    HS 6957   6.130   1.254   6.350  2.1477  1.7014 -0.7680
   77SLPC   O21 6958   5.979   1.345   6.456 -0.0915 -0.3388 -0.1107
   77SLPC   C21 6959   5.916   1.235   6.477  0.0676 -0.6327  0.1550
   77SLPC   O22 6960   5.924   1.129   6.419 -0.0230  0.4400 -0.4207
   77SLPC   C22 6961   5.811   1.267   6.581 -0.0767  0.0352 -0.3283
   77SLPC   H2R 6962   5.798   1.375   6.599  0.0981 -0.1950  1.2234
   77SLPC   H2S 6963   5.713   1.229   6.547 -0.0314  0.8578 -1.4020
   77SLPC    C3 6964   6.166   1.468   6.351 -0.0374  0.4882  0.4618
   77SLPC    HX 6965   6.093   1.550   6.334 -1.0242 -0.0700  1.9493
   77SLPC    HY 6966   6.241   1.481   6.270 -1.4407 -2.6873 -1.4509
   77SLPC   O31 6967   6.226   1.475   6.480  0.0335 -0.5024 -0.3684
   77SLPC   C31 6968   6.337   1.413   6.497 -0.2289  1.3148  0.4454
   77SLPC   O32 6969   6.398   1.350   6.411 -0.3259  0.2633  0.0660
   77SLPC   C32 6970   6.379   1.449   6.640  0.5810 -0.3650 -0.0366
   77SLPC   H2X 6971   6.354   1.553   6.670  1.7328  0.4849 -1.8892
   77SLPC   H2Y 6972   6.489   1.451   6.647  0.8623 -2.5616 -2.7255
   77SLPC   C23 6973   5.846   1.186   6.717  0.0948 -0.0972  0.2633
   77SLPC   H3R 6974   5.953   1.201   6.743  0.2505 -0.2421 -0.2739
   77SLPC   H3S 6975   5.829   1.081   6.686  1.4787 -0.1931 -0.2209
   77SLPC   C24 6976   5.765   1.226   6.837 -0.0187 -0.7095  0.1240
   77SLPC   H4R 6977   5.663   1.182   6.829  0.2430 -1.1046 -1.1931
   77SLPC   H4S 6978   5.755   1.336   6.835 -1.1120 -0.7979  0.2044
   77SLPC   C25 6979   5.830   1.198   6.967  0.4644 -0.7823  0.5087
   77SLPC   H5R 6980   5.915   1.268   6.981 -2.1029  2.8120 -1.0404
   77SLPC   H5S 6981   5.868   1.094   6.977 -1.1214 -1.5025 -0.7125
   77SLPC   C26 6982   5.735   1.240   7.088  0.1887  0.4276  0.6531
   77SLPC   H6R 6983   5.637   1.188   7.080  0.8273 -0.3613 -2.7379
   77SLPC   H6S 6984   5.715   1.348   7.073 -0.5646  0.2311  0.2419
   77SLPC   C27 6985   5.805   1.221   7.218  0.3636  0.6787  0.0144
   77SLPC   H7R 6986   5.900   1.279   7.214  1.4216 -0.8838  1.3834
   77SLPC   H7S 6987   5.838   1.116   7.233  2.2690  1.3263  0.5228
   77SLPC   C28 6988   5.729   1.266   7.341 -0.4175 -0.0361  0.1068
   77SLPC   H8R 6989   5.690   1.369   7.325  0.7199  0.1991 -1.2962
   77SLPC   H8S 6990   5.800   1.274   7.426 -1.3630  2.6720  0.6796
   77SLPC   C29 6991   5.612   1.176   7.376  0.2662 -0.6261 -0.1395
   77SLPC   H9R 6992   5.574   1.120   7.289  0.9429 -0.2826 -0.6678
   77SLPC  C210 6993   5.580   1.147   7.499  0.8533  0.1160 -0.1621
   77SLPC  H10R 6994   5.496   1.076   7.502 -1.6863  3.0363  0.1804
   77SLPC  C211 6995   5.656   1.197   7.620 -0.0194 -0.4240 -0.5141
   77SLPC  H11R 6996   5.654   1.308   7.617 -0.0424 -0.3657  1.1462
   77SLPC  H11S 6997   5.760   1.161   7.600  0.1455  0.1945 -0.7988
   77SLPC  C212 6998   5.612   1.130   7.748  0.1685 -0.2480  0.1903
   77SLPC  H12R 6999   5.593   1.023   7.731  0.9066 -0.1673 -1.2089
   77SLPC  C213 7000   5.589   1.175   7.871 -0.5718  0.1915 -0.2015
   77SLPC  H13R 7001   5.560   1.105   7.951  0.6642 -1.7117 -1.4042
   77SLPC  C214 7002   5.601   1.321   7.907  0.0077 -0.1570  0.6711
   77SLPC  H14R 7003   5.510   1.374   7.943  0.7725  1.2784  0.5130
   77SLPC  H14S 7004   5.642   1.380   7.822  2.4168  1.4435  2.8990
   77SLPC  C215 7005   5.706   1.336   8.011 -0.0526 -0.4950 -1.1304
   77SLPC  H15R 7006   5.713   1.447   8.013 -0.1336 -0.5057  1.0766
   77SLPC  H15S 7007   5.805   1.304   7.971  1.9148  2.2684  1.2514
   77SLPC  C216 7008   5.678   1.270   8.144  0.3823  0.2839 -0.2487
   77SLPC  H16R 7009   5.716   1.166   8.133 -1.7110 -0.5902  0.5364
   77SLPC  H16S 7010   5.570   1.250   8.162  0.0499  2.2818  0.0505
   77SLPC  C217 7011   5.748   1.344   8.262 -0.3555 -0.2892 -1.1801
   77SLPC  H17R 7012   5.752   1.270   8.345  1.0823  1.3514  0.2451
   77SLPC  H17S 7013   5.699   1.441   8.287 -0.8308 -0.6390 -0.7351
   77SLPC  C218 7014   5.896   1.363   8.229 -0.1040  0.1894  0.6109
   77SLPC  H18R 7015   5.909   1.428   8.139 -0.8682 -0.6443 -0.1088
   77SLPC  H18S 7016   5.940   1.263   8.209 -1.6527 -0.0658 -1.8563
   77SLPC  H18T 7017   5.951   1.413   8.311  0.5892 -2.9159  2.0771
   77SLPC   C33 7018   6.318   1.345   6.735 -0.5737  0.0976 -0.0245
   77SLPC   H3X 7019   6.342   1.245   6.693  0.7584  1.4638 -2.6550
   77SLPC   H3Y 7020   6.208   1.356   6.733 -0.4913  0.5980 -3.8804
   77SLPC   C34 7021   6.374   1.364   6.885 -0.1858 -0.4418  0.2900
   77SLPC   H4X 7022   6.362   1.473   6.905 -0.4493  0.2014 -3.0943
   77SLPC   H4Y 7023   6.480   1.331   6.882 -0.1760 -0.4073  0.2544
   77SLPC   C35 7024   6.292   1.281   6.979  0.3697  1.0710  0.2375
   77SLPC   H5X 7025   6.258   1.183   6.940  0.8859  1.3503 -0.9045
   77SLPC   H5Y 7026   6.193   1.327   7.002  0.6920  0.9446  1.9418
   77SLPC   C36 7027   6.362   1.250   7.116  0.2430 -0.2420 -0.1408
   77SLPC   H6X 7028   6.458   1.194   7.105  0.9485  0.9623 -0.2553
   77SLPC   H6Y 7029   6.295   1.189   7.180 -0.3350  0.3166 -0.2088
   77SLPC   C37 7030   6.378   1.375   7.212 -0.1769  0.0469  0.0791
   77SLPC   H7X 7031   6.474   1.428   7.194 -0.0942 -0.4073 -0.8208
   77SLPC   H7Y 7032   6.394   1.337   7.315  1.0172  0.5572  0.0896
   77SLPC   C38 7033   6.258   1.471   7.221  0.2446  0.3414 -0.1829
   77SLPC   H8X 7034   6.163   1.417   7.240  0.2933  1.2265  2.8883
   77SLPC   H8Y 7035   6.255   1.522   7.122 -0.4676 -0.9267 -0.8333
   77SLPC   C39 7036   6.262   1.577   7.331 -0.1062 -0.5001 -0.1112
   77SLPC   H9X 7037   6.194   1.659   7.300 -0.9733 -1.3439 -0.5042
   77SLPC   H9Y 7038   6.367   1.611   7.335 -0.5250  0.6654  1.1524
   77SLPC  C310 7039   6.226   1.531   7.470  0.1534  0.8606  0.0217
   77SLPC  H10X 7040   6.274   1.433   7.493  0.2169  0.0250 -3.2963
   77SLPC  H10Y 7041   6.118   1.509   7.480  0.1116  1.1600  0.2034
   77SLPC  C311 7042   6.257   1.636   7.568 -0.1622  0.0801 -0.6183
   77SLPC  H11X 7043   6.220   1.739   7.545  1.2466  0.6488 -0.3607
   77SLPC  H11Y 7044   6.364   1.664   7.563 -0.5239  1.5931 -0.2169
   77SLPC  C312 7045   6.229   1.585   7.712 -0.3207  0.8553  0.3324
   77SLPC  H12X 7046   6.297   1.498   7.726 -1.7878 -0.7382 -2.0703
   77SLPC  H12Y 7047   6.121   1.556   7.716 -0.4627  1.1869 -0.8218
   77SLPC  C313 7048   6.259   1.694   7.819  0.2389 -0.6232 -0.1775
   77SLPC  H13X 7049   6.204   1.786   7.791 -1.7298 -1.3887  1.0407
   77SLPC  H13Y 7050   6.368   1.707   7.807  0.2862 -2.3194 -1.7878
   77SLPC  C314 7051   6.217   1.648   7.958  0.4242 -0.5904 -0.1396
   77SLPC  H14X 7052   6.271   1.553   7.980  3.4101  1.3028  1.0362
   77SLPC  H14Y 7053   6.108   1.626   7.962  0.5793 -1.5137 -0.8310
   77SLPC  C315 7054   6.254   1.751   8.063 -0.8919  0.2714  0.2977
   77SLPC  H15X 7055   6.198   1.846   8.046 -0.2386  0.6241  0.0870
   77SLPC  H15Y 7056   6.361   1.779   8.071 -1.1186  1.4288 -0.5606
   77SLPC  C316 7057   6.203   1.710   8.202 -0.0795 -0.3323 -0.6336
   77SLPC  H16X 7058   6.225   1.603   8.224 -0.6379 -0.3797 -0.2998
   77SLPC  H16Y 7059   6.093   1.716   8.209 -0.0064  0.0885  0.2461
   77SLPC  C317 7060   6.243   1.807   8.313 -0.5706 -0.3749 -0.4362
   77SLPC  H17X 7061   6.198   1.907   8.294  1.5079  1.0456  1.7959
   77SLPC  H17Y 7062   6.353   1.816   8.310 -0.7049  1.8128  0.0648
   77SLPC  C318 7063   6.204   1.757   8.456  0.5524 -0.6241  0.3496
   77SLPC  H18X 7064   6.222   1.836   8.532  0.7413 -0.1735 -0.1626
   77SLPC  H18Y 7065   6.276   1.676   8.481  1.4277 -0.0635 -0.3361
   77SLPC  H18Z 7066   6.097   1.727   8.461 -0.2149  2.0288  0.1387
   78SLPC     N 7067   1.297   0.877   6.123  0.1726 -0.0287  0.3319
   78SLPC   C13 7068   1.311   0.739   6.063 -0.5826 -0.4099 -0.0801
   78SLPC  H13A 7069   1.410   0.698   6.074 -0.9985 -1.1851  0.7795
   78SLPC  H13B 7070   1.237   0.676   6.110 -2.0956  1.1925 -0.2434
   78SLPC  H13C 7071   1.291   0.757   5.958 -1.5577 -0.2720  0.1239
   78SLPC   C14 7072   1.152   0.913   6.116  0.3286  0.3503 -0.0081
   78SLPC  H14A 7073   1.133   1.015   6.146  0.2712  0.6274 -0.9975
   78SLPC  H14B 7074   1.116   0.904   6.015  2.7826 -0.7334 -0.8353
   78SLPC  H14C 7075   1.085   0.852   6.174  1.2425 -0.0646  0.6316
   78SLPC   C15 7076   1.362   0.974   6.036  0.2169  0.4277 -0.1887
   78SLPC  H15A 7077   1.307   1.066   6.021 -1.7375 -0.1677  2.9821
   78SLPC  H15B 7078   1.465   0.990   6.064  0.4956 -0.0367 -0.9284
   78SLPC  H15C 7079   1.362   0.936   5.935 -1.2846 -2.1724  0.7478
   78SLPC   C12 7080   1.346   0.876   6.272 -0.5251 -0.6015 -0.0108
   78SLPC  H12A 7081   1.338   0.981   6.294 -2.2161 -0.6907 -0.1097
   78SLPC  H12B 7082   1.446   0.838   6.281  0.4738  1.5165 -1.5194
   78SLPC   C11 7083   1.260   0.798   6.367  0.2576 -0.0919  0.2368
   78SLPC  H11A 7084   1.158   0.842   6.366 -0.5906 -1.8884 -4.6820
   78SLPC  H11B 7085   1.283   0.821   6.474 -1.1018  0.3450  0.4370
   78SLPC     P 7086   1.354   0.546   6.376  0.5183 -0.4735  0.3417
   78SLPC   O13 7087   1.294   0.425   6.313  0.4128  0.1751 -0.9076
   78SLPC   O14 7088   1.491   0.587   6.336 -0.2801  0.6332 -0.4246
   78SLPC   O12 7089   1.254   0.661   6.348  0.7033 -0.1152  0.2345
   78SLPC   O11 7090   1.344   0.526   6.527 -0.6375  0.2229 -0.6784
   78SLPC    C1 7091   1.246   0.475   6.612  0.2116 -0.5344  0.4906
   78SLPC    HA 7092   1.190   0.395   6.558 -0.7133 -2.2452  3.8149
   78SLPC    HB 7093   1.287   0.440   6.709 -2.5406  2.3609  2.8044
   78SLPC    C2 7094   1.137   0.587   6.642 -0.0704 -0.0045  0.1917
   78SLPC    HS 7095   1.119   0.644   6.548 -0.3053  1.5060  1.1334
   78SLPC   O21 7096   1.187   0.662   6.746 -0.1358 -0.0840 -0.0805
   78SLPC   C21 7097   1.139   0.781   6.754 -0.4371 -0.7442 -0.6523
   78SLPC   O22 7098   1.055   0.826   6.674 -0.1699 -0.1558 -0.2332
   78SLPC   C22 7099   1.177   0.854   6.880 -0.2750  0.2840  0.3898
   78SLPC   H2R 7100   1.105   0.832   6.962 -0.8372 -0.9893 -0.4266
   78SLPC   H2S 7101   1.279   0.825   6.913 -0.5050 -2.3464 -1.0982
   78SLPC    C3 7102   1.000   0.528   6.669 -0.7069 -0.5041  0.2997
   78SLPC    HX 7103   0.979   0.466   6.579 -2.3084  0.2253  0.1725
   78SLPC    HY 7104   0.921   0.605   6.681  1.1654  1.6531 -0.7009
   78SLPC   O31 7105   1.008   0.436   6.776  0.0127 -0.4200 -0.3941
   78SLPC   C31 7106   0.984   0.476   6.901 -0.4125 -0.4571 -0.5591
   78SLPC   O32 7107   0.955   0.594   6.936  0.4664  0.4090 -0.4219
   78SLPC   C32 7108   0.993   0.347   6.998 -0.1877 -0.0264  0.6706
   78SLPC   H2X 7109   1.088   0.356   7.055 -0.2883 -0.5803  0.9330
   78SLPC   H2Y 7110   1.005   0.262   6.927  0.2487  1.8734 -1.5740
   78SLPC   C23 7111   1.196   1.011   6.871 -0.1452  0.3853 -0.1921
   78SLPC   H3R 7112   1.111   1.057   6.815  0.1725 -0.1676 -1.1311
   78SLPC   H3S 7113   1.283   1.032   6.806  0.1505 -0.1011  0.0471
   78SLPC   C24 7114   1.228   1.075   7.007  0.3907  0.2527 -0.6372
   78SLPC   H4R 7115   1.258   1.182   7.000 -1.1278  0.7007 -0.5582
   78SLPC   H4S 7116   1.318   1.029   7.054 -1.1472 -0.1543  2.0667
   78SLPC   C25 7117   1.111   1.052   7.100 -0.9943 -0.1548 -0.7629
   78SLPC   H5R 7118   1.130   0.950   7.139  1.7168 -0.1043 -1.8037
   78SLPC   H5S 7119   1.016   1.054   7.043 -1.8084  1.6786  0.6432
   78SLPC   C26 7120   1.087   1.158   7.207  0.3620  0.0456 -0.8230
   78SLPC   H6R 7121   1.059   1.254   7.159  1.1603  0.1147 -1.1570
   78SLPC   H6S 7122   1.188   1.176   7.250 -0.4699 -1.4363  1.8833
   78SLPC   C27 7123   0.977   1.117   7.309  0.0038  0.0082 -0.1673
   78SLPC   H7R 7124   1.029   1.041   7.371 -2.0791 -0.9225  0.4975
   78SLPC   H7S 7125   0.895   1.069   7.251  0.8438 -1.7429  0.0759
   78SLPC   C28 7126   0.912   1.236   7.395 -0.4771  0.4560 -0.3553
   78SLPC   H8R 7127   0.875   1.317   7.329 -2.8685 -1.3222 -1.2560
   78SLPC   H8S 7128   0.990   1.281   7.461 -0.9345 -0.2666  0.6971
   78SLPC   C29 7129   0.792   1.185   7.467 -0.9037  0.8153 -0.7657
   78SLPC   H9R 7130   0.808   1.143   7.567 -0.5041  0.4359 -0.9853
   78SLPC  C210 7131   0.670   1.177   7.415  0.5659  0.0697  0.4199
   78SLPC  H10R 7132   0.590   1.133   7.477  1.1250  0.0417  1.1216
   78SLPC  C211 7133   0.617   1.224   7.283  0.0850  0.1062  0.2438
   78SLPC  H11R 7134   0.575   1.145   7.217  2.5646  0.4730 -1.8676
   78SLPC  H11S 7135   0.703   1.272   7.231 -1.1957  2.8038  0.5467
   78SLPC  C212 7136   0.511   1.327   7.303 -0.6206 -0.4775  0.1585
   78SLPC  H12R 7137   0.556   1.424   7.329  2.0550 -1.8105  0.6816
   78SLPC  C213 7138   0.378   1.317   7.307  0.3945 -0.4659 -0.1025
   78SLPC  H13R 7139   0.325   1.410   7.332 -0.4275 -1.8586  3.5597
   78SLPC  C214 7140   0.303   1.194   7.299 -0.6795  0.8810  0.3908
   78SLPC  H14R 7141   0.197   1.210   7.328 -0.4909  0.8470  1.1069
   78SLPC  H14S 7142   0.339   1.114   7.368  0.1599 -0.9987 -2.1726
   78SLPC  C215 7143   0.311   1.143   7.159 -0.0602  0.6211  0.0276
   78SLPC  H15R 7144   0.409   1.097   7.135 -0.3605  0.3446 -0.6859
   78SLPC  H15S 7145   0.297   1.231   7.092  1.2261  1.6157  1.0587
   78SLPC  C216 7146   0.191   1.048   7.136  0.3621 -0.0097  0.6374
   78SLPC  H16R 7147   0.200   1.013   7.031 -0.8798 -0.9045  0.8127
   78SLPC  H16S 7148   0.092   1.099   7.141  0.1359 -0.4180  0.4161
   78SLPC  C217 7149   0.186   0.925   7.223  0.7472  0.0655 -0.6998
   78SLPC  H17R 7150   0.199   0.961   7.327  1.3974 -1.1336 -0.3598
   78SLPC  H17S 7151   0.264   0.850   7.200 -0.7023 -1.5300 -0.5344
   78SLPC  C218 7152   0.059   0.842   7.226 -0.1968  0.4305  0.2179
   78SLPC  H18R 7153  -0.031   0.906   7.236 -1.3259 -1.1645  0.5187
   78SLPC  H18S 7154   0.048   0.761   7.302 -0.1432 -1.5924 -1.8522
   78SLPC  H18T 7155   0.056   0.786   7.130 -2.3185  1.5827 -0.4053
   78SLPC   C33 7156   0.870   0.315   7.077 -0.0674  0.5574  0.0756
   78SLPC   H3X 7157   0.778   0.307   7.016  0.5797  0.6952 -0.9385
   78SLPC   H3Y 7158   0.857   0.392   7.156  2.0182 -0.4343  1.4460
   78SLPC   C34 7159   0.868   0.183   7.160  0.1963 -0.0489 -0.4805
   78SLPC   H4X 7160   0.904   0.097   7.101 -0.5957 -0.0319 -1.0053
   78SLPC   H4Y 7161   0.765   0.167   7.198 -0.0663 -2.2996 -2.0552
   78SLPC   C35 7162   0.960   0.193   7.284 -0.6145  0.2144 -0.1293
   78SLPC   H5X 7163   0.912   0.244   7.370  0.3322 -1.1039  1.2156
   78SLPC   H5Y 7164   1.050   0.251   7.257  0.0589 -0.9553 -0.4398
   78SLPC   C36 7165   0.988   0.052   7.352 -0.7141 -0.4520 -0.3236
   78SLPC   H6X 7166   1.027  -0.020   7.276  1.0818  0.1996 -0.0569
   78SLPC   H6Y 7167   0.894   0.003   7.384 -0.7717 -1.0139 -1.3074
   78SLPC   C37 7168   1.080   0.060   7.469 -0.3125 -0.2420 -0.4140
   78SLPC   H7X 7169   1.163   0.127   7.439 -0.8576  1.7365  2.3108
   78SLPC   H7Y 7170   1.124  -0.041   7.487  1.5997  0.7615  0.7039
   78SLPC   C38 7171   1.002   0.109   7.597  0.3816 -0.0219 -0.5287
   78SLPC   H8X 7172   0.933   0.028   7.628  1.1003 -0.5988 -0.4295
   78SLPC   H8Y 7173   0.945   0.203   7.579 -0.9706 -0.9938 -1.3404
   78SLPC   C39 7174   1.099   0.124   7.718  0.0890 -0.3136 -0.3796
   78SLPC   H9X 7175   1.177   0.197   7.690 -0.2441 -0.1186 -0.8000
   78SLPC   H9Y 7176   1.150   0.025   7.712  1.6145  0.3766  0.8334
   78SLPC  C310 7177   1.032   0.142   7.856  0.0654 -0.6278 -0.7461
   78SLPC  H10X 7178   1.111   0.130   7.933  0.6761  0.4903 -1.1826
   78SLPC  H10Y 7179   0.942   0.077   7.862 -0.9027  0.7428 -0.0010
   78SLPC  C311 7180   0.980   0.285   7.879 -0.1753  0.1148  0.4132
   78SLPC  H11X 7181   0.884   0.283   7.822 -1.1985  1.0105  2.0739
   78SLPC  H11Y 7182   1.048   0.361   7.834  0.5250 -2.8074 -3.7465
   78SLPC  C312 7183   0.942   0.300   8.021  0.3897 -0.2788 -0.7335
   78SLPC  H12X 7184   1.037   0.309   8.079 -0.9144  1.6193  1.1811
   78SLPC  H12Y 7185   0.889   0.208   8.050 -1.3760  0.6839 -0.8272
   78SLPC  C313 7186   0.853   0.428   8.050 -0.7161 -0.7080 -0.1771
   78SLPC  H13X 7187   0.762   0.431   7.987 -1.2291 -0.6870  0.5627
   78SLPC  H13Y 7188   0.918   0.518   8.040  0.5417 -1.5134  0.6699
   78SLPC  C314 7189   0.811   0.424   8.198 -0.0013  0.1090  0.3177
   78SLPC  H14X 7190   0.889   0.360   8.243  0.4418  0.8870  0.6659
   78SLPC  H14Y 7191   0.727   0.352   8.204  2.3576 -2.6530  1.3968
   78SLPC  C315 7192   0.781   0.563   8.266  0.0152  0.2398  0.2223
   78SLPC  H15X 7193   0.764   0.539   8.373  3.0333  0.0526  0.6907
   78SLPC  H15Y 7194   0.690   0.612   8.225 -1.7048 -0.2472  3.2930
   78SLPC  C316 7195   0.899   0.660   8.278 -0.1992 -0.5283 -0.1434
   78SLPC  H16X 7196   0.914   0.720   8.185 -0.1599  1.1828  0.9507
   78SLPC  H16Y 7197   0.992   0.604   8.300  0.6827  0.8214 -0.3918
   78SLPC  C317 7198   0.873   0.758   8.397  0.2045 -0.3606 -0.2832
   78SLPC  H17X 7199   0.886   0.706   8.494  3.3566  1.1939  0.2071
   78SLPC  H17Y 7200   0.774   0.808   8.387  0.6936  0.8016  0.5366
   78SLPC  C318 7201   0.982   0.869   8.402  0.1563  0.4313 -0.3719
   78SLPC  H18X 7202   1.069   0.825   8.455 -1.7771 -1.5404  1.2987
   78SLPC  H18Y 7203   0.946   0.951   8.468  1.5288  0.3763  0.4782
   78SLPC  H18Z 7204   1.013   0.912   8.305 -1.7044 -1.3572 -1.7818
   79SLPC     N 7205   6.881   3.626   5.953  0.7201 -0.2654  0.2379
   79SLPC   C13 7206   6.782   3.545   5.875 -0.1299  0.1701 -0.4769
   79SLPC  H13A 7207   6.684   3.577   5.906 -0.9385 -1.5933 -1.1585
   79SLPC  H13B 7208   6.787   3.551   5.768 -1.0682 -1.4065 -0.6228
   79SLPC  H13C 7209   6.787   3.440   5.901 -0.8428  0.1798 -0.3105
   79SLPC   C14 7210   6.839   3.768   5.937 -0.7820 -0.0018 -0.2226
   79SLPC  H14A 7211   6.832   3.790   5.831  2.6927 -1.3767 -0.8139
   79SLPC  H14B 7212   6.743   3.783   5.983 -1.3994 -2.7945 -0.5216
   79SLPC  H14C 7213   6.908   3.836   5.985 -0.5678 -0.3168 -0.0848
   79SLPC   C15 7214   7.015   3.601   5.897  0.0352 -0.5046  0.9106
   79SLPC  H15A 7215   7.081   3.677   5.936  0.4390  0.0064 -0.7408
   79SLPC  H15B 7216   7.051   3.503   5.927  0.5929 -1.1962 -1.8932
   79SLPC  H15C 7217   7.030   3.600   5.790 -1.3203  0.7794  0.7086
   79SLPC   C12 7218   6.876   3.587   6.101  0.2714 -0.1095  0.0839
   79SLPC  H12A 7219   6.888   3.481   6.117 -0.1994 -0.1747 -0.0070
   79SLPC  H12B 7220   6.774   3.609   6.130 -0.2847 -0.1157 -1.8227
   79SLPC   C11 7221   6.979   3.655   6.194  0.3843 -0.8507  0.1914
   79SLPC  H11A 7222   6.945   3.644   6.299 -0.2583 -0.5804  0.0136
   79SLPC  H11B 7223   6.975   3.765   6.183 -0.1262 -0.9836 -1.1600
   79SLPC     P 7224   7.136   3.452   6.237 -0.3392  0.0226  0.0808
   79SLPC   O13 7225   7.027   3.362   6.205 -0.1668  0.1281 -0.3820
   79SLPC   O14 7226   7.267   3.407   6.189  0.9563 -0.4806 -0.0826
   79SLPC   O12 7227   7.109   3.596   6.179 -0.5898  0.4070 -0.2123
   79SLPC   O11 7228   7.132   3.471   6.398  0.6466 -0.0160 -0.4334
   79SLPC    C1 7229   7.236   3.552   6.461  0.0038 -0.1830 -0.2648
   79SLPC    HA 7230   7.324   3.492   6.493 -1.2064 -0.7075  2.2079
   79SLPC    HB 7231   7.276   3.635   6.399 -0.2846  0.0481 -0.1448
   79SLPC    C2 7232   7.187   3.609   6.594 -0.4918  0.0710 -0.1103
   79SLPC    HS 7233   7.256   3.692   6.620  1.2575 -1.6678  0.9030
   79SLPC   O21 7234   7.188   3.512   6.701 -0.0922  0.2281  0.1133
   79SLPC   C21 7235   7.312   3.486   6.740 -0.2144 -0.7128  0.3572
   79SLPC   O22 7236   7.419   3.534   6.709  0.1494 -0.4270 -0.0053
   79SLPC   C22 7237   7.302   3.361   6.833 -0.6245  0.2023 -0.4408
   79SLPC   H2R 7238   7.227   3.378   6.913  0.3505  0.4657  0.4113
   79SLPC   H2S 7239   7.264   3.280   6.767 -2.8910  0.4068  0.5454
   79SLPC    C3 7240   7.043   3.661   6.597 -0.0609  0.5906  0.3743
   79SLPC    HX 7241   6.995   3.570   6.555  1.8013 -0.6086  0.7968
   79SLPC    HY 7242   7.021   3.743   6.525 -0.1714 -1.3778 -1.8579
   79SLPC   O31 7243   6.991   3.697   6.729 -0.0290  0.7916 -0.2136
   79SLPC   C31 7244   7.034   3.817   6.768 -0.3088 -0.5422  0.1564
   79SLPC   O32 7245   7.092   3.898   6.697  0.2902 -0.8078 -0.3032
   79SLPC   C32 7246   6.994   3.844   6.917  0.4727  0.3807  0.3983
   79SLPC   H2X 7247   6.894   3.808   6.949 -0.2386  0.2947 -1.8522
   79SLPC   H2Y 7248   6.981   3.953   6.929  0.6886  0.6377 -1.6051
   79SLPC   C23 7249   7.437   3.309   6.890  0.2331 -0.3759  0.1351
   79SLPC   H3R 7250   7.497   3.273   6.804 -0.6049 -0.0571 -0.5871
   79SLPC   H3S 7251   7.417   3.215   6.946 -2.8361  0.1388  0.0035
   79SLPC   C24 7252   7.506   3.409   6.970  0.5040 -0.3880  0.2455
   79SLPC   H4R 7253   7.548   3.491   6.907 -0.4361  1.1677  1.6126
   79SLPC   H4S 7254   7.587   3.366   7.034  0.9331 -0.5650 -0.4109
   79SLPC   C25 7255   7.419   3.483   7.073  0.1700  0.1619  0.6482
   79SLPC   H5R 7256   7.370   3.404   7.135 -0.1417  0.4623  0.7867
   79SLPC   H5S 7257   7.343   3.550   7.028  1.8321  1.5081 -0.1855
   79SLPC   C26 7258   7.502   3.572   7.167  0.3147 -0.4684 -0.0736
   79SLPC   H6R 7259   7.536   3.653   7.099 -3.1759  0.7599 -0.4589
   79SLPC   H6S 7260   7.592   3.522   7.208 -0.1592  0.0000  1.5770
   79SLPC   C27 7261   7.421   3.645   7.275 -0.1250  0.4265  0.8271
   79SLPC   H7R 7262   7.326   3.693   7.244  0.2153  2.2456  2.4934
   79SLPC   H7S 7263   7.492   3.721   7.316  1.6155 -0.9810  0.4966
   79SLPC   C28 7264   7.383   3.544   7.391  0.0983  0.0374  0.4379
   79SLPC   H8R 7265   7.481   3.531   7.442  0.2848  3.5763  1.1488
   79SLPC   H8S 7266   7.366   3.439   7.360  0.8809  0.1523 -0.3894
   79SLPC   C29 7267   7.289   3.595   7.495  1.2269 -0.3509 -0.3216
   79SLPC   H9R 7268   7.298   3.703   7.513 -0.8279  0.3660 -3.4183
   79SLPC  C210 7269   7.201   3.519   7.565 -0.4471 -0.1900  0.2911
   79SLPC  H10R 7270   7.134   3.573   7.633  0.2450  3.2181 -1.5716
   79SLPC  C211 7271   7.175   3.368   7.562 -0.2236 -0.2963  0.2088
   79SLPC  H11R 7272   7.157   3.334   7.458  0.2861  0.4136 -0.1117
   79SLPC  H11S 7273   7.081   3.353   7.619 -1.8546 -0.8178 -2.5229
   79SLPC  C212 7274   7.282   3.289   7.630 -0.7177  0.0318  0.6071
   79SLPC  H12R 7275   7.371   3.265   7.571 -1.6669 -0.5101 -0.6371
   79SLPC  C213 7276   7.272   3.215   7.740 -0.0324  0.2191 -0.5090
   79SLPC  H13R 7277   7.362   3.165   7.779  0.2644  0.3931 -0.9615
   79SLPC  C214 7278   7.153   3.214   7.828 -0.5310 -0.4328  0.1190
   79SLPC  H14R 7279   7.054   3.214   7.777 -1.2927 -1.7126  1.5772
   79SLPC  H14S 7280   7.142   3.312   7.879 -1.2202 -0.8338  0.7421
   79SLPC  C215 7281   7.157   3.114   7.936 -1.0166 -0.1292 -0.4615
   79SLPC  H15R 7282   7.246   3.110   8.003 -0.9041 -0.6377 -0.6384
   79SLPC  H15S 7283   7.160   3.010   7.897 -2.8147 -0.7073  0.8776
   79SLPC  C216 7284   7.032   3.115   8.027 -0.0530  0.6114  0.1963
   79SLPC  H16R 7285   6.936   3.106   7.970 -0.7745  1.2509  1.2944
   79SLPC  H16S 7286   7.019   3.213   8.077  3.7186  0.1182  2.2766
   79SLPC  C217 7287   7.043   3.001   8.138 -0.3645 -0.7298  0.5145
   79SLPC  H17R 7288   7.149   2.999   8.172 -0.1885  1.1428  0.0994
   79SLPC  H17S 7289   7.013   2.906   8.089 -1.7592  0.7462 -1.5350
   79SLPC  C218 7290   6.966   3.003   8.270 -0.1812 -0.7140  0.0595
   79SLPC  H18R 7291   6.859   3.027   8.255  0.0292  1.3639  1.7287
   79SLPC  H18S 7292   7.014   3.088   8.321  0.4973 -0.8067 -0.4167
   79SLPC  H18T 7293   6.971   2.913   8.336  1.0347 -0.9129 -0.2960
   79SLPC   C33 7294   7.082   3.775   7.020  0.8384  0.3630  0.1365
   79SLPC   H3X 7295   7.192   3.781   7.001  1.0569 -0.6762  0.9594
   79SLPC   H3Y 7296   7.060   3.666   7.030  0.3552  0.6765  3.0632
   79SLPC   C34 7297   7.055   3.831   7.162  0.0412 -0.5944  0.6606
   79SLPC   H4X 7298   7.108   3.929   7.169  0.3665 -0.6009 -1.5391
   79SLPC   H4Y 7299   7.109   3.760   7.229 -0.4675  0.0431  1.7730
   79SLPC   C35 7300   6.905   3.828   7.195 -0.6075 -0.0161 -0.0255
   79SLPC   H5X 7301   6.865   3.726   7.179 -0.2781 -0.0033 -0.9522
   79SLPC   H5Y 7302   6.852   3.901   7.130 -0.5633 -0.6503 -0.7665
   79SLPC   C36 7303   6.878   3.887   7.336 -0.0917 -0.1792  0.1217
   79SLPC   H6X 7304   6.894   3.997   7.328  1.8561 -0.3254  1.7519
   79SLPC   H6Y 7305   6.953   3.854   7.410  1.4395 -0.1857 -1.4114
   79SLPC   C37 7306   6.738   3.852   7.392 -0.2137 -0.0981 -0.3767
   79SLPC   H7X 7307   6.659   3.874   7.317  0.1967  0.9341 -0.5117
   79SLPC   H7Y 7308   6.737   3.918   7.481 -0.5827  0.4830 -0.8120
   79SLPC   C38 7309   6.730   3.709   7.447  0.1213  0.5706  0.6988
   79SLPC   H8X 7310   6.736   3.645   7.356 -0.2592 -0.5321  1.4368
   79SLPC   H8Y 7311   6.626   3.702   7.487  0.4406 -0.5971  1.3454
   79SLPC   C39 7312   6.836   3.672   7.553  0.3911 -0.3369  0.8790
   79SLPC   H9X 7313   6.935   3.715   7.529  0.2251 -0.2623  0.3330
   79SLPC   H9Y 7314   6.850   3.562   7.557  1.3784 -0.2389  0.2113
   79SLPC  C310 7315   6.788   3.722   7.683 -0.8927  0.4869 -0.2336
   79SLPC  H10X 7316   6.684   3.692   7.706 -0.4430  0.6407  2.0707
   79SLPC  H10Y 7317   6.789   3.833   7.681 -1.3774  0.5382  1.7631
   79SLPC  C311 7318   6.882   3.674   7.797  0.6312  0.0371  0.1872
   79SLPC  H11X 7319   6.986   3.710   7.786  0.0971  1.1025 -1.6061
   79SLPC  H11Y 7320   6.891   3.564   7.781 -0.4501  0.4239 -3.4991
   79SLPC  C312 7321   6.823   3.699   7.939 -0.0206 -0.1380  0.7182
   79SLPC  H12X 7322   6.720   3.658   7.939 -0.4460  0.8863 -0.8061
   79SLPC  H12Y 7323   6.811   3.809   7.951 -2.8335 -0.1528 -1.3063
   79SLPC  C313 7324   6.906   3.641   8.054 -0.4614 -0.4857  0.0448
   79SLPC  H13X 7325   6.899   3.530   8.051  0.0423 -0.4854 -1.6412
   79SLPC  H13Y 7326   6.849   3.663   8.147 -2.5678 -1.0407 -1.0675
   79SLPC  C314 7327   7.051   3.697   8.069 -0.1384  0.0223 -0.1164
   79SLPC  H14X 7328   7.103   3.690   7.971 -0.0411  1.6549 -0.2002
   79SLPC  H14Y 7329   7.095   3.638   8.152 -0.9671  0.7499  0.8773
   79SLPC  C315 7330   7.042   3.849   8.115  0.2627 -0.1166  0.6557
   79SLPC  H15X 7331   6.955   3.860   8.184  0.2669 -0.3228  0.6939
   79SLPC  H15Y 7332   7.017   3.905   8.023  0.4768 -2.1903 -0.6852
   79SLPC  C316 7333   7.172   3.898   8.186  0.0979  0.2050 -0.5950
   79SLPC  H16X 7334   7.191   3.834   8.275 -2.7169 -1.7459 -1.3054
   79SLPC  H16Y 7335   7.160   4.003   8.220  2.4998  0.1511  0.4706
   79SLPC  C317 7336   7.292   3.903   8.092 -0.4408  1.3472  0.1590
   79SLPC  H17X 7337   7.314   3.801   8.052 -4.5833  1.1549 -1.8925
   79SLPC  H17Y 7338   7.372   3.944   8.157 -0.0941 -0.0887  0.6504
   79SLPC  C318 7339   7.279   3.980   7.957 -0.7078  0.1107  0.2119
   79SLPC  H18X 7340   7.210   3.932   7.884  0.0858  0.5497 -0.8445
   79SLPC  H18Y 7341   7.378   4.012   7.918 -0.7944  0.2515  0.1053
   79SLPC  H18Z 7342   7.223   4.066   7.998 -1.5103 -1.4254  2.4304
   80SLPC     N 7343   6.473   1.216   6.057  0.0334  0.2469  0.6858
   80SLPC   C13 7344   6.410   1.143   5.938 -0.5070 -0.7421 -0.0734
   80SLPC  H13A 7345   6.410   1.037   5.954 -0.1236 -0.9412 -1.2757
   80SLPC  H13B 7346   6.306   1.163   5.919 -0.6086  0.3970  1.6732
   80SLPC  H13C 7347   6.462   1.161   5.844  2.1768 -0.0275  1.5044
   80SLPC   C14 7348   6.382   1.191   6.175  0.2232  0.0531  0.1009
   80SLPC  H14A 7349   6.418   1.233   6.267 -3.1904 -1.8650  2.4181
   80SLPC  H14B 7350   6.285   1.233   6.155  1.1459  1.2365 -2.1156
   80SLPC  H14C 7351   6.366   1.086   6.196  2.3257 -1.2233 -4.0517
   80SLPC   C15 7352   6.467   1.360   6.020  0.2461  0.5277 -0.0023
   80SLPC  H15A 7353   6.509   1.411   6.106  2.9008 -0.8709 -0.3935
   80SLPC  H15B 7354   6.526   1.386   5.934 -0.4566  0.9405 -0.3628
   80SLPC  H15C 7355   6.364   1.386   5.998 -1.0130 -2.6028  1.9521
   80SLPC   C12 7356   6.613   1.162   6.083 -0.1388 -0.3417 -0.0322
   80SLPC  H12A 7357   6.602   1.082   6.155 -1.8054 -1.4729 -1.4935
   80SLPC  H12B 7358   6.680   1.231   6.132  1.8923 -2.2190 -0.0878
   80SLPC   C11 7359   6.695   1.108   5.957  0.6157 -0.5898 -0.0482
   80SLPC  H11A 7360   6.639   1.025   5.909 -0.7855  0.7505 -0.7582
   80SLPC  H11B 7361   6.790   1.066   5.998  0.2567 -0.4938  0.8780
   80SLPC     P 7362   6.807   1.338   5.895  0.1507 -0.1220 -0.1501
   80SLPC   O13 7363   6.883   1.358   5.770  0.0881  0.5774  0.3684
   80SLPC   O14 7364   6.727   1.456   5.933 -0.4381 -0.0218  0.1791
   80SLPC   O12 7365   6.709   1.215   5.864 -0.8487  0.0573 -0.2059
   80SLPC   O11 7366   6.908   1.287   6.007  0.0121  0.6999  0.3003
   80SLPC    C1 7367   7.028   1.351   6.034 -0.3540  0.1345 -0.0925
   80SLPC    HA 7368   7.114   1.293   5.995 -1.7979 -1.0193 -1.6350
   80SLPC    HB 7369   7.041   1.448   5.982 -2.3217 -0.1569 -1.1507
   80SLPC    C2 7370   7.051   1.370   6.182  0.2142  0.2096 -0.2824
   80SLPC    HS 7371   7.031   1.272   6.231 -0.2336  0.0471 -0.7759
   80SLPC   O21 7372   6.970   1.472   6.238  0.1305  0.0057  0.5943
   80SLPC   C21 7373   6.839   1.444   6.253  0.2513 -0.4453  0.3252
   80SLPC   O22 7374   6.789   1.330   6.241  0.1099 -0.4143 -0.2007
   80SLPC   C22 7375   6.767   1.572   6.294  0.4282  0.1141  0.2493
   80SLPC   H2R 7376   6.758   1.630   6.199  0.3272  2.0003  1.3828
   80SLPC   H2S 7377   6.663   1.549   6.324  0.3674 -0.4556 -0.3863
   80SLPC    C3 7378   7.197   1.412   6.230  0.0965 -0.1223  0.0394
   80SLPC    HX 7379   7.214   1.510   6.180  0.4919 -0.3270 -0.2362
   80SLPC    HY 7380   7.269   1.336   6.193  0.5140 -0.2341  1.0589
   80SLPC   O31 7381   7.217   1.433   6.379 -0.1250 -0.2884 -0.2206
   80SLPC   C31 7382   7.218   1.315   6.443  0.3247 -0.6333  0.2598
   80SLPC   O32 7383   7.201   1.202   6.393  0.2151 -0.5422  0.2710
   80SLPC   C32 7384   7.252   1.344   6.594 -0.1995 -0.1064 -0.2632
   80SLPC   H2X 7385   7.204   1.435   6.635 -0.8090 -0.7267  0.4091
   80SLPC   H2Y 7386   7.362   1.357   6.592 -0.0700 -0.7523  2.2668
   80SLPC   C23 7387   6.843   1.656   6.400 -0.3984  0.3197 -0.5057
   80SLPC   H3R 7388   6.786   1.744   6.437 -2.4831 -0.9777 -0.5760
   80SLPC   H3S 7389   6.941   1.697   6.367 -0.6216  0.0717 -1.4992
   80SLPC   C24 7390   6.850   1.577   6.528  0.3460  0.1040 -0.2166
   80SLPC   H4R 7391   6.914   1.488   6.508 -2.5603 -2.0774 -0.1534
   80SLPC   H4S 7392   6.745   1.548   6.546 -0.0522  1.5921 -0.0544
   80SLPC   C25 7393   6.908   1.651   6.653 -0.3730  0.1699  0.0774
   80SLPC   H5R 7394   6.874   1.756   6.662  0.1145  0.3622 -0.2830
   80SLPC   H5S 7395   7.017   1.665   6.632 -0.1479 -1.1650  0.3361
   80SLPC   C26 7396   6.883   1.565   6.783 -0.3737 -0.0172 -0.2341
   80SLPC   H6R 7397   6.919   1.461   6.773  1.1610  0.5979 -1.4200
   80SLPC   H6S 7398   6.774   1.567   6.801 -0.0585  0.5996  1.6964
   80SLPC   C27 7399   6.946   1.634   6.906 -0.2424  0.3261 -0.0057
   80SLPC   H7R 7400   6.981   1.738   6.887 -1.0265  1.0225  2.1422
   80SLPC   H7S 7401   7.039   1.583   6.939 -1.3387 -0.9241  1.2327
   80SLPC   C28 7402   6.856   1.659   7.031 -0.1641  1.4090 -0.2624
   80SLPC   H8R 7403   6.761   1.693   6.984 -0.8999  0.2444  0.3370
   80SLPC   H8S 7404   6.881   1.743   7.098 -2.9266  1.1346  1.1802
   80SLPC   C29 7405   6.842   1.525   7.099 -0.3153  0.2229  0.2331
   80SLPC   H9R 7406   6.877   1.441   7.037 -1.1214  0.4478 -0.5391
   80SLPC  C210 7407   6.773   1.509   7.211 -0.6052  0.1075  0.0180
   80SLPC  H10R 7408   6.790   1.412   7.259 -1.9677  0.6907  1.7573
   80SLPC  C211 7409   6.695   1.607   7.294  0.3002 -1.3539 -0.2397
   80SLPC  H11R 7410   6.632   1.553   7.368 -3.3635  1.3627 -1.2018
   80SLPC  H11S 7411   6.618   1.657   7.232 -1.0017  1.1911  3.3045
   80SLPC  C212 7412   6.769   1.726   7.361  0.4067 -0.0951 -0.0753
   80SLPC  H12R 7413   6.751   1.822   7.312 -2.5637 -0.0624  0.9886
   80SLPC  C213 7414   6.850   1.708   7.470 -0.9228  0.6163  0.1662
   80SLPC  H13R 7415   6.893   1.797   7.519 -0.2858 -0.0760  0.8584
   80SLPC  C214 7416   6.880   1.579   7.549  0.1454  0.8680  0.2464
   80SLPC  H14R 7417   6.980   1.530   7.539 -1.2137 -1.8989 -0.2912
   80SLPC  H14S 7418   6.819   1.493   7.512  1.4400  0.1653 -0.3158
   80SLPC  C215 7419   6.855   1.576   7.704 -0.0771 -0.6522  0.8744
   80SLPC  H15R 7420   6.839   1.469   7.729  0.1323 -0.5030  1.6569
   80SLPC  H15S 7421   6.764   1.640   7.711 -0.1610 -0.5917 -0.5406
   80SLPC  C216 7422   6.971   1.637   7.787 -0.4052  0.3699  0.1582
   80SLPC  H16R 7423   7.008   1.726   7.730  1.3903 -0.5457 -0.1531
   80SLPC  H16S 7424   7.062   1.573   7.786 -0.9198 -0.3677  0.8879
   80SLPC  C217 7425   6.928   1.671   7.930  0.1128 -0.8543  0.8440
   80SLPC  H17R 7426   6.887   1.577   7.973 -0.7925 -0.4422  0.9015
   80SLPC  H17S 7427   6.849   1.749   7.932  0.0281 -0.8306 -1.4260
   80SLPC  C218 7428   7.056   1.722   8.009 -0.7705 -0.2439  0.3739
   80SLPC  H18R 7429   7.038   1.739   8.117 -0.3947 -1.6486  0.6617
   80SLPC  H18S 7430   7.093   1.814   7.959 -0.5295 -0.1090  0.8012
   80SLPC  H18T 7431   7.139   1.649   7.997 -0.6226  0.2300 -1.6827
   80SLPC   C33 7432   7.214   1.231   6.688  0.0690  0.5158  0.2322
   80SLPC   H3X 7433   7.245   1.134   6.642 -0.3395  1.2199 -1.5927
   80SLPC   H3Y 7434   7.105   1.219   6.702 -0.1144  1.5768 -0.2649
   80SLPC   C34 7435   7.280   1.260   6.825 -0.0468  0.0855  0.3593
   80SLPC   H4X 7436   7.391   1.257   6.822 -0.0664  0.2199 -0.6432
   80SLPC   H4Y 7437   7.247   1.180   6.894  0.3985 -1.8489 -1.6009
   80SLPC   C35 7438   7.237   1.397   6.888 -0.5509 -0.3778  0.4800
   80SLPC   H5X 7439   7.127   1.413   6.877 -0.5109 -0.0894  0.4941
   80SLPC   H5Y 7440   7.292   1.481   6.841 -1.9056  0.8313  1.0032
   80SLPC   C36 7441   7.273   1.396   7.039 -0.6858 -0.2068  0.7198
   80SLPC   H6X 7442   7.375   1.352   7.043 -0.5218  0.0828 -0.2391
   80SLPC   H6Y 7443   7.196   1.337   7.093 -1.0721 -1.1362 -0.8231
   80SLPC   C37 7444   7.292   1.540   7.102 -0.4007  0.5177  0.5768
   80SLPC   H7X 7445   7.189   1.581   7.110 -0.5505  0.3948 -0.5755
   80SLPC   H7Y 7446   7.360   1.610   7.048  2.5042 -1.7601  1.1435
   80SLPC   C38 7447   7.339   1.518   7.250 -0.8648 -0.4695 -0.2422
   80SLPC   H8X 7448   7.440   1.473   7.257  0.0916  1.9801  3.4897
   80SLPC   H8Y 7449   7.274   1.450   7.309 -0.8164  0.0938  0.4645
   80SLPC   C39 7450   7.326   1.646   7.339  0.2519 -0.3350 -0.1825
   80SLPC   H9X 7451   7.229   1.701   7.334  0.9735  0.7931 -2.3635
   80SLPC   H9Y 7452   7.402   1.720   7.306 -1.5889  1.0886 -1.3423
   80SLPC  C310 7453   7.365   1.617   7.489 -0.0111 -0.7993  0.0928
   80SLPC  H10X 7454   7.474   1.599   7.494  0.0949  0.0879  1.4281
   80SLPC  H10Y 7455   7.309   1.528   7.526 -2.0721  0.1730 -0.6017
   80SLPC  C311 7456   7.333   1.739   7.586 -0.0151  0.2347  0.0035
   80SLPC  H11X 7457   7.223   1.748   7.576 -0.6680 -0.4090  5.3048
   80SLPC  H11Y 7458   7.380   1.822   7.530 -1.2287  0.8873 -0.0510
   80SLPC  C312 7459   7.383   1.716   7.733 -0.7552  0.1413  0.7215
   80SLPC  H12X 7460   7.480   1.665   7.711 -1.0513  0.1750 -0.7222
   80SLPC  H12Y 7461   7.306   1.656   7.786 -1.4132  1.0887  0.8508
   80SLPC  C313 7462   7.414   1.839   7.818  0.0343  0.3052  0.0842
   80SLPC  H13X 7463   7.316   1.877   7.853 -0.1728  0.3140 -0.4966
   80SLPC  H13Y 7464   7.452   1.919   7.751 -2.5173  4.0664  2.8927
   80SLPC  C314 7465   7.505   1.799   7.935 -0.1846  0.4382 -0.0246
   80SLPC  H14X 7466   7.601   1.765   7.891  0.7206  0.2765  2.0303
   80SLPC  H14Y 7467   7.452   1.719   7.991 -1.3902  0.0239 -1.7055
   80SLPC  C315 7468   7.534   1.913   8.030 -0.1007  0.4268 -0.8123
   80SLPC  H15X 7469   7.430   1.937   8.063 -0.2045  0.1757 -0.9568
   80SLPC  H15Y 7470   7.577   1.998   7.972 -0.8337  0.4249 -1.3744
   80SLPC  C316 7471   7.620   1.871   8.152 -0.0586 -0.6389 -0.4817
   80SLPC  H16X 7472   7.551   1.817   8.220  0.3162  0.1775  0.5626
   80SLPC  H16Y 7473   7.641   1.963   8.211 -0.6218 -0.5991 -0.3405
   80SLPC  C317 7474   7.750   1.804   8.123  0.2334 -0.1293 -0.2993
   80SLPC  H17X 7475   7.788   1.845   8.027 -0.7623 -2.6136 -1.7761
   80SLPC  H17Y 7476   7.730   1.695   8.119 -3.1633  0.4163  0.2431
   80SLPC  C318 7477   7.846   1.822   8.238 -0.6489 -0.2935  0.1623
   80SLPC  H18X 7478   7.805   1.790   8.336 -0.5941 -1.6684 -0.2574
   80SLPC  H18Y 7479   7.878   1.928   8.249 -0.1091 -0.2725 -1.3532
   80SLPC  H18Z 7480   7.944   1.769   8.235 -0.0705  0.7053  1.0767
   81SAPS     N 7481   4.165   5.079  10.417  0.7812  0.4887  0.0888
   81SAPS   HN1 7482   4.265   5.106  10.403  0.9813 -0.0676  0.4241
   81SAPS   HN2 7483   4.106   5.156  10.381 -1.4045 -0.9504  0.5360
   81SAPS   HN3 7484   4.129   5.064  10.513 -1.6999  1.0536 -0.7416
   81SAPS   C12 7485   4.118   4.947  10.346  0.0964 -0.6647  0.1273
   81SAPS  H12A 7486   4.189   4.873  10.378  0.3492 -1.0950 -1.3735
   81SAPS   C13 7487   3.973   4.913  10.387 -0.4911 -0.3271  0.6919
   81SAPS  O13A 7488   3.909   4.969  10.474 -0.8105 -0.0571  0.2874
   81SAPS  O13B 7489   3.917   4.824  10.316 -0.3162 -0.3064  0.4213
   81SAPS   C11 7490   4.129   4.965  10.198 -0.3119 -0.7617  0.4321
   81SAPS  H11A 7491   4.056   5.044  10.172 -0.1792 -1.0920 -1.0201
   81SAPS  H11B 7492   4.106   4.870  10.144 -1.5572 -0.4691  0.4362
   81SAPS     P 7493   4.375   4.896  10.131 -0.0288 -0.1451 -0.1103
   81SAPS   O13 7494   4.509   4.956  10.116 -0.0621 -0.3030 -0.0413
   81SAPS   O14 7495   4.357   4.794  10.237 -0.5096  1.0333 -0.0709
   81SAPS   O12 7496   4.262   4.999  10.155 -0.1217  0.1089 -0.2641
   81SAPS   O11 7497   4.329   4.840   9.984 -0.4020  0.3277  1.0274
   81SAPS    C1 7498   4.288   4.698   9.981  0.0031 -0.5837  0.4603
   81SAPS    HA 7499   4.367   4.633  10.026  0.4670  0.4762  1.1799
   81SAPS    HB 7500   4.200   4.689  10.048 -0.8419 -0.9008 -0.6978
   81SAPS    C2 7501   4.244   4.665   9.836 -0.2022  0.7361 -0.4040
   81SAPS    HS 7502   4.205   4.561   9.836  1.5277  0.0567  0.7155
   81SAPS   O21 7503   4.355   4.670   9.748 -0.6366 -0.4304  0.3693
   81SAPS   C21 7504   4.444   4.578   9.762 -0.1690  0.2453 -0.2490
   81SAPS   O22 7505   4.444   4.486   9.844 -0.0591  0.1049 -0.3815
   81SAPS   C22 7506   4.555   4.597   9.655 -0.4536 -0.1695  0.3278
   81SAPS   H2R 7507   4.505   4.660   9.578 -1.5693 -1.8040 -0.3207
   81SAPS   H2S 7508   4.642   4.654   9.695 -0.5805 -0.3149  0.8144
   81SAPS    C3 7509   4.135   4.755   9.772 -1.0433 -0.0471  0.0347
   81SAPS    HX 7510   4.168   4.859   9.755  0.9875 -0.7887 -0.7640
   81SAPS    HY 7511   4.049   4.771   9.839 -1.0000  0.6421 -0.0746
   81SAPS   O31 7512   4.091   4.709   9.642 -0.1170 -0.1592 -0.0695
   81SAPS   C31 7513   4.008   4.606   9.651  0.1122 -0.5651  0.2020
   81SAPS   O32 7514   3.949   4.571   9.753 -1.2741  0.0772  0.5249
   81SAPS   C32 7515   3.997   4.546   9.510 -0.9351  0.1308 -0.3767
   81SAPS   H2X 7516   4.100   4.532   9.469 -0.4470  0.2681  0.7689
   81SAPS   H2Y 7517   3.926   4.605   9.450  0.3403  2.7546  0.6092
   81SAPS   C23 7518   4.607   4.470   9.596 -0.0870  0.0024 -0.4555
   81SAPS   H3R 7519   4.524   4.408   9.555  0.3130 -0.4070 -0.6489
   81SAPS   H3S 7520   4.640   4.400   9.677  0.0038  0.0277 -0.4703
   81SAPS   C24 7521   4.710   4.494   9.485  0.1211  0.8391  1.0321
   81SAPS   H4R 7522   4.800   4.548   9.522  0.1788  1.6675 -0.2936
   81SAPS   H4S 7523   4.663   4.570   9.419  2.7656  0.3540 -1.5125
   81SAPS   C25 7524   4.746   4.366   9.402 -0.7301 -0.0915 -0.0227
   81SAPS   H5R 7525   4.782   4.285   9.466 -1.6144 -1.4826 -1.2651
   81SAPS   C26 7526   4.733   4.337   9.273 -0.1928 -0.3319 -0.6400
   81SAPS   H6R 7527   4.769   4.240   9.235 -0.3082 -0.2935 -0.8462
   81SAPS   C27 7528   4.668   4.431   9.180  0.6836 -0.4536  0.3408
   81SAPS   H7R 7529   4.706   4.534   9.200  0.5527 -0.5175  0.9317
   81SAPS   H7S 7530   4.558   4.437   9.199  0.5984  0.6895 -0.4402
   81SAPS   C28 7531   4.696   4.395   9.040  0.2799  1.0507  0.6862
   81SAPS   H8R 7532   4.803   4.392   9.013  0.1754 -0.7629  0.4010
   81SAPS   C29 7533   4.615   4.359   8.945  0.0552  0.5687 -0.1210
   81SAPS   H9R 7534   4.656   4.317   8.852  2.0784 -0.9788  1.4296
   81SAPS  C210 7535   4.466   4.345   8.953 -0.6217 -0.3603 -0.5818
   81SAPS  H10R 7536   4.428   4.357   9.057  1.5683 -2.2154  0.4936
   81SAPS  H10S 7537   4.445   4.239   8.923  2.8257 -1.8302  1.9352
   81SAPS  C211 7538   4.395   4.452   8.863  0.3219  0.1546 -0.3797
   81SAPS  H11R 7539   4.366   4.541   8.920  2.8531  0.4094  0.5360
   81SAPS  C212 7540   4.366   4.443   8.735 -0.5850  0.5360 -0.0022
   81SAPS  H12R 7541   4.311   4.523   8.682  0.0097  1.2331  0.4138
   81SAPS  C213 7542   4.415   4.329   8.640  0.1983 -0.2467 -0.1961
   81SAPS  H13R 7543   4.493   4.264   8.685  1.8184  0.6827 -1.5744
   81SAPS  H13S 7544   4.461   4.377   8.550  0.5944  2.7828  1.5442
   81SAPS  C214 7545   4.285   4.264   8.602 -0.0152  0.0159 -1.2645
   81SAPS  H14R 7546   4.246   4.194   8.677  0.4723  0.5788 -0.4783
   81SAPS  C215 7547   4.206   4.305   8.494 -0.0540  0.6685 -0.8228
   81SAPS  H15R 7548   4.107   4.258   8.486  0.9519 -2.2554  2.2508
   81SAPS  C216 7549   4.238   4.414   8.403  1.0821  0.0089  0.5730
   81SAPS  H16R 7550   4.275   4.376   8.305  1.4663  1.9453 -0.0557
   81SAPS  H16S 7551   4.319   4.480   8.441  1.8541 -0.9059  0.5263
   81SAPS  C217 7552   4.122   4.502   8.380 -0.3085 -0.1083  0.2347
   81SAPS  H17R 7553   4.074   4.525   8.478 -0.0348  0.5377  0.2160
   81SAPS  H17S 7554   4.049   4.442   8.321 -0.6053  0.7365 -0.2638
   81SAPS  C218 7555   4.144   4.626   8.296 -0.3017  0.4788  0.1592
   81SAPS  H18R 7556   4.218   4.690   8.348  1.5901 -1.5938  0.0722
   81SAPS  H18S 7557   4.047   4.677   8.279  0.2330  0.4360 -3.2800
   81SAPS  C219 7558   4.189   4.599   8.154 -0.4424  0.1465  0.4207
   81SAPS  H19R 7559   4.131   4.513   8.113  2.2746 -1.1771 -0.7467
   81SAPS  H19S 7560   4.293   4.561   8.155 -0.4424  0.1292 -0.0606
   81SAPS  C220 7561   4.172   4.725   8.072  0.0583 -0.1455  1.2670
   81SAPS  H20R 7562   4.245   4.805   8.100 -0.1974  0.0257  1.4465
   81SAPS  H20S 7563   4.073   4.774   8.085 -0.0965 -0.1174  0.0460
   81SAPS  H20T 7564   4.196   4.693   7.968 -1.1232 -2.5907  1.7184
   81SAPS   C33 7565   3.926   4.407   9.505 -0.2096 -0.5524 -0.4705
   81SAPS   H3X 7566   3.824   4.418   9.548  0.4511  1.5737  0.6534
   81SAPS   H3Y 7567   3.983   4.343   9.576  1.1785  0.8069 -0.3273
   81SAPS   C34 7568   3.908   4.351   9.368 -0.0838  0.1586  0.0188
   81SAPS   H4X 7569   3.873   4.436   9.306 -1.0132  1.4689  2.2648
   81SAPS   H4Y 7570   3.836   4.269   9.389  0.4863 -0.5748 -0.8235
   81SAPS   C35 7571   4.036   4.282   9.317 -0.0521 -0.0709 -0.4108
   81SAPS   H5X 7572   4.062   4.212   9.400  0.4667 -0.9059 -1.2673
   81SAPS   H5Y 7573   4.122   4.352   9.309 -0.7530  1.1332  2.0421
   81SAPS   C36 7574   4.028   4.201   9.188 -0.0708 -0.8510  0.0167
   81SAPS   H6X 7575   3.966   4.241   9.105  0.0597 -0.2176  0.2152
   81SAPS   H6Y 7576   3.985   4.100   9.204 -1.0239 -0.7825 -1.9262
   81SAPS   C37 7577   4.169   4.177   9.134  0.7984  0.7363 -0.5478
   81SAPS   H7X 7578   4.229   4.163   9.227 -2.2916 -0.5133  1.3638
   81SAPS   H7Y 7579   4.206   4.269   9.084 -0.7124  1.2943 -0.6857
   81SAPS   C38 7580   4.183   4.056   9.042  0.4557 -0.1589  0.2968
   81SAPS   H8X 7581   4.128   3.967   9.079 -2.4587  0.2478 -2.7289
   81SAPS   H8Y 7582   4.290   4.027   9.036  0.6888  1.0888 -3.3675
   81SAPS   C39 7583   4.135   4.077   8.900 -0.3909  0.0843 -0.1856
   81SAPS   H9X 7584   4.178   4.170   8.858 -0.0786 -0.7452 -1.7016
   81SAPS   H9Y 7585   4.027   4.101   8.912  0.1728  1.4590  2.7392
   81SAPS  C310 7586   4.156   3.954   8.807 -0.1667 -0.1553  0.6701
   81SAPS  H10X 7587   4.130   3.858   8.856 -1.9465 -2.6278 -4.6637
   81SAPS  H10Y 7588   4.257   3.959   8.762 -0.8639  0.5798 -0.8614
   81SAPS  C311 7589   4.050   3.964   8.695  0.2260  0.6848  0.2245
   81SAPS  H11X 7590   4.056   4.071   8.665 -0.6613  0.4809 -0.6961
   81SAPS  H11Y 7591   3.948   3.949   8.734 -0.2485 -1.3971 -1.7085
   81SAPS  C312 7592   4.079   3.871   8.579 -0.4406 -0.0364 -0.3688
   81SAPS  H12X 7593   4.092   3.770   8.623 -2.1842  0.1064  0.5260
   81SAPS  H12Y 7594   4.179   3.906   8.545 -0.1410  3.0123  3.2358
   81SAPS  C313 7595   3.973   3.861   8.472  0.3853  0.1360 -0.6034
   81SAPS  H13X 7596   3.870   3.847   8.513  0.5571  0.4220 -0.0666
   81SAPS  H13Y 7597   4.002   3.773   8.410  0.1325  1.7176 -3.0161
   81SAPS  C314 7598   3.980   3.972   8.369 -0.1023 -0.2201  0.5097
   81SAPS  H14X 7599   4.084   3.976   8.330  0.2959 -1.0826  1.4958
   81SAPS  H14Y 7600   3.955   4.069   8.416  0.1578 -0.2433  0.6959
   81SAPS  C315 7601   3.881   3.942   8.257  0.3520  0.2868  0.1854
   81SAPS  H15X 7602   3.782   3.914   8.299 -0.5137  3.0000  0.0239
   81SAPS  H15Y 7603   3.917   3.852   8.203 -2.4220 -1.2639  0.8525
   81SAPS  C316 7604   3.855   4.045   8.147 -0.6141 -0.6725  0.7249
   81SAPS  H16X 7605   3.952   4.087   8.114 -0.2839  0.1686  2.7112
   81SAPS  H16Y 7606   3.810   4.134   8.196  0.7447  1.2264 -1.3908
   81SAPS  C317 7607   3.758   4.001   8.029 -0.1939 -0.6393 -0.5348
   81SAPS  H17X 7608   3.672   3.952   8.079 -0.3543 -0.1443 -0.3146
   81SAPS  H17Y 7609   3.814   3.920   7.979  0.7962 -0.0272 -0.4410
   81SAPS  C318 7610   3.733   4.118   7.933 -0.4418 -0.2467  0.3601
   81SAPS  H18X 7611   3.825   4.170   7.898  0.4490 -1.0520  1.4518
   81SAPS  H18Y 7612   3.667   4.192   7.981 -0.1196  1.6031 -1.9584
   81SAPS  H18Z 7613   3.676   4.066   7.852 -0.9759  0.4845  0.2690
   82SAPS     N 7614   2.878   3.627  10.196 -0.5703 -0.0525  0.7997
   82SAPS   HN1 7615   2.945   3.641  10.274 -0.6581  0.5369  0.7733
   82SAPS   HN2 7616   2.917   3.557  10.130 -0.4981  0.0937  0.6847
   82SAPS   HN3 7617   2.870   3.723  10.155  2.8685 -0.0317 -0.0408
   82SAPS   C12 7618   2.742   3.607  10.243 -0.3081  0.1795 -0.7639
   82SAPS  H12A 7619   2.738   3.514  10.297  0.1760 -0.2009 -1.3844
   82SAPS   C13 7620   2.684   3.713  10.344  0.3317 -0.7043  0.0640
   82SAPS  O13A 7621   2.762   3.812  10.378 -0.6132  0.0704 -0.3592
   82SAPS  O13B 7622   2.579   3.693  10.411  0.5147  0.4508 -0.2887
   82SAPS   C11 7623   2.648   3.586  10.113 -0.1481  0.1210 -0.1590
   82SAPS  H11A 7624   2.550   3.550  10.153  0.8583  0.4113  2.6653
   82SAPS  H11B 7625   2.703   3.504  10.063  2.0199  1.6513 -0.3202
   82SAPS     P 7626   2.545   3.682   9.903 -0.1549  0.3384 -0.0939
   82SAPS   O13 7627   2.633   3.618   9.805 -0.6434 -0.1241 -0.0101
   82SAPS   O14 7628   2.418   3.612   9.936 -0.3326 -0.2148  0.2792
   82SAPS   O12 7629   2.632   3.704  10.024  0.0680 -0.1541  0.4029
   82SAPS   O11 7630   2.511   3.831   9.863  0.2856 -0.3731  0.5460
   82SAPS    C1 7631   2.481   3.878   9.738 -0.2084  0.0146 -0.5597
   82SAPS    HA 7632   2.456   3.986   9.744 -0.2085  0.1439 -2.4420
   82SAPS    HB 7633   2.561   3.858   9.663 -0.2046 -1.9039 -0.0726
   82SAPS    C2 7634   2.344   3.820   9.689  0.4299  0.8434  0.4092
   82SAPS    HS 7635   2.275   3.839   9.774 -0.4547  1.4959 -0.4459
   82SAPS   O21 7636   2.371   3.683   9.657  0.7750  0.0507  0.5465
   82SAPS   C21 7637   2.259   3.610   9.683 -0.7343 -0.2424 -0.5246
   82SAPS   O22 7638   2.161   3.642   9.749 -0.8417 -0.2146  0.5353
   82SAPS   C22 7639   2.270   3.477   9.611  0.2851 -0.3452  0.1460
   82SAPS   H2R 7640   2.303   3.489   9.505 -1.4462  1.5679 -0.1959
   82SAPS   H2S 7641   2.348   3.421   9.667 -0.7076 -0.8400  1.0480
   82SAPS    C3 7642   2.294   3.895   9.565  0.1691 -0.4443  0.1309
   82SAPS    HX 7643   2.274   4.004   9.568 -0.5554 -0.5944  1.5223
   82SAPS    HY 7644   2.201   3.839   9.539  1.5597 -2.5209 -0.4767
   82SAPS   O31 7645   2.385   3.889   9.456 -0.4494  0.5743 -0.0930
   82SAPS   C31 7646   2.384   3.783   9.375  0.0786 -0.4120 -0.0336
   82SAPS   O32 7647   2.288   3.709   9.360 -0.4702  0.2483  0.6423
   82SAPS   C32 7648   2.511   3.779   9.299 -0.5556  0.1474 -0.7352
   82SAPS   H2X 7649   2.508   3.702   9.219  0.4463  0.0785 -0.7091
   82SAPS   H2Y 7650   2.589   3.753   9.374 -3.3132 -0.2678  2.0774
   82SAPS   C23 7651   2.142   3.391   9.627  0.0386  0.0693  1.5266
   82SAPS   H3R 7652   2.106   3.412   9.730  0.3120  1.4870  1.3437
   82SAPS   H3S 7653   2.180   3.287   9.621  0.9354  0.4639 -0.2443
   82SAPS   C24 7654   2.022   3.423   9.527 -0.1260  0.2668 -0.3395
   82SAPS   H4R 7655   1.973   3.521   9.547 -1.5657 -0.3162 -0.9575
   82SAPS   H4S 7656   1.941   3.355   9.558  0.8501  0.1292  2.0052
   82SAPS   C25 7657   2.064   3.402   9.379 -0.0270  0.0790  0.1512
   82SAPS   H5R 7658   2.111   3.491   9.335  0.7290 -0.9143 -1.1113
   82SAPS   C26 7659   2.053   3.299   9.295  0.2220  0.1878 -0.8402
   82SAPS   H6R 7660   2.081   3.323   9.191  3.4293  0.8461  0.1161
   82SAPS   C27 7661   2.006   3.164   9.346 -0.4690  0.3145 -0.1061
   82SAPS   H7R 7662   1.991   3.164   9.456 -1.1588 -0.8897 -0.1949
   82SAPS   H7S 7663   2.075   3.077   9.343 -2.7870 -1.5690 -0.2997
   82SAPS   C28 7664   1.873   3.130   9.292 -0.3952 -0.0258  0.5721
   82SAPS   H8R 7665   1.793   3.205   9.291  0.9620  1.4397 -0.0402
   82SAPS   C29 7666   1.844   3.013   9.228 -0.2948 -0.2405  0.7348
   82SAPS   H9R 7667   1.738   2.996   9.203  0.2786  0.9425 -2.6475
   82SAPS  C210 7668   1.940   2.899   9.208  0.4443  0.4891 -0.0389
   82SAPS  H10R 7669   1.958   2.850   9.305 -2.0369 -0.6012 -0.0939
   82SAPS  H10S 7670   2.042   2.931   9.177  0.2790  0.4614 -0.6190
   82SAPS  C211 7671   1.883   2.807   9.102 -0.0905 -0.5747 -0.1387
   82SAPS  H11R 7672   1.778   2.826   9.076  0.0903 -1.3153 -1.4291
   82SAPS  C212 7673   1.958   2.730   9.022  0.8121  0.1605 -0.2103
   82SAPS  H12R 7674   1.904   2.678   8.941 -1.5322  2.0133  0.0951
   82SAPS  C213 7675   2.113   2.717   9.022  0.1378 -0.3738  0.2271
   82SAPS  H13R 7676   2.135   2.610   9.004  0.3385 -0.0893 -1.2463
   82SAPS  H13S 7677   2.150   2.733   9.125  1.1174 -0.8706 -0.0480
   82SAPS  C214 7678   2.192   2.806   8.931  0.1479  0.2640  0.5200
   82SAPS  H14R 7679   2.245   2.891   8.976  1.5458  0.0327 -0.6634
   82SAPS  C215 7680   2.198   2.801   8.796 -0.4829  0.3841  0.0910
   82SAPS  H15R 7681   2.263   2.867   8.735  0.0739 -0.1429  0.1094
   82SAPS  C216 7682   2.127   2.699   8.707  0.3677 -0.1026  0.2146
   82SAPS  H16R 7683   2.087   2.610   8.761  0.0054 -1.0122 -1.5371
   82SAPS  H16S 7684   2.197   2.660   8.630  0.8732 -0.7838  1.0077
   82SAPS  C217 7685   2.010   2.763   8.631 -0.0823 -0.2416  0.6610
   82SAPS  H17R 7686   2.043   2.834   8.552 -1.1036 -0.5878 -0.0931
   82SAPS  H17S 7687   1.951   2.817   8.709 -1.0356  0.1129 -0.2883
   82SAPS  C218 7688   1.917   2.660   8.566  0.1611 -0.6308 -1.1977
   82SAPS  H18R 7689   1.848   2.714   8.498 -1.8452 -1.9790 -0.2679
   82SAPS  H18S 7690   1.850   2.626   8.648  0.9659  1.6358  0.4921
   82SAPS  C219 7691   1.981   2.543   8.495  0.1003 -0.2391  0.9462
   82SAPS  H19R 7692   1.899   2.476   8.461 -0.1818  1.0723 -0.9793
   82SAPS  H19S 7693   2.050   2.489   8.564  0.9765  0.6033  0.7395
   82SAPS  C220 7694   2.052   2.588   8.375  0.5286 -0.2785  0.3698
   82SAPS  H20R 7695   2.076   2.493   8.322  0.9524  0.3118 -0.5060
   82SAPS  H20S 7696   2.145   2.647   8.393  1.0883 -0.6653 -1.1558
   82SAPS  H20T 7697   1.983   2.645   8.309 -0.2545 -0.6788  0.8338
   82SAPS   C33 7698   2.559   3.924   9.252  0.4067 -0.6051  0.1495
   82SAPS   H3X 7699   2.580   3.983   9.344  0.3855  0.4433 -0.5150
   82SAPS   H3Y 7700   2.477   3.971   9.194 -0.4512 -2.4696 -0.1741
   82SAPS   C34 7701   2.699   3.924   9.178 -0.3264  0.0530 -0.1461
   82SAPS   H4X 7702   2.768   3.876   9.251  1.7230  1.8744 -0.8378
   82SAPS   H4Y 7703   2.738   4.027   9.161  1.9987 -0.5925  1.0054
   82SAPS   C35 7704   2.703   3.842   9.044 -0.3674  0.3261  0.3084
   82SAPS   H5X 7705   2.653   3.743   9.054 -2.7057  1.2970 -1.1328
   82SAPS   H5Y 7706   2.809   3.814   9.028 -0.2056  1.0585  0.0488
   82SAPS   C36 7707   2.647   3.916   8.918 -0.3905 -0.4172 -0.1073
   82SAPS   H6X 7708   2.708   4.009   8.915  0.6401 -0.9931  2.2355
   82SAPS   H6Y 7709   2.541   3.947   8.935 -1.1394 -2.3277 -1.1679
   82SAPS   C37 7710   2.661   3.834   8.791 -0.1324 -0.2855  0.3456
   82SAPS   H7X 7711   2.765   3.798   8.779 -1.4751 -3.4447 -2.6910
   82SAPS   H7Y 7712   2.654   3.912   8.713  0.5037 -0.9627 -0.3882
   82SAPS   C38 7713   2.562   3.716   8.777 -0.4070 -0.9357 -0.5473
   82SAPS   H8X 7714   2.461   3.760   8.792 -0.6573  0.1667 -4.7656
   82SAPS   H8Y 7715   2.575   3.646   8.862 -0.0810 -0.2365 -0.0122
   82SAPS   C39 7716   2.562   3.639   8.641  0.4244  0.4537 -0.0440
   82SAPS   H9X 7717   2.642   3.564   8.657  0.1094  0.1968  0.3163
   82SAPS   H9Y 7718   2.596   3.707   8.560  1.5067  1.2932  1.0889
   82SAPS  C310 7719   2.422   3.584   8.605  0.2531  0.1417  0.2345
   82SAPS  H10X 7720   2.354   3.666   8.575  0.9287  0.5800 -0.1227
   82SAPS  H10Y 7721   2.378   3.541   8.697  3.1740  1.5640  2.3709
   82SAPS  C311 7722   2.421   3.470   8.490  0.0538  0.1185 -0.2697
   82SAPS  H11X 7723   2.325   3.414   8.492 -0.0503  0.2882 -0.4982
   82SAPS  H11Y 7724   2.506   3.403   8.515  0.6337  0.6391 -0.8054
   82SAPS  C312 7725   2.444   3.528   8.346 -0.1994 -0.0277 -0.3841
   82SAPS  H12X 7726   2.538   3.588   8.339 -0.1657 -0.2601 -2.1131
   82SAPS  H12Y 7727   2.361   3.589   8.304  1.0246  1.1828 -1.1268
   82SAPS  C313 7728   2.459   3.416   8.238 -0.1024  0.0936 -0.0305
   82SAPS  H13X 7729   2.367   3.355   8.224  0.6816 -0.6760 -2.1133
   82SAPS  H13Y 7730   2.532   3.343   8.280 -0.3649 -1.2552 -1.8399
   82SAPS  C314 7731   2.523   3.473   8.105  0.2570 -0.3974  0.1426
   82SAPS  H14X 7732   2.598   3.551   8.130  0.4877 -0.3149 -0.7673
   82SAPS  H14Y 7733   2.449   3.540   8.055  1.4845  2.7493  2.3623
   82SAPS  C315 7734   2.596   3.366   8.021 -0.3674  0.0592  0.5061
   82SAPS  H15X 7735   2.532   3.281   7.992 -3.3235  1.7876  1.7721
   82SAPS  H15Y 7736   2.675   3.319   8.083  0.4249  1.8077  0.8713
   82SAPS  C316 7737   2.655   3.417   7.885  0.0370 -0.6694 -0.9472
   82SAPS  H16X 7738   2.572   3.404   7.813 -1.7338 -0.8417  1.0722
   82SAPS  H16Y 7739   2.746   3.358   7.861  0.2931  0.0268 -1.7062
   82SAPS  C317 7740   2.714   3.562   7.894  0.5368  0.0424  0.2666
   82SAPS  H17X 7741   2.647   3.642   7.930  0.8256 -0.4813  2.0095
   82SAPS  H17Y 7742   2.746   3.590   7.791  0.8274 -1.0403  0.0518
   82SAPS  C318 7743   2.849   3.563   7.972  0.8471 -0.2652  0.2403
   82SAPS  H18X 7744   2.864   3.666   8.012  0.5094  0.7541 -2.2142
   82SAPS  H18Y 7745   2.940   3.531   7.917  0.0640 -1.9402 -0.1050
   82SAPS  H18Z 7746   2.840   3.509   8.069 -0.5161 -0.0783  0.2357
   83SAPS     N 7747   4.614   5.220  10.152 -0.1564  0.4857  0.3066
   83SAPS   HN1 7748   4.688   5.285  10.182  1.0349  0.0103 -1.5382
   83SAPS   HN2 7749   4.630   5.126  10.194 -1.1787  0.2408  0.1861
   83SAPS   HN3 7750   4.614   5.218  10.048 -0.8906 -0.5609  0.3133
   83SAPS   C12 7751   4.481   5.264  10.201  0.0170  0.5997  0.1771
   83SAPS  H12A 7752   4.420   5.181  10.171 -0.5957 -0.0458  3.0182
   83SAPS   C13 7753   4.476   5.265  10.357  0.3747 -0.5086  0.7441
   83SAPS  O13A 7754   4.575   5.239  10.431 -0.4487 -0.1391 -0.1204
   83SAPS  O13B 7755   4.374   5.312  10.418 -0.6956  0.2272 -0.5781
   83SAPS   C11 7756   4.447   5.402  10.139 -0.0371 -0.7224 -0.2205
   83SAPS  H11A 7757   4.494   5.479  10.204 -0.1344  0.3544 -1.4050
   83SAPS  H11B 7758   4.338   5.416  10.154 -0.1579 -2.6119  0.8301
   83SAPS     P 7759   4.508   5.560   9.941 -0.5249 -0.1532  0.0155
   83SAPS   O13 7760   4.546   5.660  10.039 -0.4770 -0.1079  0.1629
   83SAPS   O14 7761   4.601   5.540   9.822  0.4736  0.2684 -0.1368
   83SAPS   O12 7762   4.484   5.419  10.003 -0.4342  0.1722 -0.0771
   83SAPS   O11 7763   4.365   5.599   9.879 -0.2258  0.6793  0.2557
   83SAPS    C1 7764   4.271   5.497   9.844  0.6270 -0.1605 -0.4585
   83SAPS    HA 7765   4.254   5.411   9.912 -2.2051 -0.1710 -1.1330
   83SAPS    HB 7766   4.169   5.541   9.852  0.6197 -0.4891  1.3104
   83SAPS    C2 7767   4.298   5.445   9.697 -0.8269 -0.0011 -0.3090
   83SAPS    HS 7768   4.396   5.394   9.703  0.0579  1.5390 -1.3063
   83SAPS   O21 7769   4.308   5.556   9.606  0.2931 -0.3956  0.9061
   83SAPS   C21 7770   4.391   5.536   9.506 -0.4650  0.1513 -0.8258
   83SAPS   O22 7771   4.462   5.437   9.494  0.0538  0.5471 -0.1993
   83SAPS   C22 7772   4.403   5.662   9.421  0.2864  0.6793  0.0353
   83SAPS   H2R 7773   4.326   5.734   9.456 -0.7596  0.0163 -0.8567
   83SAPS   H2S 7774   4.506   5.702   9.435  0.5849 -0.0690  0.0070
   83SAPS    C3 7775   4.188   5.341   9.651  0.0470  0.0067 -0.0687
   83SAPS    HX 7776   4.088   5.387   9.653  0.5554  1.1119  0.2084
   83SAPS    HY 7777   4.187   5.259   9.726  1.5623 -0.8644 -0.9627
   83SAPS   O31 7778   4.216   5.279   9.525  0.3502  0.1379 -0.0070
   83SAPS   C31 7779   4.319   5.202   9.517  0.1158  0.1511  0.2672
   83SAPS   O32 7780   4.387   5.163   9.610 -0.0512  0.1656 -0.6684
   83SAPS   C32 7781   4.331   5.157   9.373 -0.3588  0.1434  0.2739
   83SAPS   H2X 7782   4.437   5.131   9.352 -1.3433 -3.0505 -1.0662
   83SAPS   H2Y 7783   4.312   5.245   9.308 -0.7014 -0.3550 -0.3097
   83SAPS   C23 7784   4.390   5.643   9.275 -0.0369  0.2712  0.0160
   83SAPS   H3R 7785   4.455   5.558   9.247  0.4484  0.5393  0.3063
   83SAPS   H3S 7786   4.426   5.727   9.212  2.4640 -1.0865 -0.4114
   83SAPS   C24 7787   4.243   5.601   9.245  0.3343 -0.1129 -0.0664
   83SAPS   H4R 7788   4.171   5.651   9.313  1.4056  0.0174  0.9893
   83SAPS   H4S 7789   4.231   5.494   9.273 -1.6951  0.5960  2.0057
   83SAPS   C25 7790   4.219   5.608   9.096  0.8383  0.1592  0.4603
   83SAPS   H5R 7791   4.198   5.711   9.065 -1.0140  0.4356  2.4824
   83SAPS   C26 7792   4.214   5.516   8.999  1.0239  0.6514 -0.0762
   83SAPS   H6R 7793   4.186   5.542   8.896  2.0050 -1.8208 -0.9949
   83SAPS   C27 7794   4.225   5.367   9.008  0.1046  0.3555  0.2556
   83SAPS   H7R 7795   4.178   5.339   9.105  1.9858 -1.5408  0.6722
   83SAPS   H7S 7796   4.333   5.342   9.007  0.4102  1.5881  1.7186
   83SAPS   C28 7797   4.150   5.286   8.903 -0.3445  0.5642  0.0290
   83SAPS   H8R 7798   4.040   5.282   8.912 -0.3761  1.2749 -0.0361
   83SAPS   C29 7799   4.200   5.186   8.825  0.7023 -0.5129  0.1399
   83SAPS   H9R 7800   4.125   5.127   8.770 -0.7454  0.6417  0.8212
   83SAPS  C210 7801   4.340   5.146   8.804  0.5729 -0.2887 -0.3991
   83SAPS  H10R 7802   4.380   5.095   8.894 -0.9027 -1.8111 -0.5865
   83SAPS  H10S 7803   4.404   5.231   8.771 -3.1892  2.4903 -0.8501
   83SAPS  C211 7804   4.356   5.050   8.693 -0.3640  0.4092  0.3241
   83SAPS  H11R 7805   4.325   4.950   8.726 -1.8067  0.7998  0.1598
   83SAPS  C212 7806   4.397   5.069   8.568 -0.0238  0.1275 -0.2605
   83SAPS  H12R 7807   4.400   4.991   8.491  1.9055  1.5665 -1.6923
   83SAPS  C213 7808   4.435   5.207   8.516  0.3405  0.3723 -0.3536
   83SAPS  H13R 7809   4.546   5.209   8.509  0.5538  1.9604  2.8771
   83SAPS  H13S 7810   4.400   5.290   8.580  0.0337 -0.4728  0.5824
   83SAPS  C214 7811   4.365   5.238   8.389  0.0355 -0.2177 -0.2741
   83SAPS  H14R 7812   4.258   5.253   8.410 -0.1165 -0.8014 -0.6260
   83SAPS  C215 7813   4.415   5.253   8.267  0.4933  0.3573 -0.3216
   83SAPS  H15R 7814   4.346   5.238   8.183 -0.5947  1.4816  0.3533
   83SAPS  C216 7815   4.560   5.252   8.219  0.2994  0.1416  0.2974
   83SAPS  H16R 7816   4.573   5.155   8.168  2.0215 -0.0146  0.9952
   83SAPS  H16S 7817   4.625   5.253   8.309  1.2987  2.0513 -0.4294
   83SAPS  C217 7818   4.600   5.362   8.126  0.2575 -0.2004 -0.3111
   83SAPS  H17R 7819   4.573   5.462   8.164 -0.8683  0.2828 -2.3197
   83SAPS  H17S 7820   4.563   5.350   8.022  1.5807 -0.2852 -0.7884
   83SAPS  C218 7821   4.753   5.370   8.109 -0.3212 -0.1381  0.3985
   83SAPS  H18R 7822   4.779   5.431   8.019 -0.8798 -2.1607 -1.1742
   83SAPS  H18S 7823   4.783   5.268   8.077  0.1649  0.7011 -1.9261
   83SAPS  C219 7824   4.829   5.405   8.240  0.1537  0.1290  0.0258
   83SAPS  H19R 7825   4.908   5.332   8.269 -1.0720  0.0117  3.3426
   83SAPS  H19S 7826   4.758   5.403   8.326 -1.8272 -0.2859 -1.5983
   83SAPS  C220 7827   4.899   5.537   8.233  0.0120 -0.3752  0.5637
   83SAPS  H20R 7828   4.831   5.615   8.191  3.3926  1.5945 -1.5099
   83SAPS  H20S 7829   4.988   5.542   8.165 -1.5573  2.4770 -1.4162
   83SAPS  H20T 7830   4.948   5.570   8.327  1.3667  1.3948 -0.7098
   83SAPS   C33 7831   4.241   5.035   9.324  0.2452  0.9893  0.1642
   83SAPS   H3X 7832   4.148   5.073   9.275  0.2198 -0.9181 -1.3377
   83SAPS   H3Y 7833   4.208   4.980   9.415  0.4277 -2.2509 -1.6383
   83SAPS   C34 7834   4.320   4.946   9.235 -0.3297  0.1403  0.3212
   83SAPS   H4X 7835   4.406   4.891   9.280  1.2504 -0.6420 -3.4494
   83SAPS   H4Y 7836   4.364   5.005   9.152 -0.7496 -1.4476 -1.0625
   83SAPS   C35 7837   4.236   4.830   9.167  0.3175  0.0469 -0.2223
   83SAPS   H5X 7838   4.183   4.798   9.260  1.9787 -0.8105  0.4455
   83SAPS   H5Y 7839   4.308   4.758   9.123  0.3571  1.7215 -3.0205
   83SAPS   C36 7840   4.134   4.888   9.067  0.0183  0.4271 -0.4006
   83SAPS   H6X 7841   4.187   4.939   8.984  0.8596  0.3683  0.0955
   83SAPS   H6Y 7842   4.078   4.972   9.113 -4.0070 -2.7164  0.7440
   83SAPS   C37 7843   4.041   4.770   9.026  0.3855  0.6032 -0.4775
   83SAPS   H7X 7844   3.996   4.739   9.124 -0.5036  2.7670 -0.1793
   83SAPS   H7Y 7845   4.087   4.680   8.981  0.6719 -0.2644  1.5084
   83SAPS   C38 7846   3.925   4.800   8.930  0.3697  0.0059 -0.5371
   83SAPS   H8X 7847   3.961   4.828   8.829  0.8945  0.2173 -0.2913
   83SAPS   H8Y 7848   3.876   4.889   8.975 -2.8011 -1.0575 -1.7000
   83SAPS   C39 7849   3.819   4.687   8.918 -0.5821 -0.1315 -0.8129
   83SAPS   H9X 7850   3.777   4.680   9.020  1.8588 -0.9977  0.1518
   83SAPS   H9Y 7851   3.865   4.589   8.895  2.8618  1.6478 -1.8171
   83SAPS  C310 7852   3.701   4.712   8.822  0.6605 -0.2450 -0.3626
   83SAPS  H10X 7853   3.675   4.820   8.831  2.3247  0.1525 -0.1075
   83SAPS  H10Y 7854   3.614   4.650   8.851  1.6635 -1.1693  0.7384
   83SAPS  C311 7855   3.737   4.697   8.676 -0.2987  0.5240  0.3489
   83SAPS  H11X 7856   3.764   4.592   8.654  1.2601  1.0766 -0.4366
   83SAPS  H11Y 7857   3.826   4.757   8.650 -1.4644  2.9483  1.6747
   83SAPS  C312 7858   3.635   4.740   8.567 -0.4217  0.4362  0.2682
   83SAPS  H12X 7859   3.663   4.710   8.464  2.3811 -0.6790  1.3316
   83SAPS  H12Y 7860   3.631   4.848   8.593 -0.2637  0.7662 -1.0196
   83SAPS  C313 7861   3.497   4.671   8.603  0.4046  0.5802 -0.1695
   83SAPS  H13X 7862   3.461   4.724   8.694  1.5791 -1.4789  1.5486
   83SAPS  H13Y 7863   3.527   4.566   8.625 -1.4956 -0.1370 -0.8883
   83SAPS  C314 7864   3.389   4.665   8.502 -0.0685 -0.1726 -0.1740
   83SAPS  H14X 7865   3.441   4.635   8.409  2.8479  0.1881  1.2861
   83SAPS  H14Y 7866   3.366   4.774   8.495  1.2846  0.3337  2.4867
   83SAPS  C315 7867   3.246   4.615   8.537 -0.1133 -0.0720  0.0192
   83SAPS  H15X 7868   3.217   4.671   8.628  1.1673 -1.5413  1.3621
   83SAPS  H15Y 7869   3.243   4.507   8.565  1.4094  0.0998  0.9155
   83SAPS  C316 7870   3.152   4.641   8.425  0.4425 -0.3561  0.0115
   83SAPS  H16X 7871   3.058   4.581   8.431  0.3390 -0.4514 -2.1302
   83SAPS  H16Y 7872   3.196   4.616   8.326  0.0522 -1.6583  0.1454
   83SAPS  C317 7873   3.094   4.784   8.425  0.1115  0.3685 -0.4378
   83SAPS  H17X 7874   3.031   4.780   8.333  1.2279  1.7351 -1.2657
   83SAPS  H17Y 7875   3.171   4.861   8.407  0.7913 -0.7056 -2.2365
   83SAPS  C318 7876   3.027   4.817   8.555  0.3422  0.5822  0.1899
   83SAPS  H18X 7877   2.969   4.729   8.590  2.9419 -1.3682 -0.2744
   83SAPS  H18Y 7878   2.960   4.906   8.555 -0.0649  0.2971  1.9614
   83SAPS  H18Z 7879   3.096   4.843   8.638 -0.2859  1.3870  0.4645
   84SAPS     N 7880   6.065   2.958   9.788 -0.0571 -0.3790  0.1660
   84SAPS   HN1 7881   6.051   3.017   9.703 -0.5527 -1.1455 -0.2900
   84SAPS   HN2 7882   6.165   2.938   9.805 -0.5309 -4.7984 -1.6644
   84SAPS   HN3 7883   6.010   2.873   9.763 -0.4097  0.3750 -1.7703
   84SAPS   C12 7884   5.997   3.026   9.905 -0.5416 -0.1723 -0.1336
   84SAPS  H12A 7885   5.889   3.028   9.894 -0.4478  0.2614 -0.9720
   84SAPS   C13 7886   6.011   2.967  10.054  0.0340 -0.3086 -0.2795
   84SAPS  O13A 7887   6.069   2.860  10.071  0.7171  0.3332  0.2796
   84SAPS  O13B 7888   5.971   3.041  10.150 -0.0561 -0.3215 -0.4377
   84SAPS   C11 7889   6.056   3.170   9.909  0.4452  0.0541  0.2246
   84SAPS  H11A 7890   6.166   3.159   9.917  0.1504 -3.4936 -0.0434
   84SAPS  H11B 7891   6.026   3.229   9.998 -0.4652 -0.5387  0.3163
   84SAPS     P 7892   5.910   3.338   9.784 -0.1328  0.0943 -0.3994
   84SAPS   O13 7893   5.782   3.261   9.777 -0.2916  0.6093 -0.0074
   84SAPS   O14 7894   5.927   3.438   9.888  0.4747 -0.5606 -0.1643
   84SAPS   O12 7895   6.027   3.239   9.791 -0.2357 -0.1489 -0.2926
   84SAPS   O11 7896   5.941   3.398   9.639 -0.1164  0.6497  0.4140
   84SAPS    C1 7897   5.931   3.313   9.526  0.1329  0.1543  0.1275
   84SAPS    HA 7898   5.924   3.207   9.558  1.6025 -0.3398 -1.1645
   84SAPS    HB 7899   5.838   3.336   9.469 -0.2760  0.3031  0.8463
   84SAPS    C2 7900   6.055   3.319   9.432  0.6837 -0.3951  0.1088
   84SAPS    HS 7901   6.145   3.320   9.497  0.9222  1.8604 -0.2369
   84SAPS   O21 7902   6.050   3.441   9.353 -0.4422  0.0246 -0.6721
   84SAPS   C21 7903   6.155   3.483   9.307  0.8379 -0.4276 -0.0304
   84SAPS   O22 7904   6.269   3.450   9.337 -0.2253 -0.1082  0.2324
   84SAPS   C22 7905   6.126   3.576   9.187  0.6083 -0.1140  0.6575
   84SAPS   H2R 7906   6.054   3.525   9.119  0.0924 -0.1849  1.2536
   84SAPS   H2S 7907   6.072   3.668   9.219  3.0150  2.0308 -1.2535
   84SAPS    C3 7908   6.056   3.199   9.340 -0.4438 -0.0020  0.0778
   84SAPS    HX 7909   6.069   3.113   9.409  1.2515  1.1438  1.2434
   84SAPS    HY 7910   6.151   3.206   9.282 -1.7170 -0.5195 -2.1474
   84SAPS   O31 7911   5.941   3.177   9.264  0.6507 -0.6123 -0.5687
   84SAPS   C31 7912   5.958   3.212   9.133  0.6303 -0.2329  1.1100
   84SAPS   O32 7913   6.064   3.239   9.075  0.3252  0.1472 -0.5160
   84SAPS   C32 7914   5.817   3.208   9.073 -0.0679 -0.0740 -0.3901
   84SAPS   H2X 7915   5.742   3.212   9.155  0.2803 -2.1390  0.0546
   84SAPS   H2Y 7916   5.823   3.105   9.030  2.1189  0.2930 -1.0367
   84SAPS   C23 7917   6.253   3.613   9.102 -0.4935 -1.0031  0.1221
   84SAPS   H3R 7918   6.308   3.517   9.088  1.6866  0.0791  1.0777
   84SAPS   H3S 7919   6.318   3.686   9.154 -2.5085 -0.1840  1.5348
   84SAPS   C24 7920   6.222   3.658   8.961 -0.4184  0.1968  0.0340
   84SAPS   H4R 7921   6.319   3.690   8.916 -1.4164  4.1160  0.4610
   84SAPS   H4S 7922   6.164   3.753   8.957  3.0782  2.4222  0.5686
   84SAPS   C25 7923   6.152   3.551   8.879 -0.2518 -0.5392  0.8972
   84SAPS   H5R 7924   6.049   3.539   8.914 -1.2717 -0.1426 -1.8160
   84SAPS   C26 7925   6.203   3.474   8.782 -0.1520 -0.1701 -0.5240
   84SAPS   H6R 7926   6.138   3.396   8.741 -1.2302  1.2387 -1.5413
   84SAPS   C27 7927   6.345   3.493   8.736 -0.1818  0.0895  0.5268
   84SAPS   H7R 7928   6.393   3.582   8.780 -2.1322  0.2047  2.4786
   84SAPS   H7S 7929   6.353   3.518   8.628 -0.8582  1.7036  0.8426
   84SAPS   C28 7930   6.422   3.368   8.760  0.0875  0.0472 -0.5228
   84SAPS   H8R 7931   6.411   3.328   8.862 -2.2847  1.1820 -0.3138
   84SAPS   C29 7932   6.502   3.295   8.683  0.5563 -0.2762  0.0541
   84SAPS   H9R 7933   6.541   3.197   8.716  0.1889 -0.8373 -1.1558
   84SAPS  C210 7934   6.540   3.335   8.539 -0.2552 -0.3751  0.0525
   84SAPS  H10R 7935   6.630   3.401   8.547  1.6656 -3.0317  1.1937
   84SAPS  H10S 7936   6.463   3.399   8.492 -0.0508 -0.8389 -0.9451
   84SAPS  C211 7937   6.576   3.220   8.454  0.1257 -0.0727  0.0157
   84SAPS  H11R 7938   6.618   3.125   8.490  1.1373 -0.6574 -2.5815
   84SAPS  C212 7939   6.594   3.229   8.318  0.0313 -0.0690 -0.5730
   84SAPS  H12R 7940   6.625   3.137   8.266  1.3577  1.6451 -2.9224
   84SAPS  C213 7941   6.562   3.343   8.224 -0.3966  0.4220 -0.9997
   84SAPS  H13R 7942   6.538   3.438   8.276  0.7588  1.4171 -2.2555
   84SAPS  H13S 7943   6.469   3.310   8.173 -1.3302  1.3623  0.0777
   84SAPS  C214 7944   6.674   3.361   8.129 -0.1833 -0.4114 -0.3612
   84SAPS  H14R 7945   6.745   3.436   8.166 -0.3381  0.3868 -1.6367
   84SAPS  C215 7946   6.673   3.320   7.998 -0.0851 -0.2439 -0.9176
   84SAPS  H15R 7947   6.764   3.341   7.940  1.1103  1.2070  1.3822
   84SAPS  C216 7948   6.568   3.250   7.922 -0.3140  0.1901  0.6895
   84SAPS  H16R 7949   6.482   3.320   7.915 -0.8999 -0.4927  1.0414
   84SAPS  H16S 7950   6.530   3.159   7.971  1.9608 -0.9306  0.4677
   84SAPS  C217 7951   6.617   3.194   7.782 -0.5009 -0.3856 -0.2880
   84SAPS  H17R 7952   6.525   3.157   7.731 -0.0311 -1.8962 -0.0696
   84SAPS  H17S 7953   6.679   3.109   7.817  0.3684  0.2445 -0.3057
   84SAPS  C218 7954   6.698   3.291   7.695  0.5470 -0.6186  0.5866
   84SAPS  H18R 7955   6.798   3.310   7.738  0.8377 -0.6008 -0.0968
   84SAPS  H18S 7956   6.651   3.392   7.694 -1.2701 -1.4515 -1.8739
   84SAPS  C219 7957   6.711   3.255   7.548  0.7460  0.1961 -0.2217
   84SAPS  H19R 7958   6.782   3.324   7.496  0.4784  1.3590  0.9177
   84SAPS  H19S 7959   6.614   3.286   7.505 -0.2015 -0.0957  1.6661
   84SAPS  C220 7960   6.740   3.108   7.524 -0.5096  0.1164  0.6881
   84SAPS  H20R 7961   6.721   3.095   7.415  2.2335  0.7653  0.1001
   84SAPS  H20S 7962   6.682   3.038   7.587 -0.6053 -0.9894 -0.6088
   84SAPS  H20T 7963   6.848   3.086   7.524 -0.3205  0.9807 -0.5318
   84SAPS   C33 7964   5.781   3.304   8.954 -0.0511  0.0660  0.1878
   84SAPS   H3X 7965   5.868   3.326   8.888  0.3334  3.2901  1.6973
   84SAPS   H3Y 7966   5.740   3.395   9.004  1.5883  0.7771  0.2655
   84SAPS   C34 7967   5.676   3.250   8.854 -0.3072 -0.4863 -0.3104
   84SAPS   H4X 7968   5.595   3.206   8.917  0.3590  1.7146  2.1724
   84SAPS   H4Y 7969   5.710   3.165   8.791  1.3888  0.7545 -1.1073
   84SAPS   C35 7970   5.600   3.351   8.762  0.0626  0.2830  0.0964
   84SAPS   H5X 7971   5.552   3.421   8.834 -0.3105 -0.4844  0.5877
   84SAPS   H5Y 7972   5.525   3.306   8.693  0.8047  0.1472 -0.6370
   84SAPS   C36 7973   5.695   3.423   8.659  0.5116  0.3924  0.4600
   84SAPS   H6X 7974   5.750   3.349   8.597  2.3984  0.5644  1.8808
   84SAPS   H6Y 7975   5.764   3.480   8.725 -0.4154  0.9894  0.9262
   84SAPS   C37 7976   5.636   3.535   8.569 -0.8243 -0.0576  0.0062
   84SAPS   H7X 7977   5.723   3.599   8.540 -0.9540 -0.3577 -1.0519
   84SAPS   H7Y 7978   5.561   3.596   8.624 -1.1956 -1.1078  0.6634
   84SAPS   C38 7979   5.568   3.478   8.441 -0.0598  0.4086  0.0312
   84SAPS   H8X 7980   5.458   3.469   8.452 -0.0181 -1.3182 -0.7917
   84SAPS   H8Y 7981   5.607   3.375   8.425 -1.3473 -0.1769  0.5870
   84SAPS   C39 7982   5.592   3.562   8.313  0.0871  0.0811 -0.2735
   84SAPS   H9X 7983   5.698   3.589   8.293  0.4041 -1.2953 -0.4624
   84SAPS   H9Y 7984   5.534   3.656   8.326  1.3682  0.5691  2.5527
   84SAPS  C310 7985   5.534   3.501   8.188  0.5920  0.6054  0.4223
   84SAPS  H10X 7986   5.442   3.445   8.215  0.2304  0.4695 -1.0642
   84SAPS  H10Y 7987   5.606   3.429   8.144  0.7399  0.8265  0.3046
   84SAPS  C311 7988   5.505   3.598   8.073 -0.5529 -0.0431 -0.1959
   84SAPS  H11X 7989   5.572   3.685   8.090  0.8444 -0.8218 -1.5998
   84SAPS  H11Y 7990   5.398   3.629   8.081 -0.9431 -1.6861  1.2477
   84SAPS  C312 7991   5.536   3.526   7.938  0.1682  0.2707  0.2496
   84SAPS  H12X 7992   5.478   3.568   7.854  0.6892 -1.2877 -0.9204
   84SAPS  H12Y 7993   5.522   3.416   7.932  0.2558  0.2327  0.7058
   84SAPS  C313 7994   5.685   3.553   7.901 -0.2049 -0.2307  0.0963
   84SAPS  H13X 7995   5.744   3.528   7.991 -0.3837 -1.2894 -0.0687
   84SAPS  H13Y 7996   5.705   3.662   7.892  0.1068 -0.2305  0.8040
   84SAPS  C314 7997   5.732   3.503   7.763 -0.8952  0.2206  0.4293
   84SAPS  H14X 7998   5.745   3.394   7.743  0.3884  0.7610 -1.8307
   84SAPS  H14Y 7999   5.837   3.539   7.760 -1.4374  1.8825  1.0221
   84SAPS  C315 8000   5.668   3.568   7.630 -0.0177  0.7168  0.4253
   84SAPS  H15X 8001   5.654   3.678   7.646 -1.5583  0.5614  0.2089
   84SAPS  H15Y 8002   5.572   3.518   7.604  0.2706 -0.5329  1.6997
   84SAPS  C316 8003   5.752   3.550   7.500 -0.1542  0.6499 -0.5546
   84SAPS  H16X 8004   5.810   3.456   7.487 -2.6181 -1.2907  1.8041
   84SAPS  H16Y 8005   5.832   3.626   7.511  0.4190 -0.0618  0.3630
   84SAPS  C317 8006   5.659   3.571   7.380  0.3405  0.1286 -0.2917
   84SAPS  H17X 8007   5.593   3.658   7.403  2.6730  1.8232  0.1820
   84SAPS  H17Y 8008   5.584   3.489   7.376  0.2375  0.2786 -1.8514
   84SAPS  C318 8009   5.726   3.602   7.245 -0.4265 -0.3066 -0.3078
   84SAPS  H18X 8010   5.782   3.512   7.212 -0.4674 -0.0764 -1.0135
   84SAPS  H18Y 8011   5.793   3.690   7.255  2.5067 -2.1397 -2.9144
   84SAPS  H18Z 8012   5.649   3.629   7.170  1.3072  1.2147 -1.5669
   85SAPS     N 8013   2.515   6.460  10.220  0.3791  0.3231 -0.3408
   85SAPS   HN1 8014   2.486   6.438  10.317  2.0000  0.2277  0.1295
   85SAPS   HN2 8015   2.550   6.558  10.221  0.7063  0.2566 -2.7087
   85SAPS   HN3 8016   2.428   6.463  10.163  0.8749  1.5260 -1.0613
   85SAPS   C12 8017   2.620   6.366  10.165  0.3649  0.6743 -0.3025
   85SAPS  H12A 8018   2.623   6.381  10.059 -3.1697  0.8447 -0.4552
   85SAPS   C13 8019   2.760   6.373  10.208  0.5122 -0.1032  0.9208
   85SAPS  O13A 8020   2.798   6.461  10.286  0.6556 -0.3590 -0.8646
   85SAPS  O13B 8021   2.845   6.296  10.153  0.4024 -0.6231 -0.3584
   85SAPS   C11 8022   2.561   6.219  10.187 -0.1788  0.2519 -0.0379
   85SAPS  H11A 8023   2.537   6.211  10.295  2.9985  4.5969  1.1808
   85SAPS  H11B 8024   2.647   6.152  10.165  2.2693  3.2559  0.0028
   85SAPS     P 8025   2.413   6.031  10.103  0.2125 -0.2878  0.3968
   85SAPS   O13 8026   2.487   5.984   9.986  0.8658  1.3484  0.4125
   85SAPS   O14 8027   2.459   5.973  10.230 -0.7247 -0.1520  0.3618
   85SAPS   O12 8028   2.442   6.183  10.113  0.2567 -0.1494  0.3893
   85SAPS   O11 8029   2.258   6.010  10.079 -0.0840  0.0439  0.6754
   85SAPS    C1 8030   2.165   6.095  10.145 -0.0580  1.2075  0.8407
   85SAPS    HA 8031   2.095   6.036  10.209  1.1359 -1.7446 -0.5013
   85SAPS    HB 8032   2.218   6.172  10.204  0.9359  0.3224  1.1033
   85SAPS    C2 8033   2.082   6.176  10.042  0.1030  0.9690 -0.0337
   85SAPS    HS 8034   1.993   6.203  10.103  0.2293 -0.3616  0.7562
   85SAPS   O21 8035   2.048   6.094   9.928  0.4646 -0.0210  0.5943
   85SAPS   C21 8036   1.940   6.130   9.863 -0.1936  0.2967 -0.7959
   85SAPS   O22 8037   1.863   6.215   9.896  0.4811  0.0673 -0.2492
   85SAPS   C22 8038   1.931   6.029   9.751  0.2680  0.5371 -0.2025
   85SAPS   H2R 8039   2.034   6.002   9.719  1.3770  4.5185 -0.2957
   85SAPS   H2S 8040   1.873   5.947   9.797 -0.4852 -0.0166 -2.1002
   85SAPS    C3 8041   2.144   6.313   9.998  0.2815  0.1139 -0.4344
   85SAPS    HX 8042   2.181   6.370  10.087 -1.0574 -1.1168  0.9467
   85SAPS    HY 8043   2.061   6.368   9.949  0.9829  0.4747 -1.2146
   85SAPS   O31 8044   2.244   6.287   9.900  0.1652 -0.1176 -0.3979
   85SAPS   C31 8045   2.351   6.355   9.891 -0.0686  0.0987  0.9369
   85SAPS   O32 8046   2.380   6.454   9.954 -0.1843  0.4344  0.4927
   85SAPS   C32 8047   2.444   6.305   9.778 -0.5295  0.5983  0.1398
   85SAPS   H2X 8048   2.397   6.240   9.701 -0.1125  0.0785  0.3249
   85SAPS   H2Y 8049   2.532   6.261   9.829 -1.7161 -2.9849 -0.8146
   85SAPS   C23 8050   1.840   6.081   9.642  0.1429 -0.2636  0.1036
   85SAPS   H3R 8051   1.743   6.113   9.686  0.4834 -1.3896  1.7062
   85SAPS   H3S 8052   1.822   6.002   9.566 -0.2764  1.6470 -1.8255
   85SAPS   C24 8053   1.886   6.204   9.563 -0.2097  0.7377  0.2695
   85SAPS   H4R 8054   1.884   6.296   9.625  1.4809 -0.0243  1.5054
   85SAPS   H4S 8055   1.828   6.215   9.469 -1.0570 -2.1289  0.3938
   85SAPS   C25 8056   2.024   6.183   9.522 -0.0352 -0.0592 -0.1597
   85SAPS   H5R 8057   2.047   6.087   9.473  0.6921 -0.3250  0.6780
   85SAPS   C26 8058   2.125   6.266   9.549 -0.4022 -0.2549  0.4479
   85SAPS   H6R 8059   2.217   6.223   9.508 -0.6570 -0.8975  0.5419
   85SAPS   C27 8060   2.129   6.403   9.618 -0.1508 -0.1966  0.2324
   85SAPS   H7R 8061   2.231   6.440   9.641  0.3226 -1.4166  0.1399
   85SAPS   H7S 8062   2.081   6.386   9.716 -1.1351  3.0508  0.3774
   85SAPS   C28 8063   2.044   6.508   9.554  0.0249 -0.3911  0.2337
   85SAPS   H8R 8064   1.937   6.492   9.573  0.1001 -1.4850 -0.2238
   85SAPS   C29 8065   2.077   6.603   9.465 -0.4967 -0.6259  0.4695
   85SAPS   H9R 8066   1.990   6.663   9.433 -1.9073 -2.7346  0.2190
   85SAPS  C210 8067   2.213   6.631   9.409  0.6513 -0.4599  0.0944
   85SAPS  H10R 8068   2.294   6.581   9.467  2.3326 -0.0387 -1.8288
   85SAPS  H10S 8069   2.235   6.740   9.421 -1.6862 -0.2042  2.6622
   85SAPS  C211 8070   2.221   6.589   9.262 -0.0476 -0.1854  0.4336
   85SAPS  H11R 8071   2.219   6.479   9.254 -1.1459 -0.1171 -0.3345
   85SAPS  C212 8072   2.232   6.674   9.153 -0.7234 -0.3496 -0.8269
   85SAPS  H12R 8073   2.220   6.621   9.057  0.9841 -2.2938  0.0118
   85SAPS  C213 8074   2.241   6.824   9.150  0.1993 -0.1597  1.0277
   85SAPS  H13R 8075   2.341   6.854   9.114  0.2243  0.4706  1.6130
   85SAPS  H13S 8076   2.217   6.866   9.250 -0.1817 -0.3231  1.0073
   85SAPS  C214 8077   2.150   6.890   9.047 -0.3094  0.1375 -0.7372
   85SAPS  H14R 8078   2.046   6.854   9.045 -1.4856  3.3661 -3.6493
   85SAPS  C215 8079   2.194   6.969   8.944  0.7554  0.1582  0.2884
   85SAPS  H15R 8080   2.114   7.023   8.891  0.9467 -1.0821 -1.2723
   85SAPS  C216 8081   2.341   7.002   8.915 -0.2533  0.3176 -0.0956
   85SAPS  H16R 8082   2.386   6.945   8.831 -1.2610  0.3523 -0.6683
   85SAPS  H16S 8083   2.406   6.986   9.003  0.4138  0.0237 -0.6355
   85SAPS  C217 8084   2.366   7.145   8.889 -0.1798  0.3361  0.1345
   85SAPS  H17R 8085   2.471   7.156   8.854 -1.4508  1.4328 -3.6439
   85SAPS  H17S 8086   2.335   7.213   8.972 -0.6457 -0.5497  0.6847
   85SAPS  C218 8087   2.307   7.205   8.766 -0.4406 -0.6010  0.1640
   85SAPS  H18R 8088   2.341   7.311   8.763 -0.6797 -0.4110  2.7916
   85SAPS  H18S 8089   2.196   7.210   8.774 -0.6420 -1.0203 -2.0440
   85SAPS  C219 8090   2.336   7.123   8.640 -0.1814  0.7848 -0.8615
   85SAPS  H19R 8091   2.267   7.036   8.639  0.6918  0.0803 -2.2228
   85SAPS  H19S 8092   2.442   7.088   8.640 -0.3752  0.1946 -2.1428
   85SAPS  C220 8093   2.323   7.207   8.513 -0.5426 -0.2181 -0.1051
   85SAPS  H20R 8094   2.419   7.262   8.509 -0.3511 -0.3360  2.2538
   85SAPS  H20S 8095   2.231   7.270   8.510  1.6218  3.1261  1.0663
   85SAPS  H20T 8096   2.319   7.129   8.434  1.4666 -2.1737  1.6176
   85SAPS   C33 8097   2.505   6.425   9.698 -0.1234 -0.0191 -0.0035
   85SAPS   H3X 8098   2.562   6.475   9.780  1.2475  0.4329 -1.2156
   85SAPS   H3Y 8099   2.427   6.497   9.664  0.1069  0.1890 -0.0883
   85SAPS   C34 8100   2.608   6.390   9.591 -0.3893 -0.3628  0.2388
   85SAPS   H4X 8101   2.690   6.326   9.630 -0.0170 -0.5954 -0.9150
   85SAPS   H4Y 8102   2.650   6.490   9.571  0.7529 -1.0198 -0.6645
   85SAPS   C35 8103   2.545   6.339   9.460  0.2153  0.0147 -0.0902
   85SAPS   H5X 8104   2.445   6.388   9.453  0.1775 -0.1364 -0.6210
   85SAPS   H5Y 8105   2.556   6.229   9.459  4.3992  0.3385 -2.2143
   85SAPS   C36 8106   2.623   6.394   9.339 -0.5194  0.6849  0.1836
   85SAPS   H6X 8107   2.729   6.360   9.341 -1.3515 -2.0785 -0.5084
   85SAPS   H6Y 8108   2.629   6.504   9.358  2.0838  0.9128 -1.7243
   85SAPS   C37 8109   2.564   6.365   9.199 -0.0793 -0.5634  0.2957
   85SAPS   H7X 8110   2.458   6.393   9.183  0.1236 -0.3341 -0.7027
   85SAPS   H7Y 8111   2.570   6.254   9.187 -2.0739 -0.5111 -1.6325
   85SAPS   C38 8112   2.639   6.426   9.082 -0.7050  0.0157 -0.4146
   85SAPS   H8X 8113   2.744   6.391   9.085 -0.6447  0.3284  1.1189
   85SAPS   H8Y 8114   2.628   6.536   9.087 -0.9020  0.0633 -1.6335
   85SAPS   C39 8115   2.585   6.387   8.946 -0.1924  0.6590  0.4127
   85SAPS   H9X 8116   2.475   6.404   8.944 -0.6742 -2.1332 -0.4687
   85SAPS   H9Y 8117   2.597   6.277   8.931  1.9861  0.8103  0.9140
   85SAPS  C310 8118   2.654   6.454   8.820  0.2804 -0.0856 -0.1850
   85SAPS  H10X 8119   2.761   6.435   8.842  0.9890  0.6003 -2.7873
   85SAPS  H10Y 8120   2.643   6.565   8.820  2.0720  0.1087 -0.0838
   85SAPS  C311 8121   2.615   6.392   8.689 -0.3079 -0.2492 -0.3584
   85SAPS  H11X 8122   2.645   6.285   8.694  2.2712  0.4170 -0.6998
   85SAPS  H11Y 8123   2.669   6.439   8.604  0.0110  0.5655  0.2854
   85SAPS  C312 8124   2.463   6.409   8.658 -0.4172  0.2940  0.1479
   85SAPS  H12X 8125   2.435   6.512   8.687  0.1267  0.5096 -0.1057
   85SAPS  H12Y 8126   2.415   6.340   8.732 -0.6973  1.9962  1.5717
   85SAPS  C313 8127   2.429   6.378   8.515  0.1779  0.0941 -0.2117
   85SAPS  H13X 8128   2.321   6.361   8.497 -0.1717  1.8324  0.1543
   85SAPS  H13Y 8129   2.477   6.284   8.482  1.1056 -0.4085  2.4712
   85SAPS  C314 8130   2.479   6.488   8.424  0.5525 -0.4656  0.0316
   85SAPS  H14X 8131   2.589   6.491   8.441  0.7137 -2.4641 -0.5741
   85SAPS  H14Y 8132   2.434   6.588   8.444  1.3958  0.0226 -0.4647
   85SAPS  C315 8133   2.459   6.447   8.281 -0.2123  0.5368  0.7022
   85SAPS  H15X 8134   2.353   6.418   8.262  0.3571 -0.7326 -0.7113
   85SAPS  H15Y 8135   2.524   6.361   8.252 -0.4928  0.3933  0.4983
   85SAPS  C316 8136   2.471   6.564   8.172 -0.0404  0.8113  0.2109
   85SAPS  H16X 8137   2.403   6.646   8.206  0.6226  1.3024  0.3769
   85SAPS  H16Y 8138   2.439   6.518   8.077 -0.3408 -0.3508  0.8618
   85SAPS  C317 8139   2.613   6.620   8.149 -0.1000  0.5150  0.4555
   85SAPS  H17X 8140   2.681   6.534   8.126 -0.0511  0.7380 -0.2358
   85SAPS  H17Y 8141   2.656   6.646   8.248  0.3979 -2.1013  0.9872
   85SAPS  C318 8142   2.612   6.725   8.039  0.7446  0.1314 -0.2813
   85SAPS  H18X 8143   2.562   6.684   7.948 -0.8628  2.3506 -0.4338
   85SAPS  H18Y 8144   2.719   6.743   8.014  0.6210 -1.6449 -2.3286
   85SAPS  H18Z 8145   2.556   6.816   8.070  0.1139 -0.4020  0.1531
   86SAPS     N 8146   5.127   6.373   9.938  0.2050  0.1677 -0.0506
   86SAPS   HN1 8147   5.032   6.337   9.962  0.5605 -0.9927 -0.3469
   86SAPS   HN2 8148   5.138   6.476   9.925  1.4112  0.3674  2.2656
   86SAPS   HN3 8149   5.167   6.324   9.856 -2.0410 -0.8263 -0.5930
   86SAPS   C12 8150   5.218   6.339  10.056 -0.3751  0.0241 -1.0757
   86SAPS  H12A 8151   5.314   6.371  10.019 -0.7730  0.4097 -1.7874
   86SAPS   C13 8152   5.167   6.397  10.186 -0.6188 -0.1344  0.5933
   86SAPS  O13A 8153   5.053   6.437  10.208 -0.3887 -0.2661 -0.0902
   86SAPS  O13B 8154   5.251   6.396  10.280 -0.1667  0.1530  0.5408
   86SAPS   C11 8155   5.230   6.177  10.049 -0.0755  0.1237 -0.0615
   86SAPS  H11A 8156   5.123   6.148  10.063  0.0344 -0.6351 -0.7927
   86SAPS  H11B 8157   5.299   6.142  10.129  0.8870  0.1297 -0.8844
   86SAPS     P 8158   5.293   5.979   9.907 -0.0992 -0.1696 -0.3619
   86SAPS   O13 8159   5.367   5.928  10.028  0.2841 -0.7881  0.5261
   86SAPS   O14 8160   5.170   5.914   9.867  0.0399  0.2493 -0.2157
   86SAPS   O12 8161   5.272   6.134   9.924 -0.8391  0.7762 -0.2139
   86SAPS   O11 8162   5.390   5.964   9.786  0.5799 -0.3867  0.4520
   86SAPS    C1 8163   5.343   6.005   9.660  0.1521 -0.4341  0.0967
   86SAPS    HA 8164   5.259   6.076   9.673  0.2579 -0.4291  0.7756
   86SAPS    HB 8165   5.422   6.058   9.602 -0.4569  2.5814  1.9005
   86SAPS    C2 8166   5.307   5.879   9.580  0.0012 -0.0273  0.5990
   86SAPS    HS 8167   5.248   5.819   9.652  0.0738  0.0386  0.7148
   86SAPS   O21 8168   5.432   5.809   9.541  1.0499 -0.2769 -0.5194
   86SAPS   C21 8169   5.400   5.685   9.498  0.0606 -0.1952 -0.1427
   86SAPS   O22 8170   5.287   5.634   9.502  0.0013  0.1995 -0.5893
   86SAPS   C22 8171   5.522   5.614   9.450 -0.4149 -0.2329 -0.5601
   86SAPS   H2R 8172   5.604   5.631   9.523 -1.2447 -2.9291  1.0795
   86SAPS   H2S 8173   5.497   5.506   9.455 -0.2582 -0.1580  2.9396
   86SAPS    C3 8174   5.238   5.935   9.451 -0.1647 -0.5689  0.0783
   86SAPS    HX 8175   5.140   5.979   9.478  0.7161  0.9641  0.8972
   86SAPS    HY 8176   5.218   5.848   9.387  1.5151 -1.4497  0.7082
   86SAPS   O31 8177   5.316   6.031   9.370  0.1560  0.4224  0.4440
   86SAPS   C31 8178   5.287   6.160   9.380 -0.4340 -0.4071  0.0601
   86SAPS   O32 8179   5.217   6.216   9.468 -0.6883  0.7062 -0.0264
   86SAPS   C32 8180   5.372   6.235   9.276 -0.4571 -0.4539  0.0751
   86SAPS   H2X 8181   5.335   6.192   9.181  0.6887 -1.2230 -0.0287
   86SAPS   H2Y 8182   5.477   6.201   9.290 -0.1117 -0.2469 -1.9381
   86SAPS   C23 8183   5.571   5.671   9.311  0.5489  0.8201 -0.0411
   86SAPS   H3R 8184   5.680   5.652   9.308  0.3153 -0.2081 -2.4878
   86SAPS   H3S 8185   5.558   5.782   9.314 -0.7423  0.6496  1.7170
   86SAPS   C24 8186   5.516   5.603   9.188  0.5537  0.2396 -0.1627
   86SAPS   H4R 8187   5.498   5.494   9.202 -3.4848  0.9685  1.1003
   86SAPS   H4S 8188   5.582   5.609   9.099  0.5553 -2.0121 -0.3510
   86SAPS   C25 8189   5.382   5.652   9.151  1.2365  0.0901 -0.0079
   86SAPS   H5R 8190   5.299   5.600   9.201  0.4895  0.5218 -0.7763
   86SAPS   C26 8191   5.353   5.745   9.056 -0.2052 -0.4465  0.4277
   86SAPS   H6R 8192   5.247   5.771   9.044 -0.3463 -1.9117 -1.7407
   86SAPS   C27 8193   5.460   5.812   8.968  0.7841  0.0910  0.4072
   86SAPS   H7R 8194   5.416   5.846   8.872 -2.4204  0.2356  1.8823
   86SAPS   H7S 8195   5.532   5.731   8.944  1.9773  0.5121  2.5129
   86SAPS   C28 8196   5.534   5.927   9.038 -0.2427  0.2466  0.4151
   86SAPS   H8R 8197   5.550   5.916   9.146 -1.5123 -1.2104  0.4756
   86SAPS   C29 8198   5.575   6.039   8.977 -0.0816 -0.0317 -0.4127
   86SAPS   H9R 8199   5.631   6.118   9.028 -0.9124  0.0254  0.4190
   86SAPS  C210 8200   5.543   6.069   8.830 -0.2553  0.2273  0.2796
   86SAPS  H10R 8201   5.547   5.975   8.770 -0.4850 -0.3520  1.1613
   86SAPS  H10S 8202   5.625   6.138   8.804  2.0652 -1.7335  2.1910
   86SAPS  C211 8203   5.402   6.118   8.808 -0.1116 -0.7647 -0.3178
   86SAPS  H11R 8204   5.327   6.060   8.864  1.1871 -0.0117  2.3245
   86SAPS  C212 8205   5.370   6.231   8.738 -0.0527 -0.1093  0.1059
   86SAPS  H12R 8206   5.268   6.269   8.743 -0.7275 -1.4864 -2.5492
   86SAPS  C213 8207   5.466   6.335   8.674 -0.3633  0.0392  0.0254
   86SAPS  H13R 8208   5.535   6.377   8.751 -0.7003  1.3240 -0.3709
   86SAPS  H13S 8209   5.397   6.416   8.642  0.4428 -0.2439 -2.4847
   86SAPS  C214 8210   5.539   6.284   8.556  0.2225 -0.1699 -0.0341
   86SAPS  H14R 8211   5.645   6.259   8.574  0.1746  0.4616  1.1559
   86SAPS  C215 8212   5.501   6.294   8.428 -0.0403  0.1195 -0.6222
   86SAPS  H15R 8213   5.562   6.249   8.349 -0.5269  0.1101 -0.9937
   86SAPS  C216 8214   5.363   6.355   8.381  0.4229 -0.5033  0.3158
   86SAPS  H16R 8215   5.355   6.466   8.383 -0.5005 -0.5301 -1.6614
   86SAPS  H16S 8216   5.278   6.311   8.437  1.2465 -2.0819  0.3619
   86SAPS  C217 8217   5.335   6.319   8.229 -0.1771 -0.7965 -0.9468
   86SAPS  H17R 8218   5.313   6.211   8.216 -1.0662 -0.7616  0.2451
   86SAPS  H17S 8219   5.427   6.354   8.177  1.2838 -2.2573  0.5533
   86SAPS  C218 8220   5.213   6.401   8.170  0.0845  0.1779 -0.2556
   86SAPS  H18R 8221   5.224   6.512   8.171  0.6914  0.1331  2.7841
   86SAPS  H18S 8222   5.129   6.368   8.234 -2.4199 -0.4790 -3.7641
   86SAPS  C219 8223   5.203   6.377   8.009  0.1819  0.5646 -0.2488
   86SAPS  H19R 8224   5.191   6.267   8.003  1.8899  0.3118  0.7871
   86SAPS  H19S 8225   5.299   6.409   7.962  0.4657  0.6292  0.3806
   86SAPS  C220 8226   5.081   6.454   7.955 -0.0878 -0.0995  0.6230
   86SAPS  H20R 8227   5.097   6.563   7.970  0.9489 -0.4098  1.7789
   86SAPS  H20S 8228   4.989   6.424   8.010 -0.1744 -0.5240  0.2454
   86SAPS  H20T 8229   5.058   6.443   7.846  0.7415 -0.5628  0.4936
   86SAPS   C33 8230   5.372   6.390   9.292 -0.6811 -0.6679 -0.2937
   86SAPS   H3X 8231   5.442   6.432   9.216  0.0326  0.4163  0.9506
   86SAPS   H3Y 8232   5.389   6.421   9.397 -1.9018 -0.3068 -0.2025
   86SAPS   C34 8233   5.242   6.450   9.246  0.2620 -0.0182 -0.4030
   86SAPS   H4X 8234   5.252   6.560   9.233 -1.7717  0.2372  0.0545
   86SAPS   H4Y 8235   5.151   6.446   9.309  0.2960  2.4438 -0.1233
   86SAPS   C35 8236   5.192   6.407   9.103 -0.3433  0.1093 -0.4374
   86SAPS   H5X 8237   5.156   6.302   9.106  0.6317 -0.2134  0.4172
   86SAPS   H5Y 8238   5.274   6.417   9.028 -0.0583  0.2027 -0.1149
   86SAPS   C36 8239   5.069   6.491   9.051  0.7604  0.3390 -0.3067
   86SAPS   H6X 8240   5.105   6.596   9.056 -0.1589  0.6245  0.6110
   86SAPS   H6Y 8241   4.989   6.475   9.127  0.9755 -0.0357 -0.1635
   86SAPS   C37 8242   5.025   6.455   8.913 -0.2853  0.3107  1.1482
   86SAPS   H7X 8243   4.914   6.466   8.914 -0.0035  3.5891  1.4148
   86SAPS   H7Y 8244   5.041   6.347   8.895 -0.3003  0.5257 -0.1917
   86SAPS   C38 8245   5.075   6.546   8.803  0.0090 -0.7277 -0.3503
   86SAPS   H8X 8246   5.177   6.583   8.829 -0.7097  0.0400  1.4216
   86SAPS   H8Y 8247   5.011   6.635   8.790 -1.9359 -2.2555 -1.5210
   86SAPS   C39 8248   5.077   6.481   8.670  0.2373 -0.4704  0.2373
   86SAPS   H9X 8249   5.113   6.376   8.674  2.1611  0.0355 -2.2954
   86SAPS   H9Y 8250   5.158   6.525   8.608  0.2167 -1.3146 -0.3956
   86SAPS  C310 8251   4.945   6.481   8.596  0.3594  0.0279 -0.1262
   86SAPS  H10X 8252   4.903   6.582   8.574 -1.1645 -0.9995 -2.1144
   86SAPS  H10Y 8253   4.888   6.436   8.680  0.6510  1.6179  0.9544
   86SAPS  C311 8254   4.942   6.393   8.464 -0.6799 -0.0429  0.6801
   86SAPS  H11X 8255   4.993   6.295   8.465 -0.7358 -0.0969 -0.7103
   86SAPS  H11Y 8256   5.004   6.452   8.392  2.1079 -2.7081  0.8248
   86SAPS  C312 8257   4.805   6.384   8.387  0.1333  0.7752  0.3812
   86SAPS  H12X 8258   4.760   6.485   8.381  1.1248  1.1781 -0.4337
   86SAPS  H12Y 8259   4.738   6.334   8.460 -2.4792  2.0372 -1.0841
   86SAPS  C313 8260   4.801   6.297   8.261 -0.2368 -0.0850  0.7484
   86SAPS  H13X 8261   4.838   6.343   8.167 -0.2662  2.3666  1.9034
   86SAPS  H13Y 8262   4.691   6.282   8.257 -0.1096 -0.8864 -0.0493
   86SAPS  C314 8263   4.863   6.164   8.270 -0.5656  0.0604 -0.4342
   86SAPS  H14X 8264   4.815   6.113   8.356 -0.3717  4.1056  2.2191
   86SAPS  H14Y 8265   4.972   6.171   8.288 -0.4835 -4.3733  1.3571
   86SAPS  C315 8266   4.848   6.078   8.146 -0.4287 -0.3064  1.0813
   86SAPS  H15X 8267   4.808   6.143   8.066 -1.2270 -0.3054  1.4814
   86SAPS  H15Y 8268   4.776   5.993   8.142  0.3837 -0.9884  0.6402
   86SAPS  C316 8269   4.983   6.019   8.098  0.3901 -0.4941 -0.2299
   86SAPS  H16X 8270   5.032   5.961   8.179 -0.3262 -0.3769  0.2985
   86SAPS  H16Y 8271   5.050   6.101   8.065  0.7229 -0.7691 -0.2406
   86SAPS  C317 8272   4.955   5.914   7.986  0.2784  0.1310  0.0419
   86SAPS  H17X 8273   4.889   5.950   7.905  0.2659  1.5295  0.6557
   86SAPS  H17Y 8274   4.888   5.836   8.028 -0.4234  1.2277  0.9948
   86SAPS  C318 8275   5.073   5.861   7.915  0.0687  0.7267 -0.1155
   86SAPS  H18X 8276   5.117   5.772   7.966  0.4991  1.3985  0.7047
   86SAPS  H18Y 8277   5.157   5.934   7.906  0.7430  0.1342  1.1599
   86SAPS  H18Z 8278   5.038   5.844   7.812 -0.6560  0.1231  0.2296
   87SAPS     N 8279   5.890   6.852  10.094 -0.7505 -0.5392 -0.5592
   87SAPS   HN1 8280   5.987   6.837  10.059 -0.5956 -0.4000 -0.1959
   87SAPS   HN2 8281   5.844   6.901  10.015 -2.8995 -1.1586  0.2542
   87SAPS   HN3 8282   5.886   6.899  10.187 -0.7206  1.4563 -1.5366
   87SAPS   C12 8283   5.848   6.706  10.102 -0.0078  0.0762  0.3669
   87SAPS  H12A 8284   5.881   6.655  10.013  0.2236  1.1069 -0.1435
   87SAPS   C13 8285   5.921   6.625  10.211  0.2033 -0.6427  0.6305
   87SAPS  O13A 8286   5.999   6.681  10.292  0.4322 -0.8068 -0.6895
   87SAPS  O13B 8287   5.878   6.509  10.226 -0.0964  0.0588  0.6361
   87SAPS   C11 8288   5.691   6.706  10.122 -0.4252 -0.3077  0.3062
   87SAPS  H11A 8289   5.664   6.769  10.209  2.2069  1.0659  0.2073
   87SAPS  H11B 8290   5.666   6.606  10.161 -2.5366  1.5489  3.9378
   87SAPS     P 8291   5.516   6.650   9.944 -0.1644  0.3653  0.2328
   87SAPS   O13 8292   5.577   6.595   9.822 -0.0259  0.1850  0.0114
   87SAPS   O14 8293   5.475   6.560  10.054 -0.0025  0.6322  0.1979
   87SAPS   O12 8294   5.628   6.751  10.002 -0.4667  0.5120  0.4255
   87SAPS   O11 8295   5.399   6.759   9.917 -0.5289  0.1060 -0.2629
   87SAPS    C1 8296   5.361   6.846  10.025  0.0119  0.0517  0.7728
   87SAPS    HA 8297   5.285   6.796  10.089 -0.6453 -1.1759 -0.9166
   87SAPS    HB 8298   5.454   6.885  10.072  1.8880 -0.2569 -2.5214
   87SAPS    C2 8299   5.299   6.967   9.956 -0.0966  0.0829  0.7654
   87SAPS    HS 8300   5.263   7.032  10.038  0.4359  0.8340  0.4022
   87SAPS   O21 8301   5.193   6.931   9.866  0.0097  0.2809  0.5441
   87SAPS   C21 8302   5.103   7.026   9.841 -0.4202  0.1972 -0.0207
   87SAPS   O22 8303   5.094   7.134   9.887 -0.4205  0.1468 -0.7821
   87SAPS   C22 8304   4.998   6.965   9.744 -0.1858  0.4999  0.1409
   87SAPS   H2R 8305   5.023   6.858   9.725  0.5792  1.1724 -2.8243
   87SAPS   H2S 8306   4.898   6.972   9.793  0.2348  1.4113  0.8959
   87SAPS    C3 8307   5.411   7.053   9.888 -0.2966  0.3469  0.3971
   87SAPS    HX 8308   5.484   7.079   9.968  0.2604  0.3699 -0.1160
   87SAPS    HY 8309   5.367   7.146   9.847  0.9319  0.9190  0.3651
   87SAPS   O31 8310   5.480   6.977   9.781 -0.6121  0.2924  0.4119
   87SAPS   C31 8311   5.417   6.985   9.670 -0.3804  0.1056 -0.0191
   87SAPS   O32 8312   5.327   7.063   9.644 -0.7739  0.5605 -0.2302
   87SAPS   C32 8313   5.485   6.892   9.570  0.4183  0.5913  0.0025
   87SAPS   H2X 8314   5.475   6.786   9.601 -0.1588  0.7703  0.4428
   87SAPS   H2Y 8315   5.592   6.919   9.577  1.1037 -1.6761 -1.2093
   87SAPS   C23 8316   4.984   7.045   9.611 -0.5509  0.1309  0.2452
   87SAPS   H3R 8317   5.081   7.068   9.560 -1.1479 -0.3292 -1.1227
   87SAPS   H3S 8318   4.937   7.141   9.639 -0.8685  0.3492 -0.9941
   87SAPS   C24 8319   4.897   6.972   9.508  0.1979  0.0694 -0.4603
   87SAPS   H4R 8320   4.861   7.048   9.435  0.3754 -0.2377 -0.8678
   87SAPS   H4S 8321   4.813   6.925   9.563 -1.9055 -0.3081 -3.8166
   87SAPS   C25 8322   4.967   6.860   9.429 -0.0179 -0.2759 -0.0588
   87SAPS   H5R 8323   5.018   6.782   9.488  2.5863  0.3888 -1.3951
   87SAPS   C26 8324   4.968   6.842   9.296 -0.7463  0.1746 -0.0175
   87SAPS   H6R 8325   5.024   6.753   9.263 -0.5783  0.1555  0.3215
   87SAPS   C27 8326   4.910   6.920   9.183  0.7505 -0.5238  0.4758
   87SAPS   H7R 8327   4.836   6.990   9.227  0.3949  0.4615 -1.6124
   87SAPS   H7S 8328   4.850   6.850   9.120 -1.0052  0.5302  0.9243
   87SAPS   C28 8329   5.019   6.996   9.114 -0.5567  0.2550 -0.4342
   87SAPS   H8R 8330   5.085   7.049   9.184  1.8152 -2.1070 -0.7877
   87SAPS   C29 8331   5.045   6.996   8.983  0.9608 -0.2254  0.1757
   87SAPS   H9R 8332   5.136   7.050   8.950  0.8873 -0.7204 -0.8521
   87SAPS  C210 8333   4.974   6.916   8.871  0.1029 -0.5245  0.1165
   87SAPS  H10R 8334   4.907   6.836   8.909 -0.6802  0.3518  0.6230
   87SAPS  H10S 8335   5.045   6.859   8.807 -1.4328  0.8500 -2.9308
   87SAPS  C211 8336   4.890   7.000   8.780  0.2521  0.3280 -0.1461
   87SAPS  H11R 8337   4.841   7.085   8.830 -1.2243 -0.8308  0.3987
   87SAPS  C212 8338   4.863   6.990   8.650 -0.1233 -0.5940  0.8182
   87SAPS  H12R 8339   4.807   7.074   8.606  2.7535  1.3999  0.8178
   87SAPS  C213 8340   4.901   6.879   8.554  0.2766  0.5804 -0.0975
   87SAPS  H13R 8341   4.930   6.794   8.620 -2.0940 -1.3677 -1.4661
   87SAPS  H13S 8342   4.995   6.891   8.496  1.2202  1.1128  1.5378
   87SAPS  C214 8343   4.782   6.848   8.469 -0.3822 -0.4440  0.8090
   87SAPS  H14R 8344   4.682   6.860   8.513 -1.3996 -0.0182 -1.5347
   87SAPS  C215 8345   4.782   6.802   8.342 -0.0583  0.4241 -0.1883
   87SAPS  H15R 8346   4.688   6.802   8.285 -0.3087 -0.9831  0.1923
   87SAPS  C216 8347   4.904   6.764   8.261  0.1488 -0.3315  0.6602
   87SAPS  H16R 8348   4.883   6.678   8.195 -2.4033 -1.5689  3.0109
   87SAPS  H16S 8349   4.989   6.731   8.325 -1.0475  1.4540  3.2715
   87SAPS  C217 8350   4.961   6.879   8.173 -0.0756 -0.5257  0.2168
   87SAPS  H17R 8351   5.055   6.841   8.126  0.1526 -0.8417  0.9223
   87SAPS  H17S 8352   4.993   6.960   8.243  0.3273  0.9044 -1.5799
   87SAPS  C218 8353   4.865   6.932   8.065 -1.1090  0.1473  0.6081
   87SAPS  H18R 8354   4.785   6.977   8.128 -0.6284  2.3934 -0.3366
   87SAPS  H18S 8355   4.818   6.853   8.004 -0.9062 -0.6314  1.4462
   87SAPS  C219 8356   4.921   7.042   7.967 -0.0766  0.0189 -0.2260
   87SAPS  H19R 8357   4.961   7.130   8.022 -0.0148 -0.4915  0.5457
   87SAPS  H19S 8358   4.832   7.065   7.904 -1.8022 -2.3385  1.2747
   87SAPS  C220 8359   5.033   6.983   7.873  0.5406  0.3545 -0.4973
   87SAPS  H20R 8360   5.126   6.966   7.932  0.6318  1.2505 -0.3770
   87SAPS  H20S 8361   5.051   7.059   7.794  0.6157 -0.6964 -1.4894
   87SAPS  H20T 8362   4.998   6.889   7.827  1.4874 -0.2039 -0.0930
   87SAPS   C33 8363   5.419   6.907   9.430  0.1380  0.3826 -0.0794
   87SAPS   H3X 8364   5.388   7.008   9.395  0.2642  0.2011 -0.7182
   87SAPS   H3Y 8365   5.326   6.848   9.439 -0.1950  0.8355 -0.5300
   87SAPS   C34 8366   5.505   6.840   9.319  0.2391  0.2525 -0.1597
   87SAPS   H4X 8367   5.494   6.731   9.341 -0.1272  0.7379  2.1948
   87SAPS   H4Y 8368   5.610   6.869   9.340  0.8670 -1.7367 -0.4743
   87SAPS   C35 8369   5.443   6.879   9.181 -0.2679 -0.6132 -0.0628
   87SAPS   H5X 8370   5.463   6.986   9.159 -2.5888 -0.6927 -2.9102
   87SAPS   H5Y 8371   5.333   6.862   9.180 -0.2832 -0.5317  0.2518
   87SAPS   C36 8372   5.506   6.796   9.067 -0.1940  0.2772  0.1745
   87SAPS   H6X 8373   5.491   6.692   9.103 -0.9774  0.6534  0.9219
   87SAPS   H6Y 8374   5.616   6.809   9.051  0.0417 -3.0335 -1.3825
   87SAPS   C37 8375   5.439   6.811   8.925 -0.3591 -0.2412 -0.6112
   87SAPS   H7X 8376   5.471   6.899   8.865 -1.1439  0.1957 -0.3976
   87SAPS   H7Y 8377   5.331   6.821   8.948 -0.9323 -2.5020 -2.2684
   87SAPS   C38 8378   5.464   6.689   8.836 -0.4301 -0.6200 -0.1776
   87SAPS   H8X 8379   5.431   6.600   8.894 -3.0430  1.1070  1.0809
   87SAPS   H8Y 8380   5.574   6.697   8.821 -0.5308 -0.0610 -0.6386
   87SAPS   C39 8381   5.413   6.687   8.694 -0.6370 -0.4630  0.0024
   87SAPS   H9X 8382   5.317   6.632   8.682 -0.1526 -1.8786  2.2871
   87SAPS   H9Y 8383   5.488   6.626   8.639  0.1419  0.2486  0.2646
   87SAPS  C310 8384   5.425   6.815   8.615 -0.2540 -0.1824  0.1858
   87SAPS  H10X 8385   5.526   6.853   8.640 -0.5960  1.2155 -0.5197
   87SAPS  H10Y 8386   5.351   6.894   8.641 -0.3766 -0.2832  0.1419
   87SAPS  C311 8387   5.407   6.797   8.462 -0.8951  1.0640  0.3537
   87SAPS  H11X 8388   5.316   6.735   8.446  1.6256 -2.5546 -0.5752
   87SAPS  H11Y 8389   5.498   6.744   8.427  0.1171  1.8139  1.8065
   87SAPS  C312 8390   5.411   6.938   8.382 -0.0483 -0.3147 -0.6365
   87SAPS  H12X 8391   5.507   6.989   8.407  0.2305 -0.6946 -0.9455
   87SAPS  H12Y 8392   5.326   6.998   8.422  0.1753  1.6758 -3.0437
   87SAPS  C313 8393   5.387   6.930   8.235  0.4047 -1.1977 -0.8366
   87SAPS  H13X 8394   5.372   7.035   8.203  0.3008 -0.0430  2.8335
   87SAPS  H13Y 8395   5.291   6.876   8.216  0.2309 -1.4806  0.7554
   87SAPS  C314 8396   5.494   6.873   8.139  0.6340 -0.0476 -0.5359
   87SAPS  H14X 8397   5.451   6.845   8.040 -0.4103  0.3568 -0.2055
   87SAPS  H14Y 8398   5.529   6.777   8.181  1.2291 -0.1666 -1.2887
   87SAPS  C315 8399   5.619   6.962   8.120 -0.2883 -0.0619 -0.3748
   87SAPS  H15X 8400   5.679   6.911   8.042 -1.4358 -0.8744 -0.7435
   87SAPS  H15Y 8401   5.686   6.954   8.209 -1.0284  2.4611  0.4366
   87SAPS  C316 8402   5.587   7.105   8.081 -0.0581 -0.1200 -0.5048
   87SAPS  H16X 8403   5.556   7.160   8.172  3.8360  0.1254  0.7608
   87SAPS  H16Y 8404   5.511   7.109   8.000 -0.3287 -0.5976 -0.2764
   87SAPS  C317 8405   5.714   7.181   8.030  0.3666  0.9489 -0.1601
   87SAPS  H17X 8406   5.794   7.175   8.106 -0.1320 -1.3883  0.2331
   87SAPS  H17Y 8407   5.687   7.289   8.034  2.1437  1.3482  1.2366
   87SAPS  C318 8408   5.764   7.150   7.886  0.6399  1.3274  0.5090
   87SAPS  H18X 8409   5.845   7.222   7.863  1.5808  0.2778  0.4934
   87SAPS  H18Y 8410   5.681   7.147   7.813 -0.1480 -1.0453  1.4552
   87SAPS  H18Z 8411   5.811   7.049   7.884  1.3562  1.6732 -0.7600
   88SAPS     N 8412   0.042   3.101  10.375  0.7328  0.3431  0.2763
   88SAPS   HN1 8413   0.129   3.082  10.320 -0.0103 -0.4683 -0.6388
   88SAPS   HN2 8414  -0.018   3.159  10.314 -0.3481  0.3522  1.3203
   88SAPS   HN3 8415   0.072   3.150  10.462  2.5770 -0.2679  0.0073
   88SAPS   C12 8416  -0.036   2.976  10.391 -0.6357  0.1131 -0.2491
   88SAPS  H12A 8417   0.020   2.890  10.425 -1.4740 -0.5924 -0.6522
   88SAPS   C13 8418  -0.166   2.989  10.464  0.1016  0.1098  0.0246
   88SAPS  O13A 8419  -0.201   3.097  10.508  0.0565  0.2540  0.5571
   88SAPS  O13B 8420  -0.228   2.883  10.497 -0.4753  0.2386  0.4641
   88SAPS   C11 8421  -0.077   2.938  10.251  0.2595 -0.0738  0.2713
   88SAPS  H11A 8422  -0.159   3.001  10.210  0.5009 -0.7714 -1.2974
   88SAPS  H11B 8423  -0.116   2.834  10.252  0.1824 -0.1085 -2.5498
   88SAPS     P 8424   0.015   2.886  10.008 -0.4851 -0.2912  0.1215
   88SAPS   O13 8425   0.147   2.871   9.942 -0.5360  0.2813  0.3361
   88SAPS   O14 8426  -0.084   2.780  10.018 -0.0343 -0.2793 -0.1106
   88SAPS   O12 8427   0.031   2.948  10.153  0.1994  0.3589 -0.5408
   88SAPS   O11 8428  -0.051   2.997   9.919  0.3555  0.5978 -0.1579
   88SAPS    C1 8429  -0.002   3.131   9.929 -0.3207 -0.6514 -0.3510
   88SAPS    HA 8430   0.007   3.163  10.035 -2.0395 -1.9426  0.2044
   88SAPS    HB 8431   0.095   3.136   9.876 -0.2380 -0.4432 -0.1839
   88SAPS    C2 8432  -0.092   3.238   9.852  0.3234 -0.6163 -0.3748
   88SAPS    HS 8433  -0.182   3.238   9.917 -0.9249 -0.6923 -2.0526
   88SAPS   O21 8434  -0.113   3.200   9.713  0.0724 -0.3272 -0.3864
   88SAPS   C21 8435  -0.195   3.102   9.697  1.2061  0.0989  0.1570
   88SAPS   O22 8436  -0.273   3.055   9.777 -0.4379  0.1507  0.1897
   88SAPS   C22 8437  -0.186   3.056   9.546 -0.2945  0.0765 -0.2047
   88SAPS   H2R 8438  -0.171   3.141   9.476  2.3948 -0.3536 -0.2272
   88SAPS   H2S 8439  -0.099   2.986   9.539 -3.1699 -3.6406 -0.5781
   88SAPS    C3 8440  -0.028   3.376   9.857  0.0105 -0.2776 -0.4194
   88SAPS    HX 8441  -0.025   3.401   9.966  1.8929  2.4025 -1.0404
   88SAPS    HY 8442  -0.104   3.439   9.806 -2.1828 -1.9805  0.6437
   88SAPS   O31 8443   0.107   3.379   9.807  0.0448 -0.4733  0.5508
   88SAPS   C31 8444   0.147   3.503   9.775 -0.1530 -0.0540 -0.8459
   88SAPS   O32 8445   0.077   3.601   9.800 -0.2389  0.2832 -0.0154
   88SAPS   C32 8446   0.288   3.501   9.721  0.2423 -0.0956  0.4859
   88SAPS   H2X 8447   0.359   3.444   9.784  2.2094  0.5791 -1.0313
   88SAPS   H2Y 8448   0.320   3.607   9.725 -2.3409  0.7270  0.4075
   88SAPS   C23 8449  -0.308   2.973   9.502 -0.1487  0.6109 -0.0009
   88SAPS   H3R 8450  -0.389   3.044   9.529  0.3346 -0.1304  3.8027
   88SAPS   H3S 8451  -0.320   2.885   9.568  2.0585  0.5823  0.4223
   88SAPS   C24 8452  -0.314   2.953   9.351 -0.5758  0.1326  0.6587
   88SAPS   H4R 8453  -0.316   3.057   9.313 -2.9543  0.2504  1.0161
   88SAPS   H4S 8454  -0.419   2.920   9.332 -1.6379  1.9213  3.1260
   88SAPS   C25 8455  -0.201   2.861   9.298  0.6308  0.3228  0.3683
   88SAPS   H5R 8456  -0.135   2.822   9.377  0.4066  0.0710  0.4315
   88SAPS   C26 8457  -0.169   2.837   9.170  0.3409 -0.1802  0.3017
   88SAPS   H6R 8458  -0.088   2.764   9.154  1.6375  0.8725  1.8588
   88SAPS   C27 8459  -0.235   2.896   9.044 -0.7820  0.3418 -0.0532
   88SAPS   H7R 8460  -0.329   2.951   9.066 -0.7727  0.1330  0.5394
   88SAPS   H7S 8461  -0.259   2.801   8.992  0.4203 -0.3293  0.5894
   88SAPS   C28 8462  -0.150   2.991   8.967 -0.9563 -0.2487 -0.3842
   88SAPS   H8R 8463  -0.105   3.073   9.026 -3.2730 -0.0399  1.1415
   88SAPS   C29 8464  -0.137   3.009   8.836  0.1874  0.0812  0.0474
   88SAPS   H9R 8465  -0.071   3.083   8.788  1.6918 -1.2315  0.0705
   88SAPS  C210 8466  -0.220   2.927   8.740 -0.5642  0.3955  0.2753
   88SAPS  H10R 8467  -0.329   2.922   8.758 -0.1933 -0.0021  2.5293
   88SAPS  H10S 8468  -0.201   2.818   8.752  0.1139  0.4899  0.0938
   88SAPS  C211 8469  -0.207   2.976   8.591  0.3128 -0.3060 -0.0910
   88SAPS  H11R 8470  -0.282   3.051   8.562 -1.4890 -0.4360  3.8831
   88SAPS  C212 8471  -0.120   2.920   8.508 -0.6599  0.2098 -0.1826
   88SAPS  H12R 8472  -0.119   2.949   8.402 -0.4416  0.5653 -0.0823
   88SAPS  C213 8473  -0.024   2.803   8.540  0.4006 -0.2813 -0.0364
   88SAPS  H13R 8474  -0.090   2.715   8.555 -0.1658  0.3954  1.6040
   88SAPS  H13S 8475   0.033   2.820   8.634  0.6748 -0.4369 -0.1739
   88SAPS  C214 8476   0.075   2.772   8.430  0.6238 -0.2179 -0.0022
   88SAPS  H14R 8477   0.155   2.845   8.412  1.4344 -0.9835  0.4654
   88SAPS  C215 8478   0.068   2.667   8.343  0.5349  0.4226  0.3251
   88SAPS  H15R 8479   0.146   2.666   8.266  0.3782  1.6082  0.1479
   88SAPS  C216 8480  -0.034   2.560   8.337 -0.2121  0.5329 -0.2723
   88SAPS  H16R 8481  -0.117   2.573   8.409 -0.4729  1.5281 -0.7385
   88SAPS  H16S 8482   0.017   2.470   8.379 -0.6702  0.2753 -0.2610
   88SAPS  C217 8483  -0.086   2.530   8.196 -0.3495 -0.0469 -0.2100
   88SAPS  H17R 8484   0.001   2.540   8.127 -0.4504  1.2617 -0.1581
   88SAPS  H17S 8485  -0.160   2.606   8.165  2.2020  2.1581 -1.1760
   88SAPS  C218 8486  -0.142   2.390   8.168 -0.1087  0.1438 -0.5948
   88SAPS  H18R 8487  -0.243   2.371   8.210  0.0822  0.9953  0.2825
   88SAPS  H18S 8488  -0.065   2.317   8.202 -1.7819 -1.9058 -1.0983
   88SAPS  C219 8489  -0.141   2.373   8.015 -0.0022 -0.1844  0.2168
   88SAPS  H19R 8490  -0.075   2.289   7.986 -0.4238 -0.5186  0.2346
   88SAPS  H19S 8491  -0.103   2.469   7.972 -0.0086  0.0727  0.7802
   88SAPS  C220 8492  -0.282   2.352   7.968  0.2486  0.3335 -0.2003
   88SAPS  H20R 8493  -0.327   2.453   7.965  0.8072  0.5422 -1.6965
   88SAPS  H20S 8494  -0.333   2.271   8.025  0.3245  1.5410  1.6122
   88SAPS  H20T 8495  -0.267   2.322   7.862 -0.0632 -0.9787  0.1083
   88SAPS   C33 8496   0.305   3.446   9.577  0.5962 -0.3235 -0.0609
   88SAPS   H3X 8497   0.291   3.337   9.562 -2.0807  0.0750 -0.5786
   88SAPS   H3Y 8498   0.409   3.466   9.543  0.6166  0.9266  0.6987
   88SAPS   C34 8499   0.219   3.529   9.479 -0.2590 -0.8289  0.5100
   88SAPS   H4X 8500   0.248   3.636   9.485 -0.6839 -0.7162  0.5407
   88SAPS   H4Y 8501   0.110   3.514   9.495 -0.9467  2.0919 -1.1081
   88SAPS   C35 8502   0.255   3.505   9.332 -0.3089  0.5367  0.6545
   88SAPS   H5X 8503   0.236   3.401   9.298 -0.8984  0.6595  0.5913
   88SAPS   H5Y 8504   0.363   3.512   9.307 -0.2884  0.3873  0.6998
   88SAPS   C36 8505   0.170   3.597   9.237 -0.8497 -0.2061  0.1346
   88SAPS   H6X 8506   0.168   3.698   9.285 -2.1388 -0.3901  0.4793
   88SAPS   H6Y 8507   0.063   3.569   9.230 -0.7581 -0.4372 -0.3916
   88SAPS   C37 8508   0.236   3.614   9.106 -0.1785 -0.1922  0.5788
   88SAPS   H7X 8509   0.344   3.639   9.111  0.1324 -1.2777 -0.3595
   88SAPS   H7Y 8510   0.180   3.692   9.051  1.5835  2.1910  2.0460
   88SAPS   C38 8511   0.221   3.492   9.009 -0.1384 -0.1550 -0.3627
   88SAPS   H8X 8512   0.117   3.455   9.006  0.0964 -0.7346 -1.4324
   88SAPS   H8Y 8513   0.293   3.416   9.044  2.8548  1.5291 -2.6336
   88SAPS   C39 8514   0.270   3.527   8.869 -0.2708  0.1800  0.1575
   88SAPS   H9X 8515   0.366   3.576   8.895 -1.1646  2.3206 -0.4321
   88SAPS   H9Y 8516   0.219   3.615   8.824 -0.9209  0.9787  2.3896
   88SAPS  C310 8517   0.275   3.403   8.778 -0.1745 -0.9456  0.1091
   88SAPS  H10X 8518   0.178   3.348   8.778  0.3441 -1.8930 -1.4669
   88SAPS  H10Y 8519   0.345   3.332   8.827  0.1763 -0.4738  0.2885
   88SAPS  C311 8520   0.315   3.427   8.629 -0.1578 -0.6882 -0.7048
   88SAPS  H11X 8521   0.424   3.444   8.618 -0.2448 -0.6528 -1.5247
   88SAPS  H11Y 8522   0.262   3.520   8.600 -1.7244 -1.3273  0.0406
   88SAPS  C312 8523   0.262   3.320   8.541 -0.4918  0.0106 -0.2913
   88SAPS  H12X 8524   0.156   3.288   8.548 -0.4436 -0.6462 -2.2645
   88SAPS  H12Y 8525   0.323   3.228   8.554 -0.3264  0.2697  0.8580
   88SAPS  C313 8526   0.288   3.364   8.395  0.2916 -0.1192  0.6137
   88SAPS  H13X 8527   0.395   3.337   8.382 -0.6426 -2.1143 -3.6753
   88SAPS  H13Y 8528   0.272   3.473   8.381  1.8190 -0.0775 -0.9345
   88SAPS  C314 8529   0.210   3.285   8.292  0.3741  0.1808 -0.7991
   88SAPS  H14X 8530   0.197   3.180   8.326 -1.9999  0.3406 -1.1270
   88SAPS  H14Y 8531   0.270   3.285   8.199 -0.8312  3.6800 -1.6607
   88SAPS  C315 8532   0.079   3.350   8.250  0.8198  0.8041  0.0450
   88SAPS  H15X 8533   0.069   3.337   8.140 -0.0815  0.6899  0.1332
   88SAPS  H15Y 8534   0.086   3.460   8.263  3.0586  0.7992 -0.8925
   88SAPS  C316 8535  -0.047   3.306   8.316 -0.1157  0.1344 -0.4773
   88SAPS  H16X 8536  -0.048   3.294   8.426 -0.4724 -0.5509 -0.5519
   88SAPS  H16Y 8537  -0.060   3.202   8.280  0.9321 -0.3758  0.5885
   88SAPS  C317 8538  -0.152   3.403   8.276 -0.4366 -0.1615 -0.2898
   88SAPS  H17X 8539  -0.152   3.413   8.166 -3.1575 -1.4430 -0.4564
   88SAPS  H17Y 8540  -0.130   3.504   8.316 -0.5236 -0.5035  0.6371
   88SAPS  C318 8541  -0.294   3.380   8.332 -0.2104 -0.2688  0.9071
   88SAPS  H18X 8542  -0.356   3.473   8.326 -0.5294 -0.5630 -0.6552
   88SAPS  H18Y 8543  -0.298   3.347   8.437 -1.5222 -1.2230  0.5714
   88SAPS  H18Z 8544  -0.345   3.291   8.288 -1.4214  0.7333  0.2282
   89SAPS     N 8545   6.160   0.496  10.022  0.1467 -0.0001  0.3369
   89SAPS   HN1 8546   6.077   0.509  10.084 -0.7198 -2.1906 -0.3276
   89SAPS   HN2 8547   6.195   0.593  10.006  1.0250 -0.6120 -1.5582
   89SAPS   HN3 8548   6.124   0.452   9.935 -1.5926  0.9794  0.5207
   89SAPS   C12 8549   6.251   0.397  10.087 -0.1183 -0.3338  0.0960
   89SAPS  H12A 8550   6.286   0.339  10.003 -1.5659 -1.4008  0.2136
   89SAPS   C13 8551   6.372   0.476  10.153  0.1737  0.1547 -0.4009
   89SAPS  O13A 8552   6.372   0.603  10.160 -0.4682  0.0063 -0.1279
   89SAPS  O13B 8553   6.448   0.407  10.227 -0.2028  0.0195  0.5996
   89SAPS   C11 8554   6.175   0.323  10.197 -0.0873 -0.0190  0.0623
   89SAPS  H11A 8555   6.174   0.396  10.281 -0.4754  0.5996 -0.4791
   89SAPS  H11B 8556   6.250   0.247  10.229  2.0348  2.5281  1.3441
   89SAPS     P 8557   6.050   0.132  10.077 -0.3238  0.2432 -0.1136
   89SAPS   O13 8558   6.111   0.034  10.172 -0.2140  0.6451 -0.4533
   89SAPS   O14 8559   5.920   0.092  10.021 -0.1371  0.2204 -0.3671
   89SAPS   O12 8560   6.049   0.264  10.160  0.0766 -0.2273 -0.8592
   89SAPS   O11 8561   6.149   0.168   9.961 -0.3634  0.7142 -0.5102
   89SAPS    C1 8562   6.248   0.073   9.926  0.0560 -0.7339  0.1177
   89SAPS    HA 8563   6.348   0.106   9.961  0.5334 -0.4355 -1.4982
   89SAPS    HB 8564   6.232  -0.029   9.969 -1.0152 -0.3659  0.6117
   89SAPS    C2 8565   6.246   0.054   9.769 -1.2175 -0.9339 -0.8169
   89SAPS    HS 8566   6.315  -0.029   9.745  0.4002  0.2325 -0.2930
   89SAPS   O21 8567   6.285   0.169   9.696  0.4790  0.2727 -0.1126
   89SAPS   C21 8568   6.408   0.208   9.709 -0.6322 -0.6348  0.3966
   89SAPS   O22 8569   6.497   0.160   9.774  0.0847 -0.1750  0.1933
   89SAPS   C22 8570   6.440   0.332   9.620  0.2661  1.0870 -0.5703
   89SAPS   H2R 8571   6.414   0.304   9.515 -0.0037  2.8974 -0.9918
   89SAPS   H2S 8572   6.365   0.411   9.643 -1.3711  0.3534 -3.0876
   89SAPS    C3 8573   6.110   0.004   9.729  0.0976  0.1721  0.3449
   89SAPS    HX 8574   6.031   0.078   9.755  1.3044  1.5850  0.0223
   89SAPS    HY 8575   6.083  -0.088   9.785  0.4876  0.7182  1.4327
   89SAPS   O31 8576   6.108  -0.019   9.589 -0.2539 -0.4430 -0.2822
   89SAPS   C31 8577   6.039   0.068   9.512 -0.7220 -0.6383 -0.0677
   89SAPS   O32 8578   6.008   0.180   9.549  0.0932 -0.1000 -0.6136
   89SAPS   C32 8579   6.038   0.016   9.374  0.3916 -0.2251  1.0262
   89SAPS   H2X 8580   6.052  -0.093   9.364 -0.0997 -0.0846 -1.7463
   89SAPS   H2Y 8581   6.127   0.053   9.319 -0.8676  0.8446 -0.3545
   89SAPS   C23 8582   6.587   0.377   9.626  0.3929 -0.4794  0.0903
   89SAPS   H3R 8583   6.648   0.323   9.551  0.0100 -2.2128  1.0071
   89SAPS   H3S 8584   6.638   0.345   9.720  3.6571 -0.5809 -1.6387
   89SAPS   C24 8585   6.608   0.530   9.624 -0.0472  0.1704  0.5005
   89SAPS   H4R 8586   6.580   0.582   9.530 -3.1015  0.5382  1.5420
   89SAPS   H4S 8587   6.718   0.535   9.615 -0.2109  2.2275 -0.8535
   89SAPS   C25 8588   6.550   0.590   9.757  0.5156  0.2194  0.1549
   89SAPS   H5R 8589   6.598   0.559   9.851  1.2484 -0.4574 -0.4337
   89SAPS   C26 8590   6.448   0.680   9.768  0.0998 -0.0190 -0.4929
   89SAPS   H6R 8591   6.416   0.709   9.869 -0.1819 -0.6704 -0.3952
   89SAPS   C27 8592   6.357   0.743   9.662 -0.0795  0.1835 -0.3404
   89SAPS   H7R 8593   6.417   0.815   9.604  0.7600  1.8244  2.4458
   89SAPS   H7S 8594   6.288   0.810   9.718  1.5323 -0.1709  2.1820
   89SAPS   C28 8595   6.271   0.661   9.573  0.4925 -0.3119  0.6048
   89SAPS   H8R 8596   6.179   0.613   9.612  1.2623 -1.3573  1.1814
   89SAPS   C29 8597   6.279   0.643   9.435  0.4368  0.1282  0.3858
   89SAPS   H9R 8598   6.224   0.564   9.382  0.5310  0.1565  0.2464
   89SAPS  C210 8599   6.383   0.706   9.345  0.0175 -0.9480 -0.2787
   89SAPS  H10R 8600   6.483   0.664   9.365 -0.5628 -1.1798  2.3171
   89SAPS  H10S 8601   6.385   0.814   9.373  2.8224 -0.6056 -1.6477
   89SAPS  C211 8602   6.357   0.696   9.194 -0.4183  0.4324 -0.3766
   89SAPS  H11R 8603   6.327   0.791   9.147 -3.3767  0.5415  1.5540
   89SAPS  C212 8604   6.377   0.598   9.113  0.0491 -0.3649 -0.0995
   89SAPS  H12R 8605   6.368   0.619   9.006  0.5141  0.1335 -0.0418
   89SAPS  C213 8606   6.424   0.463   9.150 -0.9570 -0.3170  0.2762
   89SAPS  H13R 8607   6.507   0.472   9.222  2.3311  0.4186 -3.4515
   89SAPS  H13S 8608   6.463   0.439   9.048 -1.8573 -0.1624 -0.1103
   89SAPS  C214 8609   6.332   0.356   9.203  0.6526 -0.1084 -0.2904
   89SAPS  H14R 8610   6.321   0.353   9.312 -2.1748 -0.2103 -0.5352
   89SAPS  C215 8611   6.279   0.269   9.119  0.7413  0.9529 -0.1659
   89SAPS  H15R 8612   6.224   0.181   9.157  2.7092  0.6511  2.1107
   89SAPS  C216 8613   6.290   0.248   8.971  0.0872 -0.1447 -0.1415
   89SAPS  H16R 8614   6.345   0.153   8.954  0.8746  0.4399 -0.9676
   89SAPS  H16S 8615   6.365   0.320   8.930 -0.9658  0.1681 -1.5735
   89SAPS  C217 8616   6.160   0.251   8.890  0.1267  0.3469  0.4137
   89SAPS  H17R 8617   6.104   0.346   8.900 -3.5534 -1.6108 -0.7846
   89SAPS  H17S 8618   6.105   0.157   8.910  1.8142 -0.6568  0.4345
   89SAPS  C218 8619   6.191   0.235   8.737  0.1798 -0.6194 -0.5738
   89SAPS  H18R 8620   6.250   0.141   8.731  0.6989 -0.3758  0.6908
   89SAPS  H18S 8621   6.255   0.318   8.701 -2.3750  1.8386  0.4515
   89SAPS  C219 8622   6.072   0.206   8.635 -0.5528 -0.0279 -0.1236
   89SAPS  H19R 8623   6.008   0.125   8.677  0.3486 -1.4338 -1.3780
   89SAPS  H19S 8624   6.117   0.166   8.541  2.0896  1.5831  0.4154
   89SAPS  C220 8625   6.008   0.333   8.588 -0.1254 -0.9501 -0.4181
   89SAPS  H20R 8626   6.077   0.400   8.533  0.4430  0.6720  2.2373
   89SAPS  H20S 8627   5.964   0.382   8.677  4.1928  2.5440 -0.0460
   89SAPS  H20T 8628   5.931   0.294   8.517  0.5874 -2.7043 -0.2567
   89SAPS   C33 8629   5.920   0.065   9.292 -0.1723 -0.4521  1.1284
   89SAPS   H3X 8630   5.927   0.172   9.262  2.4022 -0.6103  1.1112
   89SAPS   H3Y 8631   5.828   0.039   9.348 -0.6799  0.6916  0.8457
   89SAPS   C34 8632   5.922   0.005   9.145  0.5310 -0.1061  0.0604
   89SAPS   H4X 8633   5.895  -0.101   9.167 -2.4316  0.7301  0.7056
   89SAPS   H4Y 8634   6.026   0.013   9.107  0.7629  0.2863  0.7671
   89SAPS   C35 8635   5.818   0.063   9.046 -0.5858 -0.3832 -0.0503
   89SAPS   H5X 8636   5.854   0.167   9.030  0.3064 -0.4413  1.5254
   89SAPS   H5Y 8637   5.715   0.048   9.084 -0.6307 -0.6560 -0.2801
   89SAPS   C36 8638   5.821  -0.017   8.908  0.0666  0.9257 -0.7857
   89SAPS   H6X 8639   5.927  -0.035   8.879 -0.6431 -1.1793 -2.2099
   89SAPS   H6Y 8640   5.760   0.030   8.827 -0.3727  0.4446 -0.7378
   89SAPS   C37 8641   5.760  -0.160   8.924  0.2250  0.1567  0.0933
   89SAPS   H7X 8642   5.659  -0.146   8.969  0.8959  2.2831  0.9865
   89SAPS   H7Y 8643   5.819  -0.226   8.992 -0.1044  0.0559  0.2825
   89SAPS   C38 8644   5.749  -0.236   8.790 -0.5458  0.2450  0.1703
   89SAPS   H8X 8645   5.671  -0.185   8.729 -1.0205  0.1833  0.7217
   89SAPS   H8Y 8646   5.707  -0.331   8.829  0.9127  0.0248  1.2411
   89SAPS   C39 8647   5.876  -0.248   8.702  0.0522 -0.1577 -0.4609
   89SAPS   H9X 8648   5.953  -0.311   8.751 -0.1060  1.2344  1.6317
   89SAPS   H9Y 8649   5.916  -0.144   8.693 -0.4157 -0.0368 -1.2133
   89SAPS  C310 8650   5.848  -0.321   8.574 -0.0064  0.5893 -0.2524
   89SAPS  H10X 8651   5.754  -0.274   8.539 -0.8828 -1.3604 -0.6101
   89SAPS  H10Y 8652   5.799  -0.417   8.602 -1.3838  1.0500 -1.0538
   89SAPS  C311 8653   5.962  -0.318   8.474  0.4260  0.6734 -1.0710
   89SAPS  H11X 8654   5.964  -0.423   8.439  1.2151  0.6989 -1.1050
   89SAPS  H11Y 8655   6.062  -0.319   8.523  0.5280 -0.4942 -1.2819
   89SAPS  C312 8656   5.936  -0.206   8.374 -0.3946  0.0200 -0.5441
   89SAPS  H12X 8657   5.933  -0.118   8.442 -0.8142 -0.0659 -0.4524
   89SAPS  H12Y 8658   5.839  -0.216   8.320 -0.0288  1.1466 -1.4498
   89SAPS  C313 8659   6.053  -0.196   8.274 -0.0012  0.9151  0.5830
   89SAPS  H13X 8660   6.023  -0.116   8.203 -0.0670  0.5621  0.2087
   89SAPS  H13Y 8661   6.066  -0.284   8.207  3.5614  1.4452  0.4762
   89SAPS  C314 8662   6.192  -0.145   8.328  0.1235  0.7919 -0.0571
   89SAPS  H14X 8663   6.246  -0.229   8.376 -1.9021  0.6630  2.1074
   89SAPS  H14Y 8664   6.169  -0.073   8.410 -1.5810  0.3497 -0.1165
   89SAPS  C315 8665   6.287  -0.065   8.229 -0.7625  0.2936 -0.1968
   89SAPS  H15X 8666   6.386  -0.030   8.265  0.5205 -1.6029 -1.7420
   89SAPS  H15Y 8667   6.228   0.026   8.206 -0.2925  0.0763 -2.3544
   89SAPS  C316 8668   6.311  -0.140   8.092  0.5842 -0.0478  0.0712
   89SAPS  H16X 8669   6.331  -0.060   8.017 -1.5722  1.8457  1.4489
   89SAPS  H16Y 8670   6.227  -0.202   8.054  1.2557  0.6087 -2.5776
   89SAPS  C317 8671   6.427  -0.239   8.089  0.1528 -0.1477 -0.2665
   89SAPS  H17X 8672   6.405  -0.314   8.168  3.0792 -0.7634  0.0235
   89SAPS  H17Y 8673   6.522  -0.190   8.120 -0.3559  0.1883  0.7811
   89SAPS  C318 8674   6.451  -0.307   7.950 -0.2496  0.2846 -0.1643
   89SAPS  H18X 8675   6.362  -0.337   7.891 -0.4597 -0.9959  0.7743
   89SAPS  H18Y 8676   6.509  -0.397   7.978  3.0211  2.1046 -0.8049
   89SAPS  H18Z 8677   6.513  -0.235   7.892  1.0510 -0.6491  0.0626
   90SAPS     N 8678   0.230   0.609  10.360  0.0080 -0.0853 -0.0319
   90SAPS   HN1 8679   0.256   0.670  10.440  1.7254 -2.3952  1.2254
   90SAPS   HN2 8680   0.130   0.581  10.366  0.3516 -1.2020  0.6687
   90SAPS   HN3 8681   0.273   0.520  10.392  1.4765  0.8690  0.7040
   90SAPS   C12 8682   0.273   0.661  10.228  0.0196 -0.2344  0.2926
   90SAPS  H12A 8683   0.217   0.745  10.189  0.7293  0.3969  0.6215
   90SAPS   C13 8684   0.416   0.708  10.216  0.9528 -0.5966 -0.4124
   90SAPS  O13A 8685   0.495   0.700  10.311 -0.1155 -0.1963  0.1243
   90SAPS  O13B 8686   0.455   0.752  10.103  0.0731  0.3678  0.4259
   90SAPS   C11 8687   0.245   0.555  10.116 -0.0328  0.4047 -0.4835
   90SAPS  H11A 8688   0.240   0.615  10.023  0.2017 -1.2533 -1.5842
   90SAPS  H11B 8689   0.145   0.508  10.117  0.2399 -0.1902  2.1408
   90SAPS     P 8690   0.316   0.320  10.040  0.7287  0.1845 -0.1220
   90SAPS   O13 8691   0.435   0.245  10.007  0.1990 -0.2123  0.7032
   90SAPS   O14 8692   0.221   0.258  10.137  0.4417 -0.0721 -0.1301
   90SAPS   O12 8693   0.352   0.458  10.106  0.5782 -0.2766 -0.0664
   90SAPS   O11 8694   0.244   0.369   9.906 -0.4213  0.0610 -0.3424
   90SAPS    C1 8695   0.284   0.336   9.772  0.0369 -0.3451  0.0182
   90SAPS    HA 8696   0.380   0.281   9.777  0.7631  0.9629  0.8273
   90SAPS    HB 8697   0.204   0.274   9.726  1.1871 -1.2094 -0.8728
   90SAPS    C2 8698   0.297   0.471   9.692  1.1334 -1.2741  0.3184
   90SAPS    HS 8699   0.387   0.518   9.736 -1.0109  2.3898  1.0236
   90SAPS   O21 8700   0.169   0.543   9.703  0.0839  0.3903  0.6854
   90SAPS   C21 8701   0.190   0.675   9.702  0.4549  0.2837  0.1292
   90SAPS   O22 8702   0.299   0.728   9.694 -0.6571  0.2108 -1.1655
   90SAPS   C22 8703   0.056   0.757   9.710  0.7127 -0.3726 -0.7566
   90SAPS   H2R 8704   0.004   0.727   9.617  1.3980 -1.5180 -0.7791
   90SAPS   H2S 8705   0.009   0.721   9.804  1.4778  1.3418  0.3029
   90SAPS    C3 8706   0.346   0.448   9.539  0.1986  0.0621  0.2692
   90SAPS    HX 8707   0.450   0.418   9.561  0.2564  0.4075  0.4754
   90SAPS    HY 8708   0.349   0.547   9.488  0.7335  0.9658  2.0291
   90SAPS   O31 8709   0.268   0.349   9.475  0.5553 -0.5828 -0.1315
   90SAPS   C31 8710   0.158   0.399   9.421 -0.6227  0.4964 -0.3309
   90SAPS   O32 8711   0.128   0.513   9.398 -0.1309  0.2018 -0.0624
   90SAPS   C32 8712   0.056   0.289   9.402 -0.6393  1.0324  0.5952
   90SAPS   H2X 8713   0.107   0.191   9.386  0.1935  1.5876 -0.1901
   90SAPS   H2Y 8714   0.008   0.307   9.303 -1.1840 -2.0096  0.2365
   90SAPS   C23 8715   0.067   0.909   9.724 -0.9903  0.1617  0.3851
   90SAPS   H3R 8716   0.115   0.951   9.633 -2.3041  3.7695  1.2647
   90SAPS   H3S 8717   0.127   0.937   9.814 -1.1050 -0.8437  0.7804
   90SAPS   C24 8718  -0.069   0.983   9.736 -0.3315  0.2099 -0.6196
   90SAPS   H4R 8719  -0.136   0.940   9.814  0.1835 -0.6012 -0.6114
   90SAPS   H4S 8720  -0.111   0.956   9.637  0.6652 -0.6326 -0.8262
   90SAPS   C25 8721  -0.057   1.133   9.757 -0.2268 -0.2350 -0.3951
   90SAPS   H5R 8722   0.033   1.163   9.811  0.8639 -2.5698 -0.8477
   90SAPS   C26 8723  -0.132   1.224   9.698 -1.2107  0.5788  0.1836
   90SAPS   H6R 8724  -0.096   1.327   9.713  0.8166 -0.1580  0.4827
   90SAPS   C27 8725  -0.249   1.198   9.609  0.2087  0.4595 -0.8575
   90SAPS   H7R 8726  -0.347   1.229   9.650  0.7226  0.5730  0.3021
   90SAPS   H7S 8727  -0.262   1.090   9.585 -1.8519  0.2812  0.9779
   90SAPS   C28 8728  -0.239   1.269   9.476 -0.1718 -0.5548  0.2429
   90SAPS   H8R 8729  -0.255   1.378   9.476  1.9323 -0.2362 -0.2631
   90SAPS   C29 8730  -0.168   1.223   9.366  0.8667 -0.1508 -0.0969
   90SAPS   H9R 8731  -0.189   1.276   9.271 -1.5916  0.9971  1.0231
   90SAPS  C210 8732  -0.096   1.092   9.363 -0.8304 -0.5603 -0.1935
   90SAPS  H10R 8733  -0.164   1.004   9.358 -2.1918  0.4436  0.6121
   90SAPS  H10S 8734  -0.045   1.089   9.462 -3.2292 -0.0062  1.0774
   90SAPS  C211 8735   0.015   1.084   9.258  0.2355  0.2637  0.1589
   90SAPS  H11R 8736   0.117   1.081   9.299  0.5001 -0.0318 -0.5025
   90SAPS  C212 8737  -0.014   1.073   9.125  0.2553 -0.0760 -0.1290
   90SAPS  H12R 8738   0.069   1.067   9.054 -0.4018 -0.2612 -0.8944
   90SAPS  C213 8739  -0.155   1.053   9.074  0.5487 -0.0740 -0.5476
   90SAPS  H13R 8740  -0.194   1.158   9.067 -1.8559 -0.7185  2.0923
   90SAPS  H13S 8741  -0.228   0.997   9.136  0.1628 -1.1159 -1.9290
   90SAPS  C214 8742  -0.150   0.994   8.937 -0.2804  0.5209 -0.2737
   90SAPS  H14R 8743  -0.118   0.889   8.938 -1.1525  0.2577  0.2671
   90SAPS  C215 8744  -0.166   1.051   8.814 -0.5419 -0.0413 -0.6198
   90SAPS  H15R 8745  -0.140   0.996   8.722  0.3213 -0.6051 -0.0516
   90SAPS  C216 8746  -0.193   1.194   8.778  0.8825 -0.1028  0.2671
   90SAPS  H16R 8747  -0.125   1.221   8.694  0.6243 -2.4698 -0.7452
   90SAPS  H16S 8748  -0.166   1.268   8.857  2.1476  0.8941 -1.0417
   90SAPS  C217 8749  -0.340   1.217   8.737 -0.0672  0.1267 -0.2533
   90SAPS  H17R 8750  -0.357   1.325   8.720  1.4836  0.8642  2.4399
   90SAPS  H17S 8751  -0.416   1.205   8.817  2.5035 -0.6227  2.1675
   90SAPS  C218 8752  -0.395   1.155   8.611 -0.2216  0.8617  0.0295
   90SAPS  H18R 8753  -0.488   1.209   8.586 -0.4852 -0.0358 -0.9958
   90SAPS  H18S 8754  -0.423   1.049   8.630 -0.7205  1.2520  1.5143
   90SAPS  C219 8755  -0.301   1.158   8.483  0.5994 -0.5896  0.6495
   90SAPS  H19R 8756  -0.196   1.130   8.506  0.3666 -0.8184  1.4244
   90SAPS  H19S 8757  -0.299   1.264   8.449  0.3550 -0.3062  1.5266
   90SAPS  C220 8758  -0.353   1.076   8.369  0.0682  1.0713  0.4018
   90SAPS  H20R 8759  -0.447   1.116   8.325  0.5388  0.9887 -0.7151
   90SAPS  H20S 8760  -0.368   0.967   8.387  3.3086  0.0937 -2.2170
   90SAPS  H20T 8761  -0.280   1.081   8.285 -1.2125  0.0708 -0.8083
   90SAPS   C33 8762  -0.052   0.288   9.521 -0.5293 -0.4074  0.1542
   90SAPS   H3X 8763  -0.087   0.393   9.532  1.1931  0.1675  0.2994
   90SAPS   H3Y 8764   0.006   0.268   9.613  1.7376 -1.4919 -1.4634
   90SAPS   C34 8765  -0.173   0.198   9.508 -0.3170  0.4596 -0.2006
   90SAPS   H4X 8766  -0.214   0.196   9.611  0.9902 -0.5931  0.3203
   90SAPS   H4Y 8767  -0.133   0.097   9.486  0.4985  0.3988  1.4159
   90SAPS   C35 8768  -0.270   0.246   9.398  0.2880  0.1216  0.4736
   90SAPS   H5X 8769  -0.222   0.238   9.298  0.7528 -1.6615  0.8250
   90SAPS   H5Y 8770  -0.296   0.353   9.417  0.3720  0.3216 -0.5036
   90SAPS   C36 8771  -0.407   0.170   9.404 -0.1136 -1.0529  0.0227
   90SAPS   H6X 8772  -0.443   0.178   9.509 -1.2248 -1.2503 -0.3345
   90SAPS   H6Y 8773  -0.390   0.064   9.373 -0.4078 -1.7744  2.1831
   90SAPS   C37 8774  -0.511   0.237   9.304 -0.3557 -0.3621 -0.0577
   90SAPS   H7X 8775  -0.534   0.337   9.347  1.8140 -1.0812  2.9217
   90SAPS   H7Y 8776  -0.598   0.169   9.311 -0.7711  0.2475  0.8553
   90SAPS   C38 8777  -0.469   0.233   9.158  0.3459  0.2683  0.4343
   90SAPS   H8X 8778  -0.362   0.255   9.139 -0.0113  1.5431 -0.1319
   90SAPS   H8Y 8779  -0.518   0.304   9.088  4.1290  1.7702 -0.8410
   90SAPS   C39 8780  -0.515   0.102   9.088  0.7939  0.3674  0.1705
   90SAPS   H9X 8781  -0.619   0.089   9.125  1.0041  0.7087  0.8873
   90SAPS   H9Y 8782  -0.456   0.017   9.127 -2.3258 -1.4276  1.1460
   90SAPS  C310 8783  -0.507   0.102   8.935  0.0463 -0.2610 -1.1117
   90SAPS  H10X 8784  -0.498  -0.003   8.901 -1.6348 -0.6824 -0.3185
   90SAPS  H10Y 8785  -0.408   0.138   8.900  0.1842  0.8608  0.3708
   90SAPS  C311 8786  -0.628   0.173   8.879  0.0179 -0.5128  0.3849
   90SAPS  H11X 8787  -0.621   0.281   8.903  0.2801 -0.3778 -0.2759
   90SAPS  H11Y 8788  -0.725   0.138   8.922 -1.0653  2.4210  0.4508
   90SAPS  C312 8789  -0.640   0.161   8.724 -0.1299 -0.1779  0.2054
   90SAPS  H12X 8790  -0.638   0.058   8.682 -0.2142 -0.5524  1.1077
   90SAPS  H12Y 8791  -0.551   0.201   8.671 -0.5532  1.6703  0.8492
   90SAPS  C313 8792  -0.759   0.242   8.668  0.0017  0.2988  0.0916
   90SAPS  H13X 8793  -0.762   0.340   8.719 -1.8840  1.2693 -1.8037
   90SAPS  H13Y 8794  -0.846   0.176   8.690  0.0102 -0.5533 -2.2905
   90SAPS  C314 8795  -0.744   0.264   8.513  0.0492 -0.4548 -0.5375
   90SAPS  H14X 8796  -0.667   0.343   8.508  0.3558 -0.6883  0.3510
   90SAPS  H14Y 8797  -0.839   0.310   8.479  1.0772  1.3182 -1.0670
   90SAPS  C315 8798  -0.712   0.142   8.421  0.5940  0.2940 -0.1597
   90SAPS  H15X 8799  -0.800   0.075   8.411  0.6714  0.3850 -1.5257
   90SAPS  H15Y 8800  -0.627   0.087   8.468  0.2399 -0.0144  0.1209
   90SAPS  C316 8801  -0.663   0.189   8.286 -0.1786 -1.1534  0.3371
   90SAPS  H16X 8802  -0.736   0.264   8.250  1.2202  0.9445  1.7209
   90SAPS  H16Y 8803  -0.665   0.095   8.227 -0.9671  0.6592 -2.6039
   90SAPS  C317 8804  -0.513   0.236   8.283  0.2646 -0.7438  0.5349
   90SAPS  H17X 8805  -0.459   0.175   8.358  0.9298  0.7952  1.3344
   90SAPS  H17Y 8806  -0.514   0.342   8.319  0.3312 -0.1541 -1.1756
   90SAPS  C318 8807  -0.438   0.228   8.149  0.4537  0.0655  0.0466
   90SAPS  H18X 8808  -0.498   0.283   8.073 -0.8326 -1.3618 -0.0002
   90SAPS  H18Y 8809  -0.453   0.123   8.116 -2.2031  0.0398  1.2658
   90SAPS  H18Z 8810  -0.332   0.262   8.156  1.2654 -2.3386  0.1931
   91SAPS     N 8811   3.407   3.761   5.907  1.0111  0.2676  0.0208
   91SAPS   HN1 8812   3.350   3.798   5.986  0.9589 -1.0647  0.6067
   91SAPS   HN2 8813   3.375   3.671   5.867 -0.6481  1.6878 -1.9724
   91SAPS   HN3 8814   3.507   3.756   5.937  0.9659  0.1859  0.1566
   91SAPS   C12 8815   3.405   3.873   5.804  0.0160  0.2042 -0.0068
   91SAPS  H12A 8816   3.471   3.846   5.724 -0.3553 -0.1844 -0.1856
   91SAPS   C13 8817   3.263   3.885   5.738 -0.2279 -0.0011 -0.2762
   91SAPS  O13A 8818   3.170   3.809   5.776 -0.2696  0.3127  0.6859
   91SAPS  O13B 8819   3.242   3.977   5.658  0.0508  0.1551 -0.0482
   91SAPS   C11 8820   3.451   4.015   5.869  0.5975  0.6067 -0.8656
   91SAPS  H11A 8821   3.393   4.031   5.962  0.9495 -1.1713 -0.3180
   91SAPS  H11B 8822   3.434   4.090   5.789  2.1415 -0.0941 -1.8907
   91SAPS     P 8823   3.653   3.972   6.035 -0.2271  0.1755  0.0495
   91SAPS   O13 8824   3.637   3.825   6.027 -0.2281 -0.5839  0.5172
   91SAPS   O14 8825   3.792   4.022   6.055 -0.0123 -0.1189  0.0444
   91SAPS   O12 8826   3.594   4.029   5.905  0.8773  0.1733 -0.6035
   91SAPS   O11 8827   3.566   4.028   6.155 -0.1283 -0.2010 -0.4958
   91SAPS    C1 8828   3.551   4.173   6.163 -0.6678 -0.7158 -0.3277
   91SAPS    HA 8829   3.648   4.218   6.191 -1.3356 -0.0782  1.0137
   91SAPS    HB 8830   3.527   4.229   6.070 -0.5072 -1.1756 -0.6512
   91SAPS    C2 8831   3.444   4.223   6.261  0.4795  0.4405 -0.7120
   91SAPS    HS 8832   3.426   4.331   6.240 -0.7371  0.1500 -1.1558
   91SAPS   O21 8833   3.491   4.217   6.395 -0.2909  0.0069  0.4272
   91SAPS   C21 8834   3.407   4.274   6.479  1.2025 -0.4693  0.8837
   91SAPS   O22 8835   3.305   4.338   6.453  0.3603 -0.3871 -0.7551
   91SAPS   C22 8836   3.453   4.237   6.612 -0.1848 -0.4578 -0.5147
   91SAPS   H2R 8837   3.549   4.287   6.635 -2.3536  3.1945  1.1343
   91SAPS   H2S 8838   3.380   4.271   6.689  0.0175  1.9857 -1.3616
   91SAPS    C3 8839   3.308   4.142   6.246  0.5241 -0.3796  0.0388
   91SAPS    HX 8840   3.290   4.127   6.138 -0.5935 -0.5210  0.2345
   91SAPS    HY 8841   3.225   4.206   6.284 -1.7971 -2.5209 -1.2826
   91SAPS   O31 8842   3.320   4.021   6.316 -0.1114  0.2914 -0.0783
   91SAPS   C31 8843   3.318   3.909   6.241 -0.0241 -1.1082 -0.2371
   91SAPS   O32 8844   3.283   3.900   6.126  0.5378  0.1716  0.6317
   91SAPS   C32 8845   3.341   3.800   6.344 -0.6941  0.8911 -0.2331
   91SAPS   H2X 8846   3.262   3.725   6.325  0.6015 -0.9089  1.3232
   91SAPS   H2Y 8847   3.320   3.833   6.448  0.9791 -1.2141  0.8064
   91SAPS   C23 8848   3.451   4.084   6.644 -0.0057  0.6781  0.0378
   91SAPS   H3R 8849   3.543   4.040   6.600 -0.4762 -0.5126  0.2095
   91SAPS   H3S 8850   3.364   4.033   6.596  0.0435  1.0164 -0.4091
   91SAPS   C24 8851   3.464   4.063   6.799  0.2270  0.4708  0.1050
   91SAPS   H4R 8852   3.451   3.958   6.830  0.8915  0.3176 -0.1315
   91SAPS   H4S 8853   3.378   4.114   6.848 -0.9822 -0.8516 -0.5924
   91SAPS   C25 8854   3.601   4.091   6.855 -0.2731  0.1263  0.2940
   91SAPS   H5R 8855   3.683   4.022   6.827  1.4596  3.2359 -2.6533
   91SAPS   C26 8856   3.626   4.183   6.951 -0.2415  0.2893  0.6895
   91SAPS   H6R 8857   3.726   4.193   6.996 -0.2993  1.5658  0.5539
   91SAPS   C27 8858   3.532   4.283   7.021  0.2008 -0.3294 -0.4423
   91SAPS   H7R 8859   3.453   4.325   6.956  2.2706  0.2929 -2.6416
   91SAPS   H7S 8860   3.589   4.366   7.067  1.6853 -1.8588  0.5741
   91SAPS   C28 8861   3.460   4.208   7.136  0.1685 -0.6449 -0.2506
   91SAPS   H8R 8862   3.402   4.117   7.112 -0.4374  0.4066 -3.0032
   91SAPS   C29 8863   3.463   4.240   7.264  0.1088  0.0183  0.1951
   91SAPS   H9R 8864   3.392   4.190   7.332  1.1464 -1.7079  0.0560
   91SAPS  C210 8865   3.543   4.358   7.324  0.1812 -0.2964 -0.0969
   91SAPS  H10R 8866   3.467   4.429   7.362  1.8352  0.5185  1.7637
   91SAPS  H10S 8867   3.604   4.418   7.253  0.8252  0.0753  0.7610
   91SAPS  C211 8868   3.640   4.307   7.433  0.7600 -0.8475 -0.2234
   91SAPS  H11R 8869   3.595   4.287   7.532 -1.2991 -1.9122 -1.3387
   91SAPS  C212 8870   3.763   4.260   7.412 -0.8481 -0.5837  0.3810
   91SAPS  H12R 8871   3.812   4.202   7.491  1.2155  0.0127 -0.4402
   91SAPS  C213 8872   3.841   4.257   7.282 -0.4902 -0.0249 -0.3716
   91SAPS  H13R 8873   3.830   4.359   7.238  1.5376  0.2360 -0.3607
   91SAPS  H13S 8874   3.807   4.192   7.199 -0.0970 -2.4463  1.3044
   91SAPS  C214 8875   3.985   4.225   7.291  1.4930  0.1344  0.8372
   91SAPS  H14R 8876   4.006   4.139   7.226 -1.7539 -0.3389  0.3050
   91SAPS  C215 8877   4.079   4.293   7.364 -0.0076 -0.5882 -0.4577
   91SAPS  H15R 8878   4.181   4.257   7.343  0.2695  0.0238 -0.1647
   91SAPS  C216 8879   4.068   4.412   7.456  0.0033  0.2094 -0.3998
   91SAPS  H16R 8880   3.974   4.470   7.442  1.4984  2.8683  0.1615
   91SAPS  H16S 8881   4.151   4.478   7.423 -0.7541  0.8152 -1.1175
   91SAPS  C217 8882   4.095   4.367   7.606  0.4318 -0.0547  0.1115
   91SAPS  H17R 8883   4.186   4.303   7.597 -0.5214 -1.1504 -2.2682
   91SAPS  H17S 8884   4.013   4.307   7.651 -1.7044  1.0973 -2.1092
   91SAPS  C218 8885   4.121   4.487   7.702 -0.9735  1.1794  0.2451
   91SAPS  H18R 8886   4.198   4.556   7.662 -0.7717  0.9078  0.1609
   91SAPS  H18S 8887   4.164   4.434   7.790 -1.4473  0.5488  0.1011
   91SAPS  C219 8888   3.989   4.550   7.737  0.0071  0.0841  0.7073
   91SAPS  H19R 8889   3.925   4.553   7.647  0.1514 -1.4591  0.5408
   91SAPS  H19S 8890   4.001   4.657   7.765  0.4537  0.6158 -1.4308
   91SAPS  C220 8891   3.914   4.481   7.849 -0.1502  0.7713 -0.1553
   91SAPS  H20R 8892   3.816   4.530   7.864 -0.2405  1.0986 -1.6831
   91SAPS  H20S 8893   3.964   4.494   7.947 -0.0364  0.2442 -0.1393
   91SAPS  H20T 8894   3.910   4.372   7.825 -0.5354  0.3016  2.0085
   91SAPS   C33 8895   3.484   3.734   6.327  0.6735 -0.2653 -0.2132
   91SAPS   H3X 8896   3.558   3.812   6.356  0.9617 -0.9127  0.8081
   91SAPS   H3Y 8897   3.491   3.703   6.221  2.8539 -0.8485  0.0844
   91SAPS   C34 8898   3.496   3.618   6.429 -0.7774  0.1834 -0.4105
   91SAPS   H4X 8899   3.446   3.530   6.384 -1.3285  0.8039 -1.0364
   91SAPS   H4Y 8900   3.451   3.654   6.524  1.6090  0.1361  0.7623
   91SAPS   C35 8901   3.633   3.562   6.468 -0.0942 -0.2111  0.3351
   91SAPS   H5X 8902   3.701   3.511   6.395 -2.1508 -0.4045 -1.4886
   91SAPS   H5Y 8903   3.610   3.484   6.543 -2.3793  0.3320  0.2240
   91SAPS   C36 8904   3.715   3.668   6.543 -0.8014  0.2179  0.1023
   91SAPS   H6X 8905   3.645   3.687   6.627 -1.9619  2.7958 -1.3878
   91SAPS   H6Y 8906   3.733   3.766   6.493 -0.0290  0.0838  0.1067
   91SAPS   C37 8907   3.849   3.606   6.581 -0.2051 -0.6533  0.1785
   91SAPS   H7X 8908   3.907   3.581   6.490  2.5137 -2.2077  2.2641
   91SAPS   H7Y 8909   3.834   3.508   6.631  0.4768 -0.8079  0.0826
   91SAPS   C38 8910   3.932   3.696   6.676 -0.5206  0.0557 -1.0270
   91SAPS   H8X 8911   3.933   3.803   6.648 -2.4701  0.8957  1.9293
   91SAPS   H8Y 8912   4.040   3.671   6.688 -0.7378 -0.3436  0.2218
   91SAPS   C39 8913   3.889   3.681   6.822  0.1292  0.1582 -0.4214
   91SAPS   H9X 8914   3.907   3.577   6.855 -1.4478 -0.2416 -0.7957
   91SAPS   H9Y 8915   3.781   3.687   6.844  0.6199  0.1360  2.1720
   91SAPS  C310 8916   3.961   3.789   6.904 -0.1809  0.4566  0.6036
   91SAPS  H10X 8917   3.902   3.874   6.864 -0.9106 -1.1224 -1.7732
   91SAPS  H10Y 8918   4.065   3.800   6.866 -0.7554  1.5811 -0.6709
   91SAPS  C311 8919   3.963   3.767   7.055  0.0490 -0.2812  0.7935
   91SAPS  H11X 8920   3.988   3.663   7.085  0.8046  0.5145  3.0258
   91SAPS  H11Y 8921   3.855   3.787   7.075 -0.2801  1.4873 -2.3792
   91SAPS  C312 8922   4.061   3.857   7.131 -0.1227 -0.0009  0.2959
   91SAPS  H12X 8923   4.048   3.843   7.240 -1.6098  1.3813  0.3023
   91SAPS  H12Y 8924   4.034   3.962   7.106  1.1089  0.2792  0.0673
   91SAPS  C313 8925   4.210   3.838   7.097 -0.5776  0.2673  0.1039
   91SAPS  H13X 8926   4.224   3.851   6.987 -0.9147 -3.4773 -0.4607
   91SAPS  H13Y 8927   4.243   3.733   7.116 -0.5900 -0.0021 -1.3155
   91SAPS  C314 8928   4.307   3.935   7.166 -0.4130  0.3203 -0.1302
   91SAPS  H14X 8929   4.275   4.040   7.149  2.7552  1.2900 -0.4776
   91SAPS  H14Y 8930   4.403   3.930   7.111 -1.2176  1.5954 -1.6650
   91SAPS  C315 8931   4.335   3.899   7.316  0.1046 -0.1997  0.1111
   91SAPS  H15X 8932   4.366   3.793   7.325 -1.5298 -0.6340  0.6923
   91SAPS  H15Y 8933   4.238   3.900   7.370 -1.1591  0.0007 -2.1193
   91SAPS  C316 8934   4.440   3.984   7.387 -0.3133  0.1303  0.4275
   91SAPS  H16X 8935   4.540   3.984   7.338 -0.3682  1.1065  0.3112
   91SAPS  H16Y 8936   4.459   3.941   7.487 -1.9945 -0.6214  0.4444
   91SAPS  C317 8937   4.401   4.128   7.422 -0.1349 -0.3192  0.1198
   91SAPS  H17X 8938   4.309   4.131   7.484 -0.8608  4.2238 -1.0198
   91SAPS  H17Y 8939   4.371   4.172   7.325  3.8073 -1.7691 -1.8791
   91SAPS  C318 8940   4.517   4.193   7.494  0.5859 -0.5043  0.3685
   91SAPS  H18X 8941   4.603   4.200   7.425 -1.2248  1.6633 -1.7848
   91SAPS  H18Y 8942   4.530   4.130   7.584 -2.2195 -1.5173  0.1024
   91SAPS  H18Z 8943   4.474   4.290   7.528  1.7894  0.4211 -0.7010
   92SAPS     N 8944   3.021   3.621   5.903 -0.4908  0.2869 -0.1449
   92SAPS   HN1 8945   3.047   3.628   6.004 -2.7286 -2.2021  0.6655
   92SAPS   HN2 8946   3.088   3.680   5.849 -0.7837  0.5827 -0.1818
   92SAPS   HN3 8947   2.926   3.661   5.913 -1.0999 -1.2182  0.1648
   92SAPS   C12 8948   3.022   3.486   5.846 -0.1161 -0.1013  0.4227
   92SAPS  H12A 8949   2.960   3.486   5.757  0.3511  1.1021  0.0878
   92SAPS   C13 8950   3.168   3.446   5.808 -0.8783 -0.7502  0.1726
   92SAPS  O13A 8951   3.264   3.522   5.835  0.1601 -0.2781  0.0693
   92SAPS  O13B 8952   3.183   3.344   5.738 -0.5755  0.1329 -0.9697
   92SAPS   C11 8953   2.966   3.379   5.945  0.1946 -0.2724 -0.0064
   92SAPS  H11A 8954   3.036   3.388   6.030 -0.3976 -1.4592  0.6039
   92SAPS  H11B 8955   2.973   3.279   5.897  2.1824  0.1780 -0.7046
   92SAPS     P 8956   2.773   3.394   6.119 -0.0828 -0.1888  0.0675
   92SAPS   O13 8957   2.855   3.479   6.211 -0.5018 -0.5392 -0.2827
   92SAPS   O14 8958   2.630   3.426   6.115  0.1287 -0.3068  0.1107
   92SAPS   O12 8959   2.830   3.413   5.968  0.1183 -0.0948 -0.7258
   92SAPS   O11 8960   2.788   3.241   6.155 -0.2156  0.2377  0.0576
   92SAPS    C1 8961   2.719   3.152   6.065  0.0306 -0.1867 -0.2253
   92SAPS    HA 8962   2.608   3.151   6.077  0.1446  2.0115  1.2452
   92SAPS    HB 8963   2.749   3.178   5.961  0.5579 -0.8513 -0.2404
   92SAPS    C2 8964   2.760   3.009   6.078  0.0217  0.0833 -0.5533
   92SAPS    HS 8965   2.704   2.954   6.000 -0.7268 -0.3917  0.3035
   92SAPS   O21 8966   2.742   2.962   6.211  0.4217  0.2919  0.8768
   92SAPS   C21 8967   2.688   2.840   6.217  0.9429 -0.3900 -0.0037
   92SAPS   O22 8968   2.641   2.778   6.120  0.4694  0.2406 -0.5653
   92SAPS   C22 8969   2.696   2.794   6.365  0.1662 -0.0009  0.0642
   92SAPS   H2R 8970   2.798   2.754   6.383  0.1323 -1.0389 -1.8547
   92SAPS   H2S 8971   2.667   2.876   6.434  2.6747 -0.6287  1.9238
   92SAPS    C3 8972   2.917   2.987   6.036 -0.5274  0.3565 -0.2037
   92SAPS    HX 8973   2.937   3.003   5.928 -0.0371  0.6839 -0.0698
   92SAPS    HY 8974   2.937   2.881   6.063 -3.3973 -0.3541 -0.7818
   92SAPS   O31 8975   2.998   3.081   6.106  0.2520  0.2659 -0.1593
   92SAPS   C31 8976   3.042   3.046   6.226 -0.0961  0.0059 -0.3427
   92SAPS   O32 8977   3.030   2.932   6.279  0.2057  0.0511  0.4660
   92SAPS   C32 8978   3.131   3.164   6.265 -0.4950 -0.3808 -0.1087
   92SAPS   H2X 8979   3.099   3.263   6.225 -1.0117 -0.4420  0.1502
   92SAPS   H2Y 8980   3.223   3.137   6.210 -0.1553 -1.0991  0.7936
   92SAPS   C23 8981   2.604   2.666   6.388  0.7134 -0.2711  0.5729
   92SAPS   H3R 8982   2.631   2.590   6.311 -1.6474 -0.5772  0.0124
   92SAPS   H3S 8983   2.499   2.702   6.388  0.9350  0.5307 -2.4177
   92SAPS   C24 8984   2.636   2.599   6.526  0.7691  0.1697  0.4927
   92SAPS   H4R 8985   2.594   2.499   6.504 -0.8995  0.8042  0.7236
   92SAPS   H4S 8986   2.572   2.650   6.601 -0.1969 -1.1176  0.5496
   92SAPS   C25 8987   2.780   2.582   6.561 -0.2327 -0.9663 -0.8130
   92SAPS   H5R 8988   2.834   2.503   6.507  1.0630 -0.8652  0.2807
   92SAPS   C26 8989   2.857   2.662   6.641  0.1612  0.4624 -0.5483
   92SAPS   H6R 8990   2.965   2.645   6.650  0.2866  1.0327 -0.9523
   92SAPS   C27 8991   2.805   2.787   6.710  0.0330 -0.6205  0.1060
   92SAPS   H7R 8992   2.818   2.773   6.820  1.4270 -0.0192  0.0301
   92SAPS   H7S 8993   2.700   2.813   6.685  0.9108  0.3162 -2.7482
   92SAPS   C28 8994   2.889   2.906   6.656 -0.7157 -0.1132 -0.9448
   92SAPS   H8R 8995   2.910   2.912   6.549 -0.1744 -0.0024 -0.8320
   92SAPS   C29 8996   2.934   3.011   6.725 -0.2355 -0.0646  0.6842
   92SAPS   H9R 8997   2.966   3.097   6.664  0.7631 -0.7184  0.2749
   92SAPS  C210 8998   2.921   3.049   6.870  0.0124  0.5417  0.4967
   92SAPS  H10R 8999   2.815   3.042   6.903 -1.5349 -1.8178 -4.4821
   92SAPS  H10S 9000   2.938   3.159   6.875 -0.8766  0.6658  0.8208
   92SAPS  C211 9001   3.006   2.971   6.965 -1.0044 -0.2688 -0.5446
   92SAPS  H11R 9002   3.013   2.863   6.944  0.8480 -0.8488  2.7849
   92SAPS  C212 9003   3.068   3.010   7.079 -0.7101 -0.3868  0.0201
   92SAPS  H12R 9004   3.135   2.939   7.129 -0.0934 -0.2989 -0.6763
   92SAPS  C213 9005   3.076   3.153   7.137 -0.4381 -0.7876  0.2279
   92SAPS  H13R 9006   3.065   3.132   7.246  0.1530 -3.8503 -0.2465
   92SAPS  H13S 9007   2.984   3.206   7.107  0.0841 -0.1778 -0.3045
   92SAPS  C214 9008   3.202   3.225   7.107  0.1511  0.4018  0.1159
   92SAPS  H14R 9009   3.220   3.231   6.998  0.8822  2.2101  0.3120
   92SAPS  C215 9010   3.300   3.273   7.191 -0.1258  0.2810  0.0351
   92SAPS  H15R 9011   3.381   3.340   7.157  1.2076 -1.8794 -1.1959
   92SAPS  C216 9012   3.298   3.259   7.340 -0.1674 -0.3004 -0.3630
   92SAPS  H16R 9013   3.238   3.178   7.387  0.0579 -0.5817 -0.5596
   92SAPS  H16S 9014   3.254   3.354   7.378  2.5293  0.8485  0.0076
   92SAPS  C217 9015   3.443   3.244   7.397 -0.0311 -0.3870  0.2071
   92SAPS  H17R 9016   3.505   3.334   7.376 -0.4625 -1.1050 -4.6801
   92SAPS  H17S 9017   3.479   3.141   7.371 -2.3344 -1.6558  1.8565
   92SAPS  C218 9018   3.436   3.229   7.548 -0.3509 -0.6208 -0.3856
   92SAPS  H18R 9019   3.529   3.172   7.569  0.7757  1.0151 -0.8611
   92SAPS  H18S 9020   3.355   3.158   7.576  0.4525 -0.3864  2.7374
   92SAPS  C219 9021   3.439   3.355   7.639  0.4059  0.0658  0.1549
   92SAPS  H19R 9022   3.346   3.415   7.633  0.7918  0.6711  0.2581
   92SAPS  H19S 9023   3.512   3.419   7.585  3.2610 -2.0506  1.3449
   92SAPS  C220 9024   3.468   3.329   7.785  0.0918  0.7861  0.4226
   92SAPS  H20R 9025   3.457   3.428   7.834  0.1816  0.1052  1.8315
   92SAPS  H20S 9026   3.571   3.295   7.809 -0.0917  1.4215  2.1701
   92SAPS  H20T 9027   3.388   3.261   7.823 -1.7817  1.5003 -2.0518
   92SAPS   C33 9028   3.153   3.170   6.416 -0.8047  0.1028  0.0719
   92SAPS   H3X 9029   3.220   3.087   6.445 -0.2920  0.5256  0.1107
   92SAPS   H3Y 9030   3.063   3.135   6.471  0.5631 -0.0209  2.2654
   92SAPS   C34 9031   3.218   3.300   6.461 -0.4014  0.7338  0.6067
   92SAPS   H4X 9032   3.150   3.384   6.435 -0.2379  1.6802  3.0356
   92SAPS   H4Y 9033   3.315   3.318   6.410 -1.5861  0.0160 -1.9823
   92SAPS   C35 9034   3.233   3.301   6.614 -0.3969 -0.7229  0.0896
   92SAPS   H5X 9035   3.280   3.208   6.651 -0.5402 -1.4370 -1.4732
   92SAPS   H5Y 9036   3.135   3.309   6.665 -0.7070 -0.0089 -0.6050
   92SAPS   C36 9037   3.306   3.430   6.655  0.0365  0.6231  0.4858
   92SAPS   H6X 9038   3.248   3.508   6.601 -2.2613 -2.1420 -1.2021
   92SAPS   H6Y 9039   3.410   3.432   6.616  0.3615 -0.9891  1.2208
   92SAPS   C37 9040   3.327   3.447   6.805 -0.3137 -0.1063  0.5817
   92SAPS   H7X 9041   3.394   3.364   6.836 -0.1749 -0.3728 -0.4253
   92SAPS   H7Y 9042   3.232   3.427   6.859  0.1650 -0.2596  1.3727
   92SAPS   C38 9043   3.378   3.582   6.841 -0.5713 -0.0948 -0.6430
   92SAPS   H8X 9044   3.307   3.663   6.818 -0.8031 -0.7602 -2.3286
   92SAPS   H8Y 9045   3.461   3.597   6.769 -0.6735  0.5375 -0.6325
   92SAPS   C39 9046   3.428   3.576   6.988  0.5566 -0.4309 -0.1319
   92SAPS   H9X 9047   3.488   3.484   7.005  1.1106 -0.2007 -0.8421
   92SAPS   H9Y 9048   3.332   3.563   7.042 -0.1067 -0.3864 -1.2903
   92SAPS  C310 9049   3.515   3.695   7.028 -0.5475  0.0017 -0.2371
   92SAPS  H10X 9050   3.471   3.790   6.990  1.3308  0.9051 -0.2064
   92SAPS  H10Y 9051   3.616   3.690   6.982 -0.5056 -0.3711 -0.1031
   92SAPS  C311 9052   3.507   3.714   7.183  0.0653  1.1878  0.4783
   92SAPS  H11X 9053   3.550   3.626   7.236  1.0063  0.3386 -1.6431
   92SAPS  H11Y 9054   3.399   3.718   7.210 -0.2672 -4.2266  0.4596
   92SAPS  C312 9055   3.580   3.837   7.228  0.3907  0.2084 -0.3641
   92SAPS  H12X 9056   3.544   3.923   7.167  0.5102 -1.2908 -2.6112
   92SAPS  H12Y 9057   3.685   3.836   7.193  0.2743  2.8435 -0.8632
   92SAPS  C313 9058   3.552   3.860   7.374 -0.5704  0.6537 -0.5919
   92SAPS  H13X 9059   3.446   3.865   7.406 -0.2773  1.2217  0.3240
   92SAPS  H13Y 9060   3.587   3.965   7.387  0.6165  0.3564 -1.3101
   92SAPS  C314 9061   3.637   3.768   7.465  0.0087  0.8065 -0.4345
   92SAPS  H14X 9062   3.645   3.663   7.429 -0.0570  0.9922 -0.9798
   92SAPS  H14Y 9063   3.593   3.759   7.567  3.0511  1.1062  0.9693
   92SAPS  C315 9064   3.782   3.818   7.490  0.6009 -0.2652 -0.5795
   92SAPS  H15X 9065   3.773   3.920   7.533  0.7245 -0.5961  0.2556
   92SAPS  H15Y 9066   3.842   3.823   7.398  1.6514 -0.3077  0.0985
   92SAPS  C316 9067   3.861   3.744   7.594  0.7609 -0.7783 -0.2417
   92SAPS  H16X 9068   3.865   3.636   7.566 -0.3071 -0.5310 -1.3591
   92SAPS  H16Y 9069   3.818   3.761   7.695  1.1229 -0.0153 -0.2108
   92SAPS  C317 9070   4.006   3.794   7.598 -0.0095 -0.9882  0.3485
   92SAPS  H17X 9071   4.050   3.787   7.496 -1.0208 -0.6251 -0.1175
   92SAPS  H17Y 9072   4.059   3.719   7.661  0.2207  0.1734  1.5630
   92SAPS  C318 9073   4.024   3.933   7.655  0.5451 -0.0824 -0.1661
   92SAPS  H18X 9074   4.123   3.979   7.633 -0.5662  2.5081  0.0739
   92SAPS  H18Y 9075   4.019   3.945   7.765 -2.1561  3.0560 -0.5416
   92SAPS  H18Z 9076   3.946   3.998   7.610 -0.0258 -1.9033 -1.8941
   93SAPS     N 9077   3.883   2.223   5.810 -0.4261  0.7710 -0.2491
   93SAPS   HN1 9078   3.881   2.168   5.722  0.6575 -2.2086  1.5461
   93SAPS   HN2 9079   3.959   2.182   5.868 -3.0723 -0.2168  2.6763
   93SAPS   HN3 9080   3.790   2.204   5.854 -0.7799  0.5672 -1.0880
   93SAPS   C12 9081   3.904   2.364   5.774 -0.2250 -0.2394  0.0838
   93SAPS  H12A 9082   3.999   2.377   5.724 -1.0697  1.1393 -1.2191
   93SAPS   C13 9083   3.792   2.421   5.685  0.0069  0.2840  0.2796
   93SAPS  O13A 9084   3.690   2.345   5.650 -0.4789  0.5392 -0.3658
   93SAPS  O13B 9085   3.805   2.533   5.634  0.0969 -0.3811 -0.5100
   93SAPS   C11 9086   3.921   2.455   5.904  0.8423 -0.3267  0.0081
   93SAPS  H11A 9087   3.988   2.417   5.985 -0.6722  1.1477  2.0086
   93SAPS  H11B 9088   3.821   2.453   5.953  0.4934  0.5964 -0.6586
   93SAPS     P 9089   4.107   2.633   5.879 -0.2039  0.1503 -0.2626
   93SAPS   O13 9090   4.183   2.526   5.811 -0.1695 -0.6214  0.2258
   93SAPS   O14 9091   4.129   2.775   5.833 -0.1802 -0.0963  0.0120
   93SAPS   O12 9092   3.957   2.598   5.877 -0.0012  0.0637  0.0644
   93SAPS   O11 9093   4.136   2.622   6.037  0.4042 -0.0530  0.8030
   93SAPS    C1 9094   4.083   2.722   6.128  0.4152 -0.5800  0.0280
   93SAPS    HA 9095   3.997   2.777   6.085  0.6576 -0.1739  0.0544
   93SAPS    HB 9096   4.051   2.664   6.218 -2.3705 -1.3176 -1.3863
   93SAPS    C2 9097   4.198   2.801   6.197 -0.2228 -0.5190  0.3562
   93SAPS    HS 9098   4.251   2.852   6.113 -0.6605  1.0359  1.0098
   93SAPS   O21 9099   4.276   2.705   6.262 -0.0367  0.1296  0.0805
   93SAPS   C21 9100   4.402   2.683   6.213  0.1466  0.2257  0.5560
   93SAPS   O22 9101   4.449   2.737   6.112 -0.4181 -0.3053  0.1507
   93SAPS   C22 9102   4.477   2.594   6.309 -0.4233  0.2023  0.0445
   93SAPS   H2R 9103   4.505   2.653   6.398 -2.4499  0.5221  0.4877
   93SAPS   H2S 9104   4.408   2.510   6.331 -0.8121 -0.0588 -2.0410
   93SAPS    C3 9105   4.161   2.912   6.298  0.1314 -0.3115 -0.1602
   93SAPS    HX 9106   4.077   2.973   6.260 -1.0464 -0.8332  1.5737
   93SAPS    HY 9107   4.245   2.983   6.314  1.7489 -2.1002 -0.3604
   93SAPS   O31 9108   4.116   2.858   6.425  0.0673  0.0089  0.1267
   93SAPS   C31 9109   4.218   2.860   6.523 -0.1977  0.1661 -0.3918
   93SAPS   O32 9110   4.333   2.886   6.502  0.2462 -0.1139 -0.1584
   93SAPS   C32 9111   4.157   2.787   6.646 -0.4177 -0.1410 -0.2603
   93SAPS   H2X 9112   4.168   2.680   6.619  2.7507  0.0190  0.1290
   93SAPS   H2Y 9113   4.055   2.820   6.674 -0.3896 -1.4883  1.5464
   93SAPS   C23 9114   4.617   2.546   6.248 -0.6165 -0.3752 -0.2078
   93SAPS   H3R 9115   4.661   2.629   6.189 -0.7987 -0.6934 -0.7983
   93SAPS   H3S 9116   4.606   2.462   6.176 -1.7887 -0.4388  0.0390
   93SAPS   C24 9117   4.712   2.513   6.362 -0.4499  0.7306  0.1598
   93SAPS   H4R 9118   4.704   2.600   6.432  0.4651  0.5837  0.4522
   93SAPS   H4S 9119   4.815   2.501   6.323 -0.7839 -1.3457 -0.1507
   93SAPS   C25 9120   4.668   2.387   6.419  0.0476 -0.2849 -0.6886
   93SAPS   H5R 9121   4.644   2.310   6.344  1.3362  0.0627 -1.4931
   93SAPS   C26 9122   4.663   2.355   6.547 -0.9255  0.2362 -0.3734
   93SAPS   H6R 9123   4.629   2.255   6.575 -0.4724 -0.3590 -1.8756
   93SAPS   C27 9124   4.701   2.442   6.663 -0.2077 -0.0246 -0.1739
   93SAPS   H7R 9125   4.769   2.522   6.627 -3.3878  3.0936  0.4732
   93SAPS   H7S 9126   4.756   2.394   6.747  0.6062  0.0224 -0.6685
   93SAPS   C28 9127   4.572   2.505   6.715  0.4691  0.5852 -0.4140
   93SAPS   H8R 9128   4.509   2.550   6.636 -0.7215 -1.8067 -0.8798
   93SAPS   C29 9129   4.529   2.509   6.843  0.5534 -0.1206 -0.2266
   93SAPS   H9R 9130   4.425   2.539   6.861  1.7034  2.6186  2.1717
   93SAPS  C210 9131   4.604   2.443   6.961  0.0917  0.1097 -0.1544
   93SAPS  H10R 9132   4.605   2.517   7.044  1.0720  2.0223 -1.8169
   93SAPS  H10S 9133   4.713   2.433   6.942  0.5252 -2.5837  3.2071
   93SAPS  C211 9134   4.561   2.301   7.001  0.0182 -0.1364 -0.2660
   93SAPS  H11R 9135   4.638   2.223   6.994 -0.9073 -1.0853 -0.0007
   93SAPS  C212 9136   4.439   2.263   7.043 -0.2918  0.0762 -0.2582
   93SAPS  H12R 9137   4.418   2.155   7.045  0.6611 -0.1018  1.0117
   93SAPS  C213 9138   4.314   2.352   7.063 -0.7973  0.1632 -0.4209
   93SAPS  H13R 9139   4.276   2.380   6.963 -3.0725  1.4366  0.7839
   93SAPS  H13S 9140   4.353   2.441   7.117 -0.2016 -0.8687  0.9042
   93SAPS  C214 9141   4.184   2.297   7.125 -0.2494  0.2349 -0.1492
   93SAPS  H14R 9142   4.139   2.210   7.076 -0.5504  0.6143 -0.5541
   93SAPS  C215 9143   4.131   2.343   7.240 -0.1594 -0.1552  0.4536
   93SAPS  H15R 9144   4.041   2.284   7.263 -0.3257 -0.2908 -0.5257
   93SAPS  C216 9145   4.172   2.453   7.332  0.6079  0.1544  0.0546
   93SAPS  H16R 9146   4.135   2.552   7.298 -0.6736 -0.8129 -1.4194
   93SAPS  H16S 9147   4.282   2.461   7.348  0.3609 -0.4250  2.1715
   93SAPS  C217 9148   4.102   2.442   7.469 -0.3148 -0.1119 -0.5621
   93SAPS  H17R 9149   3.992   2.440   7.458 -0.3628 -0.9002 -0.0189
   93SAPS  H17S 9150   4.139   2.531   7.524 -2.6522 -0.4282  1.5862
   93SAPS  C218 9151   4.164   2.333   7.562  0.8678 -0.5359 -0.0062
   93SAPS  H18R 9152   4.275   2.337   7.558  0.7982  1.6207 -1.0461
   93SAPS  H18S 9153   4.129   2.233   7.531  0.2090 -0.5060  0.6479
   93SAPS  C219 9154   4.107   2.351   7.699  0.5768 -0.0488  0.0335
   93SAPS  H19R 9155   4.137   2.450   7.740  0.6403  0.5471 -1.4280
   93SAPS  H19S 9156   4.148   2.273   7.768 -0.5792 -0.8427 -0.1696
   93SAPS  C220 9157   3.947   2.352   7.710  0.3337  0.2047  0.3783
   93SAPS  H20R 9158   3.926   2.392   7.812  2.5770  1.4298  0.3975
   93SAPS  H20S 9159   3.908   2.249   7.697 -0.1959  0.3387  0.8939
   93SAPS  H20T 9160   3.909   2.424   7.635  0.8804  0.8827  0.7361
   93SAPS   C33 9161   4.250   2.810   6.771  0.3513 -0.0984  0.3468
   93SAPS   H3X 9162   4.357   2.782   6.760 -0.1408 -2.5136  1.5173
   93SAPS   H3Y 9163   4.212   2.738   6.845 -0.2108  0.3318  0.4856
   93SAPS   C34 9164   4.247   2.949   6.834 -0.3777 -0.4520 -0.2918
   93SAPS   H4X 9165   4.302   3.018   6.766  2.6467 -0.9354  1.5707
   93SAPS   H4Y 9166   4.305   2.940   6.929  0.6811  2.7909 -0.5476
   93SAPS   C35 9167   4.104   2.988   6.879 -0.1800  0.2361 -0.5273
   93SAPS   H5X 9168   4.055   2.988   6.779  3.0664  0.8014 -2.1893
   93SAPS   H5Y 9169   4.107   3.085   6.932  0.4105  0.7699 -1.5171
   93SAPS   C36 9170   4.028   2.882   6.959  0.0997 -0.4121  0.9949
   93SAPS   H6X 9171   4.002   2.790   6.902  2.7724 -0.3257 -0.4182
   93SAPS   H6Y 9172   3.925   2.916   6.984 -0.6064 -0.9326 -1.0968
   93SAPS   C37 9173   4.089   2.835   7.091  1.0593 -0.3701 -0.0811
   93SAPS   H7X 9174   4.188   2.786   7.074  0.7284 -0.6400 -1.3482
   93SAPS   H7Y 9175   4.017   2.759   7.127  0.3970 -0.4768 -1.5546
   93SAPS   C38 9176   4.119   2.945   7.199  1.0245 -0.6608  0.0307
   93SAPS   H8X 9177   4.022   2.999   7.213  2.3301  2.5391 -2.4434
   93SAPS   H8Y 9178   4.188   3.018   7.151 -0.6134  0.7563 -0.2119
   93SAPS   C39 9179   4.171   2.889   7.331 -0.0708 -0.0671  0.6262
   93SAPS   H9X 9180   4.093   2.827   7.380 -0.6271 -1.1261 -1.5230
   93SAPS   H9Y 9181   4.180   2.975   7.401 -1.2767  0.9422 -0.4264
   93SAPS  C310 9182   4.301   2.806   7.318  0.3323 -1.0326  0.5820
   93SAPS  H10X 9183   4.293   2.709   7.264 -1.8919 -0.1611 -0.6931
   93SAPS  H10Y 9184   4.322   2.780   7.424 -1.6762 -3.3904  0.4471
   93SAPS  C311 9185   4.421   2.873   7.264  0.1977 -0.0364  0.3231
   93SAPS  H11X 9186   4.455   2.957   7.329  0.5073  0.3987 -0.3998
   93SAPS  H11Y 9187   4.400   2.921   7.166 -0.6672  1.0154  1.0117
   93SAPS  C312 9188   4.540   2.777   7.237  0.9581 -0.3533 -0.3730
   93SAPS  H12X 9189   4.628   2.837   7.206  0.8995 -0.4135 -0.6579
   93SAPS  H12Y 9190   4.515   2.714   7.149 -0.9815  0.0834 -0.1534
   93SAPS  C313 9191   4.594   2.695   7.351  0.4586 -0.3902 -0.5181
   93SAPS  H13X 9192   4.508   2.635   7.389  0.2878  0.9288  1.2473
   93SAPS  H13Y 9193   4.627   2.772   7.424 -0.4595 -0.8887  0.4396
   93SAPS  C314 9194   4.712   2.607   7.306  0.0071  0.5558  0.2384
   93SAPS  H14X 9195   4.786   2.682   7.272 -2.5537  2.8150 -0.5722
   93SAPS  H14Y 9196   4.700   2.558   7.207  3.2500  1.6791 -0.7498
   93SAPS  C315 9197   4.753   2.504   7.407 -0.0531 -0.4007 -0.6043
   93SAPS  H15X 9198   4.830   2.437   7.364 -0.8123 -1.4318 -0.3744
   93SAPS  H15Y 9199   4.666   2.444   7.442  1.8702 -2.6447  0.4022
   93SAPS  C316 9200   4.812   2.568   7.540  0.4162  0.1926 -0.5777
   93SAPS  H16X 9201   4.727   2.619   7.588  0.5994  0.0067 -0.0523
   93SAPS  H16Y 9202   4.886   2.646   7.511  1.1029  0.4033  1.6588
   93SAPS  C317 9203   4.880   2.474   7.646 -0.4119 -0.0464  0.0178
   93SAPS  H17X 9204   4.808   2.406   7.697 -1.4919  2.0040  1.3293
   93SAPS  H17Y 9205   4.930   2.531   7.727 -0.4247 -0.3108  0.2112
   93SAPS  C318 9206   4.992   2.392   7.582 -0.6164  0.1054  0.5098
   93SAPS  H18X 9207   5.030   2.308   7.644  0.9916  1.7536  1.8196
   93SAPS  H18Y 9208   5.082   2.457   7.573  0.1925 -1.0103  0.4570
   93SAPS  H18Z 9209   4.958   2.339   7.491 -1.7864  0.4333  0.7456
   94SAPS     N 9210   4.857   5.030   5.829  0.0057 -0.0638  0.1426
   94SAPS   HN1 9211   4.920   5.111   5.814  0.6964 -0.5279  0.4858
   94SAPS   HN2 9212   4.828   5.025   5.929 -1.5446  3.1278 -0.1035
   94SAPS   HN3 9213   4.911   4.942   5.812 -1.5393 -0.8990 -0.5653
   94SAPS   C12 9214   4.737   5.038   5.745  0.1567 -0.4715  0.7417
   94SAPS  H12A 9215   4.733   5.133   5.693 -0.4264 -0.5206  0.6883
   94SAPS   C13 9216   4.740   4.933   5.641  0.1506 -0.7719 -0.1851
   94SAPS  O13A 9217   4.822   4.835   5.641 -0.2620 -0.2584 -0.3646
   94SAPS  O13B 9218   4.652   4.934   5.549 -0.0486  0.3513 -0.3492
   94SAPS   C11 9219   4.606   5.028   5.821  0.2573  0.0810 -0.3620
   94SAPS  H11A 9220   4.592   4.921   5.849 -1.1971  0.0658 -1.0801
   94SAPS  H11B 9221   4.519   5.051   5.755 -0.1669  2.6791  1.0640
   94SAPS     P 9222   4.507   5.104   6.054  0.0576  0.0104 -0.0899
   94SAPS   O13 9223   4.524   5.223   6.137 -0.1565  0.2612 -0.1316
   94SAPS   O14 9224   4.376   5.062   6.000  0.4812 -0.2036 -0.1024
   94SAPS   O12 9225   4.613   5.117   5.940  0.0909  0.4032  0.6519
   94SAPS   O11 9226   4.567   4.974   6.128  0.5583 -0.1332 -0.6256
   94SAPS    C1 9227   4.604   4.979   6.274  0.1103 -0.3318 -0.0285
   94SAPS    HA 9228   4.519   5.028   6.327 -0.9475 -2.1502  0.0088
   94SAPS    HB 9229   4.613   4.881   6.327  1.2497  0.0390  0.4826
   94SAPS    C2 9230   4.729   5.072   6.303 -0.1280 -0.1279  0.3879
   94SAPS    HS 9231   4.724   5.155   6.230 -0.7553 -0.1644  0.3855
   94SAPS   O21 9232   4.854   4.988   6.314 -0.3550  0.8212  0.3384
   94SAPS   C21 9233   4.901   4.934   6.201  0.0727  0.3875  0.1038
   94SAPS   O22 9234   4.869   4.968   6.088 -0.1010 -0.6150  0.2702
   94SAPS   C22 9235   5.019   4.852   6.246  0.9497 -0.0802 -0.0229
   94SAPS   H2R 9236   5.045   4.768   6.178 -1.7646 -2.3932  1.6585
   94SAPS   H2S 9237   5.102   4.925   6.248 -0.0290  1.0149  1.5746
   94SAPS    C3 9238   4.705   5.142   6.441  0.2229  0.0276  0.3086
   94SAPS    HX 9239   4.609   5.196   6.430 -0.2278 -0.7102  0.6019
   94SAPS    HY 9240   4.779   5.223   6.459 -1.0962  1.4401 -0.5424
   94SAPS   O31 9241   4.688   5.041   6.548  0.2435 -0.3107 -0.1120
   94SAPS   C31 9242   4.805   5.009   6.611  0.2856 -0.8080  0.6686
   94SAPS   O32 9243   4.909   5.067   6.596 -0.5447 -0.5960 -0.2910
   94SAPS   C32 9244   4.787   4.893   6.702 -0.7623 -0.5656  0.4170
   94SAPS   H2X 9245   4.877   4.828   6.708  0.0962  0.6148  0.4739
   94SAPS   H2Y 9246   4.701   4.834   6.664 -0.4011 -1.0786  0.4001
   94SAPS   C23 9247   5.012   4.804   6.391 -0.4358  0.5668 -0.6794
   94SAPS   H3R 9248   5.017   4.887   6.464  3.7614 -0.3764  0.2677
   94SAPS   H3S 9249   5.096   4.733   6.411 -1.3808 -0.5136 -0.4708
   94SAPS   C24 9250   4.891   4.707   6.429 -0.3103 -0.1868 -0.7689
   94SAPS   H4R 9251   4.800   4.769   6.418 -0.2124  0.5481  2.0698
   94SAPS   H4S 9252   4.903   4.674   6.535  2.0127 -0.3886 -1.0680
   94SAPS   C25 9253   4.882   4.575   6.359 -0.4902 -0.4703  0.5124
   94SAPS   H5R 9254   4.864   4.583   6.251  3.6678 -3.7195 -0.5656
   94SAPS   C26 9255   4.899   4.456   6.410 -0.1605  0.0567  0.0944
   94SAPS   H6R 9256   4.905   4.361   6.355  0.2763 -0.1536  0.4992
   94SAPS   C27 9257   4.933   4.420   6.553 -0.2650  0.0493 -0.2467
   94SAPS   H7R 9258   4.883   4.324   6.580  0.4077 -0.6668 -1.4992
   94SAPS   H7S 9259   4.894   4.494   6.626 -0.3975  0.3235 -0.5966
   94SAPS   C28 9260   5.079   4.386   6.583  0.3581  0.2909 -0.1177
   94SAPS   H8R 9261   5.097   4.283   6.548 -0.1998  0.6492 -1.4936
   94SAPS   C29 9262   5.183   4.458   6.635 -0.1565  0.4747 -0.1384
   94SAPS   H9R 9263   5.281   4.410   6.645  0.3196  0.9976 -2.0395
   94SAPS  C210 9264   5.174   4.603   6.672 -0.1661  0.4131 -0.1816
   94SAPS  H10R 9265   5.175   4.598   6.783 -0.8562 -0.0480 -0.1916
   94SAPS  H10S 9266   5.070   4.631   6.648 -0.4410  1.0574  1.6516
   94SAPS  C211 9267   5.276   4.712   6.628 -0.0985 -0.1998  0.2011
   94SAPS  H11R 9268   5.348   4.683   6.550  2.6594  0.7280  2.3333
   94SAPS  C212 9269   5.298   4.834   6.681 -0.5410  0.4900  0.2723
   94SAPS  H12R 9270   5.369   4.910   6.645  1.7328 -1.9711 -0.6135
   94SAPS  C213 9271   5.219   4.886   6.794  0.0882  1.0562 -0.8552
   94SAPS  H13R 9272   5.282   4.890   6.886  1.4917  2.6212 -1.8605
   94SAPS  H13S 9273   5.126   4.826   6.805  1.1257 -0.6834 -1.3222
   94SAPS  C214 9274   5.172   5.020   6.770  0.3692  0.0160 -0.2672
   94SAPS  H14R 9275   5.144   5.048   6.668  2.2017 -0.5869 -0.9531
   94SAPS  C215 9276   5.140   5.112   6.868 -0.4770 -0.0458  0.0576
   94SAPS  H15R 9277   5.115   5.214   6.835  0.6465 -0.2234 -1.3992
   94SAPS  C216 9278   5.155   5.095   7.019  0.1272 -0.4465 -0.4262
   94SAPS  H16R 9279   5.189   5.195   7.053  2.5296 -0.8344 -1.5566
   94SAPS  H16S 9280   5.242   5.028   7.039 -0.4154 -1.2043 -0.5875
   94SAPS  C217 9281   5.031   5.041   7.103  0.2411  0.8205 -0.1237
   94SAPS  H17R 9282   5.015   4.933   7.083  1.3462  0.3986  1.1513
   94SAPS  H17S 9283   4.944   5.100   7.069 -0.2550 -0.6558 -1.4874
   94SAPS  C218 9284   5.037   5.061   7.257 -0.3201  0.8216 -0.4816
   94SAPS  H18R 9285   5.048   5.170   7.278  2.8440  0.4235  0.1127
   94SAPS  H18S 9286   5.129   5.007   7.288 -0.9172  0.7040  1.1376
   94SAPS  C219 9287   4.924   4.987   7.321 -0.0032  0.3021 -0.0714
   94SAPS  H19R 9288   4.948   4.991   7.430  2.1318  0.9629 -0.5550
   94SAPS  H19S 9289   4.909   4.881   7.293  0.6262 -0.4416  2.2750
   94SAPS  C220 9290   4.788   5.059   7.297  0.3661 -0.1804  0.0706
   94SAPS  H20R 9291   4.707   5.027   7.365  0.1617 -0.9786 -0.5389
   94SAPS  H20S 9292   4.759   5.043   7.191 -0.2668 -0.1537  0.2400
   94SAPS  H20T 9293   4.805   5.169   7.304 -0.0779 -0.1198  0.1714
   94SAPS   C33 9294   4.745   4.932   6.847 -0.4369 -0.1322  0.0844
   94SAPS   H3X 9295   4.635   4.950   6.848 -0.4065  0.2207 -1.2194
   94SAPS   H3Y 9296   4.793   5.025   6.884  0.9385 -1.0442  0.6412
   94SAPS   C34 9297   4.797   4.823   6.944 -0.7943 -0.3093 -0.8543
   94SAPS   H4X 9298   4.786   4.864   7.047 -1.1533 -1.1378 -0.5637
   94SAPS   H4Y 9299   4.906   4.811   6.923  0.3384  1.9146  3.1749
   94SAPS   C35 9300   4.750   4.687   6.925  0.5032 -0.3884  0.3011
   94SAPS   H5X 9301   4.749   4.653   6.819 -1.3323  1.0065 -0.1654
   94SAPS   H5Y 9302   4.646   4.680   6.965  0.6899 -0.8588  0.7038
   94SAPS   C36 9303   4.827   4.575   6.998  0.2901 -0.8480 -0.4816
   94SAPS   H6X 9304   4.794   4.583   7.104 -1.4744 -2.3999 -0.8714
   94SAPS   H6Y 9305   4.938   4.581   6.989  0.2435 -0.3819 -0.7292
   94SAPS   C37 9306   4.803   4.438   6.950 -0.1597 -0.1925  0.0422
   94SAPS   H7X 9307   4.838   4.420   6.846  0.9432 -3.2849  0.9198
   94SAPS   H7Y 9308   4.695   4.414   6.941 -0.9624  2.9548  0.5842
   94SAPS   C38 9309   4.877   4.332   7.027  0.4371 -0.7453  0.1319
   94SAPS   H8X 9310   4.985   4.356   7.020  0.9487 -2.2803  2.2199
   94SAPS   H8Y 9311   4.863   4.236   6.973  0.6197 -0.6372 -0.1060
   94SAPS   C39 9312   4.832   4.322   7.173  0.4431  0.4733 -0.4446
   94SAPS   H9X 9313   4.721   4.311   7.182  0.5189 -0.4568 -0.6452
   94SAPS   H9Y 9314   4.858   4.416   7.226 -1.1644  0.3217  0.6580
   94SAPS  C310 9315   4.899   4.202   7.236 -0.1895  0.4600  0.9844
   94SAPS  H10X 9316   5.003   4.192   7.199 -0.9229  0.6398 -1.2071
   94SAPS  H10Y 9317   4.856   4.102   7.216  3.0554 -1.2436  2.1603
   94SAPS  C311 9318   4.909   4.217   7.389  0.2276  0.2577  0.2127
   94SAPS  H11X 9319   4.806   4.230   7.431  0.2547  1.9009 -0.1722
   94SAPS  H11Y 9320   4.974   4.305   7.408 -2.5686  2.6115 -0.6939
   94SAPS  C312 9321   4.961   4.093   7.465  0.3011 -0.4634  0.1292
   94SAPS  H12X 9322   5.071   4.100   7.466  0.2990 -0.2553 -0.8100
   94SAPS  H12Y 9323   4.937   3.997   7.415  2.9969 -0.5296 -1.1187
   94SAPS  C313 9324   4.915   4.085   7.608 -0.4591 -0.7622  0.4334
   94SAPS  H13X 9325   4.948   3.987   7.648 -3.1854 -2.2861 -0.9027
   94SAPS  H13Y 9326   4.805   4.075   7.601 -0.4581  0.8964 -2.8234
   94SAPS  C314 9327   4.946   4.208   7.697 -0.6268  0.2597  0.7752
   94SAPS  H14X 9328   4.880   4.200   7.786 -0.4519 -0.3610  0.8518
   94SAPS  H14Y 9329   4.928   4.304   7.644  1.0507  0.8879  1.3099
   94SAPS  C315 9330   5.077   4.216   7.775 -0.2126  0.4160 -0.1631
   94SAPS  H15X 9331   5.164   4.247   7.714 -1.0442  1.2397 -0.9676
   94SAPS  H15Y 9332   5.106   4.115   7.810  0.8698  1.2769  1.4897
   94SAPS  C316 9333   5.074   4.302   7.904 -0.0906  0.5924  0.3460
   94SAPS  H16X 9334   4.982   4.268   7.956  1.1318 -2.8229  0.3967
   94SAPS  H16Y 9335   5.061   4.411   7.887  0.5239  0.9551  2.0976
   94SAPS  C317 9336   5.197   4.267   7.992 -0.2932 -0.3880  0.1074
   94SAPS  H17X 9337   5.296   4.303   7.958 -1.3086 -0.0266 -2.5484
   94SAPS  H17Y 9338   5.209   4.157   7.983 -0.4911 -0.2486 -2.0285
   94SAPS  C318 9339   5.175   4.325   8.134  0.0575  0.7863 -0.4161
   94SAPS  H18X 9340   5.089   4.271   8.179  0.8275 -2.7926 -2.9986
   94SAPS  H18Y 9341   5.163   4.435   8.128 -0.6245  0.7950  1.1819
   94SAPS  H18Z 9342   5.259   4.299   8.202 -0.6907  2.2033  1.0707
   95SAPS     N 9343   1.218   3.718   6.118 -0.2730  0.0204 -0.2658
   95SAPS   HN1 9344   1.273   3.670   6.044 -1.0395 -1.3792  0.0489
   95SAPS   HN2 9345   1.258   3.814   6.123  1.8623 -0.9046  1.5459
   95SAPS   HN3 9346   1.245   3.676   6.209  0.6294 -0.9160 -0.9404
   95SAPS   C12 9347   1.077   3.725   6.070 -0.0996  0.4918  0.3377
   95SAPS  H12A 9348   1.019   3.769   6.149 -2.4999 -0.7192 -0.6800
   95SAPS   C13 9349   1.063   3.825   5.949  0.0457 -0.1985  0.2793
   95SAPS  O13A 9350   1.156   3.904   5.926 -0.1599  0.2627  0.1405
   95SAPS  O13B 9351   0.946   3.856   5.916  0.1380 -0.0393 -0.5350
   95SAPS   C11 9352   1.028   3.578   6.036  0.4501 -0.3326 -0.2387
   95SAPS  H11A 9353   1.096   3.541   5.956  0.6555  1.5091 -0.9265
   95SAPS  H11B 9354   0.921   3.578   6.005  0.2548 -0.2326  0.4349
   95SAPS     P 9355   1.061   3.349   6.146 -0.1168  0.0537  0.7647
   95SAPS   O13 9356   0.928   3.295   6.147  0.2901 -0.1017 -0.7305
   95SAPS   O14 9357   1.152   3.308   6.040 -0.3396  0.1968  0.4109
   95SAPS   O12 9358   1.033   3.501   6.153  0.1093  0.9142 -0.5536
   95SAPS   O11 9359   1.129   3.339   6.294 -0.1345  0.0934 -0.1240
   95SAPS    C1 9360   1.063   3.359   6.416  0.4755  0.5802  0.4624
   95SAPS    HA 9361   0.961   3.399   6.397 -0.0250 -0.7196  0.3950
   95SAPS    HB 9362   1.044   3.263   6.468  1.2545  0.6488  0.8875
   95SAPS    C2 9363   1.147   3.459   6.503 -0.0223  1.0918 -0.7895
   95SAPS    HS 9364   1.138   3.438   6.612  1.8006 -0.2154 -0.8707
   95SAPS   O21 9365   1.104   3.596   6.480  0.3404  0.0734  0.3367
   95SAPS   C21 9366   0.991   3.626   6.523 -0.0225 -0.6388 -1.0491
   95SAPS   O22 9367   0.921   3.558   6.595  0.5154 -0.2140 -0.3216
   95SAPS   C22 9368   0.956   3.775   6.481  0.0374 -0.0701  0.1796
   95SAPS   H2R 9369   1.025   3.814   6.403 -1.1193 -1.4504 -1.5728
   95SAPS   H2S 9370   0.851   3.778   6.445  0.9404  1.6454 -2.4527
   95SAPS    C3 9371   1.300   3.443   6.464  0.0919 -0.1881  0.1783
   95SAPS    HX 9372   1.310   3.460   6.355  1.1199  2.3367  0.6328
   95SAPS    HY 9373   1.335   3.340   6.487  3.9088  0.7756 -0.9404
   95SAPS   O31 9374   1.391   3.532   6.535  0.1517  0.3317  0.1230
   95SAPS   C31 9375   1.402   3.654   6.474 -0.1874 -0.1965  0.6529
   95SAPS   O32 9376   1.364   3.686   6.362  0.3313  0.3111  0.3004
   95SAPS   C32 9377   1.468   3.754   6.562  0.0215 -0.8544  0.1693
   95SAPS   H2X 9378   1.435   3.747   6.668 -1.8569  2.1866 -0.1705
   95SAPS   H2Y 9379   1.439   3.854   6.523 -0.3188 -1.1262 -0.2811
   95SAPS   C23 9380   0.974   3.869   6.600  0.1427  0.5439 -0.6047
   95SAPS   H3R 9381   0.931   3.825   6.692 -0.7414 -0.6939 -1.5997
   95SAPS   H3S 9382   0.922   3.966   6.586  1.6276  1.4417 -0.0616
   95SAPS   C24 9383   1.123   3.902   6.618  0.1529 -0.0373  0.0284
   95SAPS   H4R 9384   1.170   3.953   6.531 -0.4523  0.5810  0.0553
   95SAPS   H4S 9385   1.181   3.810   6.640 -1.1499 -0.4256  1.9829
   95SAPS   C25 9386   1.125   3.978   6.745  0.0597 -0.6082  0.1727
   95SAPS   H5R 9387   1.123   4.087   6.728  0.7558 -0.9296 -2.1077
   95SAPS   C26 9388   1.137   3.929   6.872  0.5772 -0.0878  0.7042
   95SAPS   H6R 9389   1.148   4.004   6.952  4.1600 -0.1584  0.3764
   95SAPS   C27 9390   1.150   3.785   6.917  0.7362  0.0879  0.5379
   95SAPS   H7R 9391   1.123   3.722   6.830  0.7782  0.0354  0.5626
   95SAPS   H7S 9392   1.069   3.766   6.992 -0.0889 -1.6646 -0.7779
   95SAPS   C28 9393   1.293   3.744   6.961  0.0870 -0.0764  0.2406
   95SAPS   H8R 9394   1.354   3.816   7.019  3.2963 -2.7549  0.3152
   95SAPS   C29 9395   1.347   3.619   6.935 -0.2313 -0.5001 -0.0530
   95SAPS   H9R 9396   1.449   3.594   6.967 -0.0445  0.7021  0.3362
   95SAPS  C210 9397   1.281   3.510   6.854 -0.3070 -1.1447  0.1429
   95SAPS  H10R 9398   1.231   3.549   6.763  0.2477  0.8671  0.6672
   95SAPS  H10S 9399   1.202   3.469   6.921 -0.3952  0.1850  0.8600
   95SAPS  C211 9400   1.364   3.392   6.817 -0.1467 -0.0140  0.0772
   95SAPS  H11R 9401   1.401   3.392   6.714 -2.1095  0.4905 -0.6475
   95SAPS  C212 9402   1.420   3.301   6.902  0.2342  0.2945  0.1960
   95SAPS  H12R 9403   1.478   3.221   6.854  0.7533  1.2751 -0.8552
   95SAPS  C213 9404   1.419   3.299   7.050  0.2362 -0.2783 -0.5240
   95SAPS  H13R 9405   1.343   3.227   7.086  0.4944 -0.6607 -0.7478
   95SAPS  H13S 9406   1.387   3.393   7.102 -1.6481 -1.1554 -0.0190
   95SAPS  C214 9407   1.553   3.259   7.100  0.2260 -0.1644 -0.3539
   95SAPS  H14R 9408   1.635   3.296   7.038  0.2152  1.8340  0.7955
   95SAPS  C215 9409   1.579   3.179   7.201 -0.0690  0.4673  0.3330
   95SAPS  H15R 9410   1.683   3.141   7.210 -0.5327 -0.9765 -0.2293
   95SAPS  C216 9411   1.482   3.116   7.287 -0.3349 -0.6354  0.1104
   95SAPS  H16R 9412   1.423   3.049   7.221 -0.5573 -1.3679  1.0365
   95SAPS  H16S 9413   1.421   3.194   7.337  0.5241  1.6128 -2.2746
   95SAPS  C217 9414   1.555   3.038   7.396  0.7465 -0.0121 -0.2779
   95SAPS  H17R 9415   1.617   3.111   7.453  2.5065 -1.3065 -0.4726
   95SAPS  H17S 9416   1.620   2.956   7.357  2.4500  0.4648  1.4283
   95SAPS  C218 9417   1.461   2.971   7.499  0.1379  0.4709 -0.5098
   95SAPS  H18R 9418   1.387   2.903   7.452  2.3737 -1.4754 -1.3841
   95SAPS  H18S 9419   1.403   3.045   7.558  1.5396  1.9628 -0.9765
   95SAPS  C219 9420   1.536   2.891   7.604 -0.2896 -0.1966  0.6678
   95SAPS  H19R 9421   1.592   2.816   7.545  0.8244  0.6824  0.5803
   95SAPS  H19S 9422   1.457   2.839   7.661 -0.7531 -0.6011 -0.3409
   95SAPS  C220 9423   1.633   2.975   7.690 -0.3048  0.1092 -0.2088
   95SAPS  H20R 9424   1.713   3.022   7.629 -0.6101  0.8912 -0.0130
   95SAPS  H20S 9425   1.669   2.908   7.771 -1.1021 -0.8056 -0.5964
   95SAPS  H20T 9426   1.575   3.064   7.725  0.8612  0.8403 -0.0995
   95SAPS   C33 9427   1.627   3.736   6.558 -0.0740 -0.7334 -0.8243
   95SAPS   H3X 9428   1.658   3.812   6.633 -1.8602  1.4853 -2.2834
   95SAPS   H3Y 9429   1.668   3.757   6.457 -0.7239  1.3235 -0.6744
   95SAPS   C34 9430   1.670   3.602   6.602  0.5069 -0.4803  0.0047
   95SAPS   H4X 9431   1.638   3.527   6.527  0.0270 -2.1148  1.7967
   95SAPS   H4Y 9432   1.616   3.574   6.695  0.5689 -3.7306 -0.8852
   95SAPS   C35 9433   1.825   3.593   6.613 -0.3760 -0.2765 -0.6583
   95SAPS   H5X 9434   1.857   3.679   6.676  3.1189 -0.8170 -1.6165
   95SAPS   H5Y 9435   1.864   3.597   6.509 -0.8484  0.7131 -0.8034
   95SAPS   C36 9436   1.878   3.463   6.674 -0.6120 -0.9956 -0.4565
   95SAPS   H6X 9437   1.984   3.466   6.641 -1.0237  2.0668 -1.7404
   95SAPS   H6Y 9438   1.840   3.374   6.619  1.9365 -2.9079  0.7917
   95SAPS   C37 9439   1.865   3.447   6.826 -0.3194  0.0440  0.0608
   95SAPS   H7X 9440   1.759   3.426   6.851 -0.0101 -2.7648 -0.7760
   95SAPS   H7Y 9441   1.897   3.537   6.883 -2.2429  0.7253  0.0748
   95SAPS   C38 9442   1.950   3.333   6.866 -0.1564 -0.2810 -0.2067
   95SAPS   H8X 9443   2.051   3.372   6.843 -0.9316  0.3599 -2.5935
   95SAPS   H8Y 9444   1.920   3.244   6.807  2.1974 -1.8154  0.8344
   95SAPS   C39 9445   1.941   3.308   7.020  0.0795  0.0217  0.2018
   95SAPS   H9X 9446   1.840   3.274   7.053 -0.8476  2.2118 -0.2637
   95SAPS   H9Y 9447   1.949   3.409   7.065  0.2990 -0.4919  1.3248
   95SAPS  C310 9448   2.047   3.205   7.075  0.4051 -0.2166  0.5157
   95SAPS  H10X 9449   2.145   3.240   7.038 -0.0572  0.4730 -0.0689
   95SAPS  H10Y 9450   2.024   3.111   7.020 -2.1908  1.2113 -0.9363
   95SAPS  C311 9451   2.037   3.190   7.224 -0.6044 -0.3216  0.3618
   95SAPS  H11X 9452   1.938   3.147   7.251 -2.2856  1.9784 -1.8204
   95SAPS  H11Y 9453   2.023   3.295   7.259  0.0221 -0.5244  1.2085
   95SAPS  C312 9454   2.160   3.117   7.290  0.0455 -0.4309 -0.0658
   95SAPS  H12X 9455   2.254   3.163   7.251 -0.4465  0.6554  0.0370
   95SAPS  H12Y 9456   2.146   3.012   7.256 -2.3790 -1.6291  4.3007
   95SAPS  C313 9457   2.154   3.099   7.444 -0.1843 -0.4140  0.6960
   95SAPS  H13X 9458   2.046   3.082   7.464 -0.6666 -2.9483 -3.4215
   95SAPS  H13Y 9459   2.188   3.193   7.492  0.8067 -0.3722 -0.0788
   95SAPS  C314 9460   2.221   2.975   7.490 -0.3243 -0.1820  0.1970
   95SAPS  H14X 9461   2.226   2.902   7.407  3.3439  0.0728  0.0796
   95SAPS  H14Y 9462   2.170   2.928   7.576 -1.8360  1.7118  0.3698
   95SAPS  C315 9463   2.364   2.993   7.541  0.2590 -1.0262  0.3535
   95SAPS  H15X 9464   2.419   3.054   7.466 -0.4965  0.1047  0.7223
   95SAPS  H15Y 9465   2.418   2.895   7.547 -0.5416 -1.5133 -0.1901
   95SAPS  C316 9466   2.369   3.055   7.674 -0.2993 -0.0172  0.7628
   95SAPS  H16X 9467   2.324   2.977   7.739  2.0304 -3.0610 -1.1063
   95SAPS  H16Y 9468   2.307   3.147   7.669 -0.5651 -0.1779  1.1118
   95SAPS  C317 9469   2.510   3.096   7.729 -0.1288 -0.3223  0.3574
   95SAPS  H17X 9470   2.494   3.134   7.832 -0.5397  0.3421  0.0497
   95SAPS  H17Y 9471   2.538   3.180   7.661 -1.6535  0.6918  0.9541
   95SAPS  C318 9472   2.609   2.984   7.719 -0.0505  0.0713  0.2140
   95SAPS  H18X 9473   2.632   2.959   7.613 -0.8127 -1.2460  0.3502
   95SAPS  H18Y 9474   2.583   2.888   7.769  0.5461 -0.4399 -0.4281
   95SAPS  H18Z 9475   2.708   3.014   7.760  1.0854 -1.6097 -1.1920
   96SAPS     N 9476   1.419   5.082   5.872  0.0818  0.1880 -0.7517
   96SAPS   HN1 9477   1.464   5.120   5.786  0.1294 -0.9238 -1.2224
   96SAPS   HN2 9478   1.315   5.086   5.872  0.0708  0.5257 -3.0306
   96SAPS   HN3 9479   1.436   5.145   5.953  0.1141 -1.4354  0.5393
   96SAPS   C12 9480   1.473   4.945   5.896 -0.0717 -0.5654  0.0925
   96SAPS  H12A 9481   1.403   4.886   5.954 -0.4849  2.0781  2.3932
   96SAPS   C13 9482   1.513   4.868   5.767 -0.3252  0.1278 -0.5055
   96SAPS  O13A 9483   1.524   4.932   5.659 -0.3323  0.2175 -0.0915
   96SAPS  O13B 9484   1.562   4.752   5.784  0.2916  0.0754 -0.3479
   96SAPS   C11 9485   1.613   4.978   5.963  0.3235 -0.0959  0.2183
   96SAPS  H11A 9486   1.676   5.040   5.895 -0.1969  0.1100 -0.0816
   96SAPS  H11B 9487   1.670   4.884   5.975 -0.3210 -1.0293 -3.4700
   96SAPS     P 9488   1.586   4.980   6.229 -0.0488  0.7976 -0.2943
   96SAPS   O13 9489   1.576   4.832   6.233 -0.2991  0.0324  0.0659
   96SAPS   O14 9490   1.700   5.037   6.305  0.0527  0.3249  0.1029
   96SAPS   O12 9491   1.583   5.045   6.086 -0.1638 -0.3538  0.2084
   96SAPS   O11 9492   1.452   5.040   6.293  0.0917 -0.2162 -0.1716
   96SAPS    C1 9493   1.388   5.161   6.248 -0.0469 -0.7962  0.0405
   96SAPS    HA 9494   1.460   5.243   6.230 -1.1921  0.2254  0.0329
   96SAPS    HB 9495   1.345   5.145   6.147 -0.3171 -1.0052  0.1866
   96SAPS    C2 9496   1.266   5.201   6.339  0.9338 -0.8650 -0.2338
   96SAPS    HS 9497   1.221   5.300   6.319 -0.6497 -1.6865 -0.8575
   96SAPS   O21 9498   1.294   5.182   6.479 -0.2845  0.6800 -0.3519
   96SAPS   C21 9499   1.308   5.294   6.551 -0.1012 -0.2225 -0.0150
   96SAPS   O22 9500   1.318   5.405   6.500 -0.1008 -0.4782 -0.8357
   96SAPS   C22 9501   1.286   5.256   6.697 -0.2842  0.4178 -0.4474
   96SAPS   H2R 9502   1.180   5.226   6.714 -0.2437 -0.5176 -1.7682
   96SAPS   H2S 9503   1.346   5.165   6.720 -2.2563 -0.7178  0.3937
   96SAPS    C3 9504   1.137   5.112   6.309  1.0723 -0.3734 -0.6540
   96SAPS    HX 9505   1.110   5.127   6.202 -2.1630 -3.1248 -0.3070
   96SAPS    HY 9506   1.045   5.146   6.361 -0.1147 -2.2687 -1.4547
   96SAPS   O31 9507   1.159   4.971   6.344 -0.4858 -0.0555  0.2863
   96SAPS   C31 9508   1.204   4.907   6.244  0.4861  0.6041  0.5861
   96SAPS   O32 9509   1.226   4.950   6.129 -0.7878 -0.2479 -0.1562
   96SAPS   C32 9510   1.203   4.753   6.269 -0.3107 -0.0844 -0.9241
   96SAPS   H2X 9511   1.199   4.691   6.177  2.1914  0.5948 -1.5173
   96SAPS   H2Y 9512   1.104   4.739   6.318  0.4330  0.5758  0.7886
   96SAPS   C23 9513   1.323   5.371   6.796  0.1620  0.1566 -0.2130
   96SAPS   H3R 9514   1.274   5.338   6.890 -1.3630  1.6414 -0.4475
   96SAPS   H3S 9515   1.269   5.465   6.770 -0.4190  0.2441  1.2431
   96SAPS   C24 9516   1.467   5.407   6.809  0.2474  0.7774 -0.1860
   96SAPS   H4R 9517   1.488   5.495   6.873 -2.1752  0.0199  1.7258
   96SAPS   H4S 9518   1.507   5.447   6.713 -0.2967 -1.2352 -1.2970
   96SAPS   C25 9519   1.566   5.296   6.856 -0.2453 -0.0676  0.1991
   96SAPS   H5R 9520   1.627   5.244   6.781 -0.5542  2.3467 -1.7713
   96SAPS   C26 9521   1.572   5.243   6.979  0.2980  0.0857  0.4845
   96SAPS   H6R 9522   1.640   5.158   6.995  0.6012 -0.0481 -1.4044
   96SAPS   C27 9523   1.483   5.282   7.102  0.2630 -0.5208  0.7308
   96SAPS   H7R 9524   1.421   5.369   7.071  0.4924  0.1280  2.0288
   96SAPS   H7S 9525   1.558   5.326   7.172 -0.1940 -2.1538  2.3059
   96SAPS   C28 9526   1.375   5.188   7.160 -0.7274  0.1102  0.0853
   96SAPS   H8R 9527   1.290   5.167   7.094  0.4114 -0.6919 -1.1536
   96SAPS   C29 9528   1.389   5.120   7.279 -0.2634  0.8402  0.4684
   96SAPS   H9R 9529   1.313   5.047   7.309 -0.2776  1.5301  2.1534
   96SAPS  C210 9530   1.500   5.113   7.376  0.2634 -0.0320  0.2891
   96SAPS  H10R 9531   1.581   5.149   7.308  1.0781 -0.3544  1.0914
   96SAPS  H10S 9532   1.529   5.014   7.416 -0.6786 -0.6029 -0.3973
   96SAPS  C211 9533   1.495   5.211   7.490  0.5616  0.2600  0.7320
   96SAPS  H11R 9534   1.521   5.314   7.464  3.8747 -1.0572 -1.5131
   96SAPS  C212 9535   1.435   5.183   7.609  0.1531  0.8655  0.1246
   96SAPS  H12R 9536   1.455   5.255   7.690  0.8319  0.4266  0.3484
   96SAPS  C213 9537   1.365   5.057   7.653  0.4538 -0.1525 -0.0820
   96SAPS  H13R 9538   1.423   4.987   7.716  0.9576  0.8450  0.5718
   96SAPS  H13S 9539   1.317   5.004   7.568 -1.8430 -1.2008  1.7936
   96SAPS  C214 9540   1.246   5.096   7.736  0.0873  0.4064  0.4412
   96SAPS  H14R 9541   1.152   5.083   7.680  0.1579 -1.2954  0.6716
   96SAPS  C215 9542   1.244   5.148   7.859 -0.1365 -0.2229  0.8065
   96SAPS  H15R 9543   1.147   5.148   7.911 -0.2753  1.6023  0.6033
   96SAPS  C216 9544   1.359   5.184   7.947 -1.0392 -0.0486 -0.6095
   96SAPS  H16R 9545   1.442   5.218   7.882 -0.0492  0.6030  0.9683
   96SAPS  H16S 9546   1.399   5.089   7.990  0.0583  0.9717  0.6624
   96SAPS  C217 9547   1.342   5.284   8.064 -0.2588  0.1213  0.3347
   96SAPS  H17R 9548   1.436   5.283   8.123  1.3441 -3.6344 -2.1339
   96SAPS  H17S 9549   1.258   5.248   8.128 -0.8290  1.5554  0.3964
   96SAPS  C218 9550   1.306   5.432   8.028  0.0847 -0.0221  0.7091
   96SAPS  H18R 9551   1.277   5.484   8.122 -1.1856  2.4523 -0.9759
   96SAPS  H18S 9552   1.218   5.425   7.962  1.6219  0.9415 -1.5001
   96SAPS  C219 9553   1.419   5.513   7.962  0.1590 -0.2062 -0.5713
   96SAPS  H19R 9554   1.371   5.606   7.925  0.5979  0.5162  0.6624
   96SAPS  H19S 9555   1.454   5.453   7.875 -1.3125  0.2004 -1.4643
   96SAPS  C220 9556   1.537   5.554   8.050 -0.0457 -0.4418 -0.0485
   96SAPS  H20R 9557   1.613   5.617   7.998 -1.7210  1.1429 -0.6142
   96SAPS  H20S 9558   1.587   5.463   8.090  2.0880 -0.0640 -1.7179
   96SAPS  H20T 9559   1.495   5.612   8.135 -0.9675  0.1287 -0.8859
   96SAPS   C33 9560   1.303   4.714   6.381  0.0916 -0.1842 -0.0870
   96SAPS   H3X 9561   1.399   4.744   6.331  1.9223 -0.3583  3.1985
   96SAPS   H3Y 9562   1.317   4.605   6.397  2.4776 -0.0703 -1.1367
   96SAPS   C34 9563   1.293   4.794   6.517 -0.0287 -0.4099  0.5000
   96SAPS   H4X 9564   1.189   4.776   6.554 -0.0607 -0.4809  0.3751
   96SAPS   H4Y 9565   1.301   4.903   6.497 -1.1417 -0.1780  1.2217
   96SAPS   C35 9566   1.389   4.740   6.620  0.0150 -0.1564 -0.2994
   96SAPS   H5X 9567   1.491   4.774   6.593 -0.2958  0.2091 -1.0405
   96SAPS   H5Y 9568   1.378   4.630   6.619 -0.3021 -0.1169 -0.9632
   96SAPS   C36 9569   1.368   4.778   6.766  0.3246  0.2980  0.3575
   96SAPS   H6X 9570   1.261   4.769   6.798  0.7571  0.2680  1.8240
   96SAPS   H6Y 9571   1.398   4.883   6.781  0.2302  0.7344 -2.2163
   96SAPS   C37 9572   1.442   4.680   6.856  0.2800  0.1713 -0.0468
   96SAPS   H7X 9573   1.535   4.644   6.806  0.7156  1.2592 -0.0301
   96SAPS   H7Y 9574   1.383   4.590   6.885 -2.0524  1.6820  0.0016
   96SAPS   C38 9575   1.471   4.742   6.996  0.2496 -0.0600  0.6150
   96SAPS   H8X 9576   1.375   4.792   7.020 -0.0877  0.7994 -2.2529
   96SAPS   H8Y 9577   1.547   4.820   6.976 -0.6365 -0.0294 -3.2383
   96SAPS   C39 9578   1.504   4.634   7.104  0.1362  0.2498 -0.7680
   96SAPS   H9X 9579   1.544   4.539   7.063 -2.9039 -0.8388 -1.3491
   96SAPS   H9Y 9580   1.409   4.607   7.154  0.8243 -2.6176 -0.9220
   96SAPS  C310 9581   1.601   4.675   7.214 -0.0229  0.3930  0.3096
   96SAPS  H10X 9582   1.592   4.780   7.248 -1.3528  0.4156 -0.0863
   96SAPS  H10Y 9583   1.700   4.679   7.164  1.1771  0.1429  2.5937
   96SAPS  C311 9584   1.606   4.581   7.333 -0.3691  0.2034  0.3375
   96SAPS  H11X 9585   1.615   4.477   7.296 -2.0198 -0.9321  2.9329
   96SAPS  H11Y 9586   1.502   4.577   7.370 -1.4132  1.3538 -2.3484
   96SAPS  C312 9587   1.718   4.612   7.431 -0.3713  0.0478  0.0015
   96SAPS  H12X 9588   1.698   4.707   7.486 -1.4987 -1.1505  1.7064
   96SAPS  H12Y 9589   1.812   4.625   7.373  0.7693 -0.7465  1.5987
   96SAPS  C313 9590   1.752   4.507   7.531  0.6942  0.4450 -0.0508
   96SAPS  H13X 9591   1.806   4.433   7.468  1.0338 -0.3210  1.1318
   96SAPS  H13Y 9592   1.659   4.467   7.576  0.3096  2.7385  1.2374
   96SAPS  C314 9593   1.832   4.555   7.645  0.3899  0.6909 -0.5184
   96SAPS  H14X 9594   1.776   4.638   7.695 -1.5739 -0.9857  0.1406
   96SAPS  H14Y 9595   1.929   4.598   7.611  0.9407 -2.5385 -3.2874
   96SAPS  C315 9596   1.858   4.440   7.745 -0.7561  0.2297  0.4746
   96SAPS  H15X 9597   1.894   4.358   7.679 -0.7982  0.7785 -0.2267
   96SAPS  H15Y 9598   1.762   4.409   7.792 -0.8174 -1.8760 -0.9699
   96SAPS  C316 9599   1.964   4.478   7.848 -0.7676  0.2821  0.2581
   96SAPS  H16X 9600   2.021   4.560   7.798  1.3277 -0.7621  0.8447
   96SAPS  H16Y 9601   2.031   4.392   7.868 -0.3368  0.6682  0.5048
   96SAPS  C317 9602   1.902   4.525   7.981  0.5396  0.4915  0.2718
   96SAPS  H17X 9603   1.828   4.456   8.027  1.2336 -0.8724 -0.6273
   96SAPS  H17Y 9604   1.839   4.609   7.944 -0.5444 -0.3774  0.1101
   96SAPS  C318 9605   1.998   4.565   8.093  0.7322 -0.7792  0.0577
   96SAPS  H18X 9606   1.939   4.592   8.183 -1.4470 -0.1131 -1.5489
   96SAPS  H18Y 9607   2.051   4.658   8.064 -0.7621 -0.2952 -1.1479
   96SAPS  H18Z 9608   2.065   4.480   8.119  0.7663 -0.3901  1.2626
   97SAPS     N 9609   1.685   2.034   5.753 -0.1040  0.1389 -0.2137
   97SAPS   HN1 9610   1.751   1.959   5.781  1.8761  1.5019 -1.0865
   97SAPS   HN2 9611   1.698   2.047   5.651  0.6629 -2.0361 -0.4157
   97SAPS   HN3 9612   1.710   2.122   5.803  0.7097  1.2793 -2.5678
   97SAPS   C12 9613   1.545   1.987   5.789 -0.1813 -0.7365  0.1538
   97SAPS  H12A 9614   1.522   2.006   5.892  0.9090 -0.3962  0.3428
   97SAPS   C13 9615   1.446   2.044   5.687 -0.4518 -0.6971 -0.5044
   97SAPS  O13A 9616   1.480   2.112   5.591  0.0637 -0.4457  0.4786
   97SAPS  O13B 9617   1.323   2.047   5.730 -0.0290  0.0106  0.0442
   97SAPS   C11 9618   1.546   1.830   5.791  0.2930  0.4663  0.2586
   97SAPS  H11A 9619   1.582   1.812   5.687 -2.8686 -2.1433 -0.4743
   97SAPS  H11B 9620   1.444   1.790   5.808 -0.4867  1.0426 -2.7921
   97SAPS     P 9621   1.669   1.628   5.896 -0.0935  0.0399  0.2967
   97SAPS   O13 9622   1.552   1.566   5.960 -0.1258 -0.5168  0.3770
   97SAPS   O14 9623   1.713   1.572   5.763 -0.0133 -0.6996  0.2574
   97SAPS   O12 9624   1.642   1.784   5.882 -0.2979 -0.2732 -0.3047
   97SAPS   O11 9625   1.796   1.630   5.990  0.5598  0.4337  0.0132
   97SAPS    C1 9626   1.886   1.515   5.985 -0.2002  0.3097 -0.5095
   97SAPS    HA 9627   1.889   1.468   5.884  1.1182 -0.0601 -0.3091
   97SAPS    HB 9628   1.984   1.552   6.022 -1.9335  2.8835  1.7374
   97SAPS    C2 9629   1.841   1.411   6.097  0.4757 -0.1648  0.4472
   97SAPS    HS 9630   1.742   1.378   6.058  0.2714  3.0263 -2.0233
   97SAPS   O21 9631   1.820   1.481   6.214 -0.0668  1.3543  0.7730
   97SAPS   C21 9632   1.758   1.413   6.310  0.6628  0.2516 -0.2337
   97SAPS   O22 9633   1.706   1.303   6.304 -0.2104 -0.1840  0.3181
   97SAPS   C22 9634   1.775   1.501   6.433  0.1955 -0.1708 -0.4514
   97SAPS   H2R 9635   1.876   1.549   6.439  0.1164  0.0059 -0.5349
   97SAPS   H2S 9636   1.696   1.579   6.423 -0.9294 -1.3554 -0.8842
   97SAPS    C3 9637   1.943   1.287   6.107 -0.0713 -0.3764 -0.9901
   97SAPS    HX 9638   1.960   1.252   6.003  0.8234 -1.2767 -0.5514
   97SAPS    HY 9639   1.884   1.210   6.161  0.0468  0.0128 -0.2915
   97SAPS   O31 9640   2.057   1.318   6.189  0.2365 -0.0725 -0.0992
   97SAPS   C31 9641   2.165   1.352   6.131 -0.1032 -0.3935  0.1558
   97SAPS   O32 9642   2.181   1.362   6.008  0.0579 -0.1126 -0.1325
   97SAPS   C32 9643   2.280   1.370   6.233 -0.1764  0.2817  0.4076
   97SAPS   H2X 9644   2.366   1.322   6.183  0.4327 -1.6102  3.1309
   97SAPS   H2Y 9645   2.253   1.333   6.334 -0.3551 -0.1792  0.1901
   97SAPS   C23 9646   1.756   1.431   6.571 -0.2072 -0.0906  0.1878
   97SAPS   H3R 9647   1.700   1.336   6.560  0.4353 -0.8560  3.0098
   97SAPS   H3S 9648   1.699   1.504   6.632 -1.1647 -1.2887  0.7373
   97SAPS   C24 9649   1.879   1.397   6.652 -0.0809  0.4149 -0.3649
   97SAPS   H4R 9650   1.849   1.336   6.741 -1.4078  0.3320 -0.8548
   97SAPS   H4S 9651   1.923   1.496   6.676  0.6540 -0.4569  2.0178
   97SAPS   C25 9652   1.979   1.307   6.588 -0.1402 -0.6036  0.5253
   97SAPS   H5R 9653   2.077   1.357   6.574  0.1765 -2.2101 -3.9180
   97SAPS   C26 9654   1.970   1.171   6.574 -0.2362  0.7105 -0.3709
   97SAPS   H6R 9655   2.042   1.111   6.516  1.1784  0.8265  1.2075
   97SAPS   C27 9656   1.850   1.086   6.615  0.0661 -0.2641  0.8431
   97SAPS   H7R 9657   1.779   1.147   6.676 -2.0540 -2.7320  0.8935
   97SAPS   H7S 9658   1.876   0.995   6.673 -1.4540 -2.5207 -1.8854
   97SAPS   C28 9659   1.773   1.029   6.497 -0.6327  0.0516 -0.3070
   97SAPS   H8R 9660   1.830   1.031   6.403 -4.0733  0.9175 -2.4773
   97SAPS   C29 9661   1.649   0.987   6.497  0.4006  0.1287 -0.4297
   97SAPS   H9R 9662   1.600   0.942   6.410 -1.0999  2.6626 -0.9235
   97SAPS  C210 9663   1.565   0.977   6.623 -0.0907 -0.8892  0.4113
   97SAPS  H10R 9664   1.470   1.023   6.588  0.8124 -0.3803 -1.4885
   97SAPS  H10S 9665   1.601   1.034   6.711 -0.9891 -0.2848  0.3891
   97SAPS  C211 9666   1.554   0.830   6.658  0.1830 -0.4875 -0.0762
   97SAPS  H11R 9667   1.494   0.773   6.585 -2.4135  1.8093  0.1466
   97SAPS  C212 9668   1.607   0.773   6.769  0.2119 -0.1619  0.8443
   97SAPS  H12R 9669   1.600   0.664   6.774  4.8356 -0.6126 -0.2116
   97SAPS  C213 9670   1.695   0.832   6.880 -0.3521 -0.4577 -0.8516
   97SAPS  H13R 9671   1.756   0.911   6.832  1.4625 -2.6993 -2.3035
   97SAPS  H13S 9672   1.755   0.752   6.929 -0.2525  1.7030  2.7847
   97SAPS  C214 9673   1.623   0.898   6.990  0.0146 -0.0666 -0.5973
   97SAPS  H14R 9674   1.519   0.922   6.965  0.1023  0.6562 -0.2877
   97SAPS  C215 9675   1.658   0.935   7.115  0.7824  0.2698  0.4928
   97SAPS  H15R 9676   1.572   0.967   7.176 -0.8100  0.5968 -1.8247
   97SAPS  C216 9677   1.792   0.907   7.180 -0.7477 -0.9508 -0.1571
   97SAPS  H16R 9678   1.861   0.994   7.180 -2.8585  0.7715 -1.2649
   97SAPS  H16S 9679   1.847   0.826   7.127 -2.3109  0.0066 -3.3992
   97SAPS  C217 9680   1.773   0.859   7.320  0.1464 -0.0308  0.1968
   97SAPS  H17R 9681   1.744   0.752   7.305  0.0286  0.1674 -1.0099
   97SAPS  H17S 9682   1.686   0.910   7.366 -0.6112 -1.2955  0.2133
   97SAPS  C218 9683   1.895   0.870   7.415  0.0736  0.0112  0.3995
   97SAPS  H18R 9684   1.916   0.979   7.413  6.0200 -0.9841 -0.8314
   97SAPS  H18S 9685   1.985   0.816   7.378  0.2465 -0.2065  1.1285
   97SAPS  C219 9686   1.870   0.808   7.550  0.0286  0.3982 -0.2965
   97SAPS  H19R 9687   1.830   0.704   7.545 -2.0180  1.1381  0.1129
   97SAPS  H19S 9688   1.786   0.864   7.595  0.4582  1.3973 -0.7316
   97SAPS  C220 9689   1.977   0.828   7.659  0.1979  0.0318 -0.2763
   97SAPS  H20R 9690   1.975   0.930   7.701  1.8841  0.9217 -2.2318
   97SAPS  H20S 9691   2.078   0.812   7.616  1.6406  3.3349  1.7937
   97SAPS  H20T 9692   1.961   0.758   7.743 -1.0318  1.2420  0.5101
   97SAPS   C33 9693   2.304   1.518   6.251 -0.1991  0.1197 -0.3182
   97SAPS   H3X 9694   2.261   1.579   6.169  1.3185  0.4376 -0.8867
   97SAPS   H3Y 9695   2.415   1.527   6.251 -0.1154 -0.8385  0.2930
   97SAPS   C34 9696   2.258   1.557   6.395  0.5114 -0.1292  0.1590
   97SAPS   H4X 9697   2.317   1.504   6.472 -1.5010  0.2347  1.9772
   97SAPS   H4Y 9698   2.154   1.523   6.415  0.5819 -1.5538 -1.7686
   97SAPS   C35 9699   2.265   1.708   6.419 -0.1333  0.4502  0.5148
   97SAPS   H5X 9700   2.214   1.752   6.330  0.2183  1.7128  0.9332
   97SAPS   H5Y 9701   2.367   1.753   6.428 -0.0462  0.1881  0.8134
   97SAPS   C36 9702   2.179   1.750   6.539  0.8958  0.8911 -0.7270
   97SAPS   H6X 9703   2.073   1.721   6.521 -0.0365  3.8710 -0.4253
   97SAPS   H6Y 9704   2.167   1.860   6.548 -0.8956  0.8142 -1.8617
   97SAPS   C37 9705   2.224   1.690   6.671  0.0246  0.6183 -0.1572
   97SAPS   H7X 9706   2.328   1.721   6.695  0.1064  1.4895 -1.6243
   97SAPS   H7Y 9707   2.229   1.579   6.668 -0.3971  0.6129 -1.0555
   97SAPS   C38 9708   2.154   1.754   6.794 -0.2594 -0.3725  0.7277
   97SAPS   H8X 9709   2.044   1.742   6.781 -0.2199 -0.0555  0.0799
   97SAPS   H8Y 9710   2.175   1.863   6.801 -0.1940 -0.2747 -0.8560
   97SAPS   C39 9711   2.188   1.688   6.921 -0.6658 -0.5361  0.2098
   97SAPS   H9X 9712   2.169   1.761   7.003 -0.0410 -2.0765  1.7652
   97SAPS   H9Y 9713   2.296   1.664   6.928 -0.1710  0.8365 -2.3507
   97SAPS  C310 9714   2.101   1.566   6.953  0.1997  0.4205 -0.2001
   97SAPS  H10X 9715   2.143   1.484   6.891  0.6444  0.0313  0.6186
   97SAPS  H10Y 9716   2.001   1.587   6.907  0.4637 -0.7854 -1.3660
   97SAPS  C311 9717   2.090   1.517   7.095  0.4164 -0.2808 -0.5027
   97SAPS  H11X 9718   2.061   1.593   7.171  2.0657  0.1394 -0.2815
   97SAPS  H11Y 9719   2.194   1.482   7.109  1.1207  1.3929 -1.3998
   97SAPS  C312 9720   1.987   1.409   7.092  0.2590  0.2768  0.2557
   97SAPS  H12X 9721   2.027   1.320   7.039  0.3492  0.0007  0.7829
   97SAPS  H12Y 9722   1.894   1.441   7.041 -0.1883  0.2481  1.0415
   97SAPS  C313 9723   1.945   1.377   7.242 -0.2880  0.3748 -0.4560
   97SAPS  H13X 9724   1.892   1.281   7.227  0.7327 -0.1365 -0.8090
   97SAPS  H13Y 9725   1.866   1.445   7.279 -0.3858 -0.8354  1.6134
   97SAPS  C314 9726   2.065   1.372   7.334 -0.2474 -0.3916  0.7144
   97SAPS  H14X 9727   2.089   1.472   7.377 -1.7542  0.4936 -0.4642
   97SAPS  H14Y 9728   2.152   1.322   7.287 -0.1648  0.0262  0.4160
   97SAPS  C315 9729   2.026   1.281   7.456  0.0269 -0.7731  0.2222
   97SAPS  H15X 9730   2.003   1.181   7.415 -1.2472 -0.2663 -0.3415
   97SAPS  H15Y 9731   1.938   1.330   7.502 -0.2202  1.0442 -2.0673
   97SAPS  C316 9732   2.145   1.267   7.556  0.0796  0.3177 -0.1617
   97SAPS  H16X 9733   2.190   1.368   7.572 -0.1229  0.5178 -0.8531
   97SAPS  H16Y 9734   2.221   1.202   7.507 -0.1376 -0.4301  0.4799
   97SAPS  C317 9735   2.111   1.197   7.698  0.2562  0.2016  0.2607
   97SAPS  H17X 9736   2.031   1.122   7.676  1.6540 -1.5149  0.9471
   97SAPS  H17Y 9737   2.048   1.269   7.754 -0.4231 -1.9749  2.3555
   97SAPS  C318 9738   2.226   1.133   7.782 -0.3547  0.3536 -0.4487
   97SAPS  H18X 9739   2.268   1.042   7.736  1.7042 -0.1351  2.2800
   97SAPS  H18Y 9740   2.194   1.097   7.882  3.0702 -1.8951 -0.0974
   97SAPS  H18Z 9741   2.302   1.212   7.797  0.3661 -0.8186  2.3427
   98SAPS     N 9742   0.720   3.149   6.077  0.7000  0.4382 -0.1024
   98SAPS   HN1 9743   0.765   3.060   6.106  0.8134  0.2867 -0.7195
   98SAPS   HN2 9744   0.788   3.226   6.088  0.3973  0.4290  1.9872
   98SAPS   HN3 9745   0.651   3.155   6.154  0.4043 -2.2684 -0.1232
   98SAPS   C12 9746   0.652   3.127   5.955 -0.6982 -0.4716 -0.6036
   98SAPS  H12A 9747   0.615   3.225   5.927  0.7955  0.1712 -0.4424
   98SAPS   C13 9748   0.741   3.077   5.839 -0.1135  0.2062 -0.6233
   98SAPS  O13A 9749   0.856   3.030   5.855 -0.4219  0.0156  0.0789
   98SAPS  O13B 9750   0.669   3.048   5.738  0.1349 -0.0812  0.3152
   98SAPS   C11 9751   0.536   3.030   5.979 -0.4048  0.1077 -0.2939
   98SAPS  H11A 9752   0.565   2.924   5.994 -0.2912  0.0617 -0.8324
   98SAPS  H11B 9753   0.482   3.038   5.883  1.5250 -1.4272 -1.5398
   98SAPS     P 9754   0.323   2.999   6.123 -0.2044  0.4184  0.6196
   98SAPS   O13 9755   0.206   3.091   6.127  0.1167  0.0374  0.1095
   98SAPS   O14 9756   0.307   2.888   6.028 -0.2296 -0.2764  0.0562
   98SAPS   O12 9757   0.454   3.074   6.087  0.9826  0.3755 -0.2488
   98SAPS   O11 9758   0.360   2.933   6.260  0.2216 -0.3803 -0.4544
   98SAPS    C1 9759   0.452   2.823   6.249  0.0886 -0.5029 -0.0534
   98SAPS    HA 9760   0.397   2.736   6.207  0.9993 -0.2727 -1.7676
   98SAPS    HB 9761   0.539   2.855   6.188  2.8153 -0.7218  3.5973
   98SAPS    C2 9762   0.502   2.782   6.390 -0.3053 -0.2049  0.6498
   98SAPS    HS 9763   0.590   2.714   6.381 -0.4795 -0.3412 -0.0354
   98SAPS   O21 9764   0.396   2.720   6.467  0.5363  0.0771  0.8375
   98SAPS   C21 9765   0.342   2.619   6.417 -0.1228  0.2151 -0.0758
   98SAPS   O22 9766   0.388   2.545   6.328 -0.5662 -0.2552  0.0334
   98SAPS   C22 9767   0.204   2.592   6.488 -0.3014 -0.1861 -0.1949
   98SAPS   H2R 9768   0.213   2.619   6.595 -2.1984 -0.8889  0.1533
   98SAPS   H2S 9769   0.133   2.658   6.434 -2.0861 -2.2066 -0.3755
   98SAPS    C3 9770   0.548   2.903   6.472 -0.1025 -0.2516  0.3659
   98SAPS    HX 9771   0.463   2.965   6.507 -0.3995  0.4747 -1.5831
   98SAPS    HY 9772   0.620   2.956   6.406 -0.0368 -1.0892 -0.2363
   98SAPS   O31 9773   0.629   2.861   6.589  0.3934 -0.0875 -0.5032
   98SAPS   C31 9774   0.756   2.883   6.592  0.3164 -0.1764  0.1218
   98SAPS   O32 9775   0.841   2.909   6.510 -0.0184  0.4130  0.2292
   98SAPS   C32 9776   0.803   2.853   6.739  0.2006 -0.2645  0.4665
   98SAPS   H2X 9777   0.907   2.891   6.738  0.1857  0.0523  3.5577
   98SAPS   H2Y 9778   0.800   2.742   6.737  0.4412 -0.2555 -0.8362
   98SAPS   C23 9779   0.144   2.450   6.470  0.3796 -1.0542  0.2247
   98SAPS   H3R 9780   0.224   2.386   6.513  0.0323 -1.4010  0.3526
   98SAPS   H3S 9781   0.137   2.428   6.362 -0.0622 -0.8835  0.2190
   98SAPS   C24 9782   0.008   2.431   6.541 -0.3316  0.4708 -0.0577
   98SAPS   H4R 9783   0.013   2.494   6.633 -0.4889 -0.3091  0.4913
   98SAPS   H4S 9784   0.001   2.324   6.569  1.9112  0.4668  0.6126
   98SAPS   C25 9785  -0.116   2.468   6.463 -0.6455  0.4549  0.1340
   98SAPS   H5R 9786  -0.122   2.421   6.364 -0.3572 -0.5235  0.5701
   98SAPS   C26 9787  -0.220   2.543   6.503 -0.0379  0.6139  0.2940
   98SAPS   H6R 9788  -0.298   2.564   6.429 -0.8254 -3.9453 -0.2728
   98SAPS   C27 9789  -0.233   2.614   6.641  0.0810 -0.0694 -0.0487
   98SAPS   H7R 9790  -0.176   2.709   6.635  0.4335 -0.1743  1.4157
   98SAPS   H7S 9791  -0.192   2.557   6.727  0.8114  0.6691  0.0933
   98SAPS   C28 9792  -0.377   2.636   6.674 -0.0093 -0.1582  0.2766
   98SAPS   H8R 9793  -0.454   2.603   6.602  0.0539 -4.1971  1.8973
   98SAPS   C29 9794  -0.416   2.690   6.788  0.1371  0.1553  0.1055
   98SAPS   H9R 9795  -0.522   2.714   6.806 -0.1902 -0.1769 -1.3403
   98SAPS  C210 9796  -0.320   2.730   6.894  0.3049  0.0109 -0.4562
   98SAPS  H10R 9797  -0.297   2.837   6.878  2.6333 -0.2502  0.8114
   98SAPS  H10S 9798  -0.220   2.681   6.895  0.6596  0.7341 -0.2598
   98SAPS  C211 9799  -0.383   2.698   7.027  0.3622 -0.2709 -0.1964
   98SAPS  H11R 9800  -0.447   2.608   7.030 -1.3441  0.8739 -1.4938
   98SAPS  C212 9801  -0.362   2.764   7.141  0.0480  0.6867  0.4412
   98SAPS  H12R 9802  -0.395   2.721   7.237  2.2588 -0.5658  0.6760
   98SAPS  C213 9803  -0.268   2.880   7.148  0.0587  0.5900  0.2702
   98SAPS  H13R 9804  -0.259   2.949   7.061 -0.2493  0.1704 -0.0966
   98SAPS  H13S 9805  -0.167   2.834   7.151 -0.0468  0.2090 -1.2676
   98SAPS  C214 9806  -0.273   2.953   7.272  0.4511 -0.0713  0.3957
   98SAPS  H14R 9807  -0.338   2.915   7.352 -1.8053  1.2305 -0.7366
   98SAPS  C215 9808  -0.192   3.054   7.296  0.2800 -0.1989 -0.6488
   98SAPS  H15R 9809  -0.202   3.107   7.393  0.2723 -2.4401  0.6034
   98SAPS  C216 9810  -0.089   3.107   7.205 -0.3754  0.1890  0.4378
   98SAPS  H16R 9811  -0.074   3.213   7.237 -0.5129 -0.9122  4.3194
   98SAPS  H16S 9812  -0.122   3.105   7.099 -2.9323  0.6718  1.1799
   98SAPS  C217 9813   0.041   3.027   7.218 -0.0150 -0.6420  0.0863
   98SAPS  H17R 9814   0.110   3.051   7.134 -0.5588  0.1996 -0.1339
   98SAPS  H17S 9815   0.026   2.917   7.214 -3.4412 -0.2113 -0.5769
   98SAPS  C218 9816   0.106   3.049   7.355  0.1262 -0.5084  0.2640
   98SAPS  H18R 9817   0.036   3.066   7.439 -0.7698 -2.7043 -0.0019
   98SAPS  H18S 9818   0.159   3.144   7.332 -0.8088  0.5448  2.3873
   98SAPS  C219 9819   0.207   2.938   7.391 -0.1650 -0.0015 -1.3195
   98SAPS  H19R 9820   0.162   2.855   7.451  0.3466  0.9793  0.4705
   98SAPS  H19S 9821   0.276   2.983   7.466 -0.2378 -2.3555  0.2129
   98SAPS  C220 9822   0.284   2.872   7.281 -0.8523 -0.6787 -0.0908
   98SAPS  H20R 9823   0.332   2.944   7.212 -1.5225 -1.4456 -1.3808
   98SAPS  H20S 9824   0.218   2.807   7.219 -0.1324 -2.2213  0.7369
   98SAPS  H20T 9825   0.363   2.806   7.322 -0.5217  0.2170  0.7211
   98SAPS   C33 9826   0.720   2.923   6.853  0.0690 -0.5387 -0.0142
   98SAPS   H3X 9827   0.746   2.887   6.954  0.7021  0.8717  0.3382
   98SAPS   H3Y 9828   0.612   2.899   6.838  0.4125 -1.1263 -1.7190
   98SAPS   C34 9829   0.727   3.076   6.854 -0.3195 -0.2748 -0.3094
   98SAPS   H4X 9830   0.676   3.131   6.772 -1.3403 -1.6583 -0.6011
   98SAPS   H4Y 9831   0.835   3.101   6.856 -0.5299  0.5785  1.7491
   98SAPS   C35 9832   0.675   3.139   6.986  0.8281 -0.1891 -0.0256
   98SAPS   H5X 9833   0.708   3.245   6.978 -1.3472  0.4072 -1.4842
   98SAPS   H5Y 9834   0.738   3.096   7.068  1.4672  0.5561 -0.1126
   98SAPS   C36 9835   0.531   3.129   7.023  0.2875 -0.3347 -0.7069
   98SAPS   H6X 9836   0.502   3.026   7.054  0.5449  0.5083  2.5440
   98SAPS   H6Y 9837   0.483   3.142   6.924 -1.0095  1.1408  0.1053
   98SAPS   C37 9838   0.484   3.232   7.135 -0.3627  0.4937 -0.1227
   98SAPS   H7X 9839   0.374   3.221   7.145  0.0143 -2.5127  0.9954
   98SAPS   H7Y 9840   0.505   3.338   7.106 -0.5122  0.4906 -0.2441
   98SAPS   C38 9841   0.554   3.203   7.271 -0.4618  0.5240  0.1579
   98SAPS   H8X 9842   0.645   3.266   7.274  1.6982 -2.4955 -0.0630
   98SAPS   H8Y 9843   0.575   3.095   7.286 -2.4963  0.1020  0.0833
   98SAPS   C39 9844   0.461   3.255   7.379 -0.0545  0.1828 -0.2984
   98SAPS   H9X 9845   0.367   3.198   7.363  0.0735 -0.8239  2.2920
   98SAPS   H9Y 9846   0.438   3.359   7.348  1.9321  0.1615 -1.9436
   98SAPS  C310 9847   0.518   3.242   7.521 -0.1667 -0.0360  0.7566
   98SAPS  H10X 9848   0.617   3.292   7.512 -1.1502  1.7487 -0.6267
   98SAPS  H10Y 9849   0.536   3.133   7.533 -0.6018 -0.3567 -1.4730
   98SAPS  C311 9850   0.421   3.291   7.628 -0.6804  0.5934  0.1487
   98SAPS  H11X 9851   0.318   3.249   7.619  0.1726 -1.5907  0.5155
   98SAPS  H11Y 9852   0.405   3.401   7.615  1.2123  0.8320 -0.3347
   98SAPS  C312 9853   0.462   3.270   7.775 -0.6058  0.0233 -0.1151
   98SAPS  H12X 9854   0.569   3.294   7.790 -0.6764  0.1941  0.1287
   98SAPS  H12Y 9855   0.445   3.163   7.801 -0.4313  0.5594  2.2832
   98SAPS  C313 9856   0.375   3.354   7.871  0.4590 -0.1625 -0.5863
   98SAPS  H13X 9857   0.343   3.293   7.959  0.2192  0.6303 -0.1252
   98SAPS  H13Y 9858   0.282   3.380   7.817  0.4081  0.8539 -0.0223
   98SAPS  C314 9859   0.446   3.487   7.908  0.1090  0.6028 -0.0475
   98SAPS  H14X 9860   0.469   3.541   7.814 -0.0773  1.9794  0.6843
   98SAPS  H14Y 9861   0.545   3.476   7.958  0.1355  0.1766 -0.1920
   98SAPS  C315 9862   0.367   3.578   8.002  0.1291  0.5714  0.6788
   98SAPS  H15X 9863   0.355   3.538   8.106  0.1849  2.3444  1.3869
   98SAPS  H15Y 9864   0.261   3.582   7.967 -0.0392  0.6110  1.1855
   98SAPS  C316 9865   0.426   3.728   8.002 -0.8034  0.3098 -0.0974
   98SAPS  H16X 9866   0.536   3.717   7.995 -0.8066 -1.3259  1.7873
   98SAPS  H16Y 9867   0.402   3.779   8.098 -3.2820  2.2756 -1.6769
   98SAPS  C317 9868   0.378   3.808   7.884 -0.0947  0.4042  0.2950
   98SAPS  H17X 9869   0.271   3.834   7.892 -0.0746  0.3825  0.6415
   98SAPS  H17Y 9870   0.379   3.749   7.790 -0.0342  1.7327 -0.5480
   98SAPS  C318 9871   0.460   3.932   7.848 -0.5042 -0.7239 -0.1880
   98SAPS  H18X 9872   0.568   3.909   7.834 -0.5758  0.4376 -3.0549
   98SAPS  H18Y 9873   0.444   4.016   7.918  0.0706 -1.3385  0.6898
   98SAPS  H18Z 9874   0.429   3.969   7.748 -1.8104  3.5601  1.7000
   99SAPS     N 9875   5.802   7.116   5.963  0.6943  0.1810  0.8488
   99SAPS   HN1 9876   5.725   7.167   6.011  1.3667  0.1909  1.9453
   99SAPS   HN2 9877   5.764   7.063   5.882 -1.2371  0.5713  1.4817
   99SAPS   HN3 9878   5.850   7.047   6.024 -0.2631  0.1133  1.5252
   99SAPS   C12 9879   5.916   7.209   5.916  0.6579  0.2522  0.1497
   99SAPS  H12A 9880   5.988   7.151   5.860  1.0446  1.0962 -0.2227
   99SAPS   C13 9881   5.859   7.325   5.823  0.5634 -0.5592 -0.3229
   99SAPS  O13A 9882   5.740   7.359   5.830 -0.1730 -0.8705 -0.1218
   99SAPS  O13B 9883   5.947   7.406   5.788  0.0350 -0.4272 -0.0807
   99SAPS   C11 9884   5.981   7.284   6.042  0.1409  0.1784  0.2789
   99SAPS  H11A 9885   5.908   7.355   6.087 -0.3551 -0.7114  0.8776
   99SAPS  H11B 9886   6.053   7.362   6.009 -1.6773  1.1362 -1.6365
   99SAPS     P 9887   6.154   7.119   6.146  0.4212 -0.0771  0.4077
   99SAPS   O13 9888   6.132   6.994   6.225  0.2043 -0.6934  0.3890
   99SAPS   O14 9889   6.192   7.104   6.003  0.1052  0.0356 -0.0576
   99SAPS   O12 9890   6.021   7.203   6.153 -0.0093  0.3830  0.2264
   99SAPS   O11 9891   6.255   7.210   6.227  0.0657 -0.4419  0.6701
   99SAPS    C1 9892   6.232   7.226   6.371 -0.0833 -0.3491 -0.0412
   99SAPS    HA 9893   6.237   7.333   6.401 -0.8128 -0.0817 -0.8399
   99SAPS    HB 9894   6.130   7.195   6.403 -0.6394 -0.0526 -1.4478
   99SAPS    C2 9895   6.357   7.169   6.448  0.6882  0.2106  0.1893
   99SAPS    HS 9896   6.450   7.196   6.394  0.7555  0.2535  0.3264
   99SAPS   O21 9897   6.338   7.030   6.473 -0.4242 -0.9949 -0.4387
   99SAPS   C21 9898   6.398   6.954   6.388 -0.7052 -0.5859 -0.6683
   99SAPS   O22 9899   6.478   6.989   6.305  0.5970 -0.0572  0.2175
   99SAPS   C22 9900   6.358   6.812   6.412 -0.0936  0.2107 -0.2571
   99SAPS   H2R 9901   6.324   6.798   6.517 -1.8243  1.2274 -0.6534
   99SAPS   H2S 9902   6.261   6.798   6.360  0.4010  1.0901 -1.4495
   99SAPS    C3 9903   6.381   7.248   6.580  0.2853  0.3619  0.1507
   99SAPS    HX 9904   6.427   7.346   6.554  0.4433  0.6785  1.6110
   99SAPS    HY 9905   6.453   7.195   6.644 -1.2928  0.9414  2.4679
   99SAPS   O31 9906   6.256   7.266   6.653  0.0741  0.7359 -1.1327
   99SAPS   C31 9907   6.261   7.300   6.786  0.3675 -0.4343  0.1089
   99SAPS   O32 9908   6.360   7.321   6.850 -0.4911 -0.6067  0.0332
   99SAPS   C32 9909   6.126   7.270   6.855  0.2376 -0.6491 -0.1732
   99SAPS   H2X 9910   6.104   7.167   6.821 -0.5958 -0.6094  0.2491
   99SAPS   H2Y 9911   6.057   7.348   6.816  1.3234 -0.4742 -1.8316
   99SAPS   C23 9912   6.462   6.701   6.377  0.1866 -0.1723 -1.1605
   99SAPS   H3R 9913   6.498   6.718   6.273 -0.9422  1.1039 -1.3573
   99SAPS   H3S 9914   6.418   6.599   6.369  1.2025 -0.7755  0.6413
   99SAPS   C24 9915   6.561   6.670   6.502  0.4796 -1.1889  0.6602
   99SAPS   H4R 9916   6.590   6.773   6.533 -0.9435 -1.0362  1.5522
   99SAPS   H4S 9917   6.646   6.606   6.471  0.7284 -0.7998  0.5242
   99SAPS   C25 9918   6.493   6.603   6.621 -0.0108 -0.2109 -0.1534
   99SAPS   H5R 9919   6.442   6.508   6.599 -0.5474 -0.1432  0.7803
   99SAPS   C26 9920   6.481   6.647   6.750  0.5907  0.6105  0.5478
   99SAPS   H6R 9921   6.436   6.577   6.822 -0.4537  1.2505  0.5257
   99SAPS   C27 9922   6.540   6.780   6.797  0.1196  0.3618  0.1208
   99SAPS   H7R 9923   6.631   6.795   6.735 -0.5148 -0.7734 -1.1248
   99SAPS   H7S 9924   6.572   6.762   6.902  1.9324 -0.0787 -0.5016
   99SAPS   C28 9925   6.443   6.902   6.793 -0.2994  0.3990 -0.3546
   99SAPS   H8R 9926   6.356   6.906   6.726 -1.5155  0.2641  1.1917
   99SAPS   C29 9927   6.457   7.007   6.875 -0.2131 -0.0153  0.4435
   99SAPS   H9R 9928   6.376   7.081   6.889 -0.4526 -0.1826 -0.0537
   99SAPS  C210 9929   6.556   7.047   6.977  0.0740  0.3617  0.0234
   99SAPS  H10R 9930   6.623   7.127   6.937  0.8658 -0.3577 -0.0940
   99SAPS  H10S 9931   6.627   6.964   6.995 -1.3584 -1.0829 -0.8486
   99SAPS  C211 9932   6.507   7.091   7.111  0.6876  0.0332 -0.1919
   99SAPS  H11R 9933   6.528   7.197   7.131  0.2983  0.2681 -1.0036
   99SAPS  C212 9934   6.426   7.025   7.202  0.0678 -0.1745  0.6573
   99SAPS  H12R 9935   6.390   7.074   7.293  1.3466  1.3691  0.3671
   99SAPS  C213 9936   6.371   6.891   7.181  0.2945  0.1171  0.3430
   99SAPS  H13R 9937   6.397   6.842   7.277  0.8463 -2.0394 -0.8617
   99SAPS  H13S 9938   6.433   6.837   7.106 -1.3124 -1.7538  0.3128
   99SAPS  C214 9939   6.224   6.879   7.146 -0.1683  0.5431 -0.0780
   99SAPS  H14R 9940   6.205   6.924   7.048  2.5703  1.4227 -0.2402
   99SAPS  C215 9941   6.126   6.828   7.219 -0.9337 -0.3781  0.0697
   99SAPS  H15R 9942   6.024   6.831   7.178 -0.9469 -0.7247  0.0708
   99SAPS  C216 9943   6.139   6.770   7.356 -0.4579 -0.2813 -0.2252
   99SAPS  H16R 9944   6.230   6.708   7.370 -0.5522 -0.2415  0.5903
   99SAPS  H16S 9945   6.050   6.704   7.364  0.0779 -0.7888  1.9018
   99SAPS  C217 9946   6.135   6.873   7.472 -0.1614  0.5508 -0.6136
   99SAPS  H17R 9947   6.063   6.955   7.450 -0.9264  0.8739  2.7782
   99SAPS  H17S 9948   6.227   6.935   7.461 -1.4492  2.5722 -0.3052
   99SAPS  C218 9949   6.102   6.816   7.606  0.1774 -0.2781 -0.1132
   99SAPS  H18R 9950   6.193   6.751   7.611  0.1749 -0.4658 -2.1896
   99SAPS  H18S 9951   6.015   6.747   7.611  1.2912 -1.6193  1.8496
   99SAPS  C219 9952   6.100   6.928   7.711  0.0903  0.2392  0.3266
   99SAPS  H19R 9953   6.043   7.013   7.667  0.4853  0.3892  0.0893
   99SAPS  H19S 9954   6.208   6.957   7.716  0.2468 -0.2692 -0.0376
   99SAPS  C220 9955   6.064   6.874   7.855  0.0637 -0.2978  0.2092
   99SAPS  H20R 9956   6.145   6.806   7.891 -0.1486 -1.2901 -1.1594
   99SAPS  H20S 9957   5.965   6.823   7.854 -0.1569  0.0961  1.2166
   99SAPS  H20T 9958   6.063   6.965   7.919 -0.5761 -0.0161 -0.1997
   99SAPS   C33 9959   6.141   7.276   7.011  0.3002  0.6427  0.1833
   99SAPS   H3X 9960   6.171   7.379   7.041 -0.7876  1.3335 -1.0406
   99SAPS   H3Y 9961   6.212   7.206   7.059  2.6503  1.9649 -1.3158
   99SAPS   C34 9962   5.996   7.248   7.073  0.0003  0.9465  0.7533
   99SAPS   H4X 9963   5.961   7.146   7.044  1.8533  0.4024  0.3563
   99SAPS   H4Y 9964   5.931   7.335   7.051 -0.9663  0.5998  2.2078
   99SAPS   C35 9965   5.989   7.251   7.228  0.5157  0.1858  0.1210
   99SAPS   H5X 9966   6.025   7.158   7.277  2.0212  1.3403  1.2538
   99SAPS   H5Y 9967   5.883   7.273   7.253  0.2402  1.2327 -1.8458
   99SAPS   C36 9968   6.079   7.351   7.296  1.0813 -0.9129 -0.7138
   99SAPS   H6X 9969   6.057   7.457   7.270 -0.3901 -1.0810 -0.2014
   99SAPS   H6Y 9970   6.187   7.335   7.276  0.9406  1.2385 -3.6351
   99SAPS   C37 9971   6.067   7.334   7.447 -0.4202  0.2073  0.6275
   99SAPS   H7X 9972   6.125   7.249   7.490  0.4627  0.3772 -0.2052
   99SAPS   H7Y 9973   5.965   7.296   7.469 -0.4908  0.6336  1.0328
   99SAPS   C38 9974   6.093   7.465   7.520 -0.4296 -0.0630 -0.3789
   99SAPS   H8X 9975   6.041   7.554   7.477  0.4790 -0.0783 -1.5191
   99SAPS   H8Y 9976   6.197   7.485   7.489 -0.2042 -0.3543  0.1805
   99SAPS   C39 9977   6.065   7.461   7.675  0.3084 -0.2845  0.7129
   99SAPS   H9X 9978   5.964   7.416   7.692  1.2257 -1.9734  1.8112
   99SAPS   H9Y 9979   6.072   7.566   7.710  1.8664 -0.0420 -0.3007
   99SAPS  C310 9980   6.163   7.385   7.764 -0.5615  0.1270  0.2739
   99SAPS  H10X 9981   6.149   7.276   7.744 -1.5836  0.1186  1.0077
   99SAPS  H10Y 9982   6.125   7.400   7.867 -1.9729  3.5431 -0.6790
   99SAPS  C311 9983   6.307   7.432   7.748  0.1142 -0.2484 -0.1387
   99SAPS  H11X 9984   6.347   7.447   7.646 -1.5045  0.3235 -0.6992
   99SAPS  H11Y 9985   6.367   7.350   7.793  0.9195  1.8193  2.7281
   99SAPS  C312 9986   6.330   7.553   7.843  0.6473 -0.3478  0.1992
   99SAPS  H12X 9987   6.290   7.523   7.942 -1.6933  1.0457 -0.2954
   99SAPS  H12Y 9988   6.284   7.636   7.786  0.3268 -0.2682  0.5729
   99SAPS  C313 9989   6.479   7.590   7.871  0.5067  0.5675  0.1288
   99SAPS  H13X 9990   6.532   7.509   7.926  1.0111 -0.2414 -1.5249
   99SAPS  H13Y 9991   6.475   7.683   7.931 -0.0505  1.5125 -1.3444
   99SAPS  C314 9992   6.555   7.623   7.738  0.7659  0.6437 -0.4025
   99SAPS  H14X 9993   6.483   7.684   7.681 -1.1242 -1.8184 -0.7198
   99SAPS  H14Y 9994   6.570   7.528   7.682 -0.7183 -0.1294  0.4827
   99SAPS  C315 9995   6.695   7.674   7.764 -0.4612  0.3046 -0.2106
   99SAPS  H15X 9996   6.754   7.608   7.832 -0.1697 -1.0559 -1.7460
   99SAPS  H15Y 9997   6.691   7.772   7.816  0.6779 -0.4682  1.3583
   99SAPS  C316 9998   6.778   7.691   7.639  0.1954 -0.0592  0.0784
   99SAPS  H16X 9999   6.739   7.771   7.573  3.0141  1.0671 -0.3022
   99SAPS  H16Y10000   6.793   7.599   7.579  0.7791 -0.5149  0.9255
   99SAPS  C31710001   6.920   7.742   7.651  0.1937 -0.1391 -0.2984
   99SAPS  H17X10002   6.932   7.843   7.695  0.5573 -0.4298  0.2613
   99SAPS  H17Y10003   6.970   7.757   7.553 -1.0605  1.8661 -0.6683
   99SAPS  C31810004   7.002   7.638   7.724  0.4295 -0.4179  0.3630
   99SAPS  H18X10005   7.108   7.668   7.710  0.6986 -0.6073  1.9820
   99SAPS  H18Y10006   6.987   7.543   7.667  1.7257 -0.8136  0.6664
   99SAPS  H18Z10007   6.984   7.621   7.832  1.3068 -0.0324  0.5674
  100SAPS     N10008   1.498   0.347   5.746  0.0859 -0.4221 -0.5548
  100SAPS   HN110009   1.468   0.259   5.699 -0.5956  0.1128 -1.1355
  100SAPS   HN210010   1.405   0.388   5.766  0.9179  0.0080  2.8167
  100SAPS   HN310011   1.528   0.427   5.686 -1.0776  1.1972  0.9700
  100SAPS   C1210012   1.582   0.351   5.866 -0.0763  0.2071 -0.6460
  100SAPS  H12A10013   1.674   0.299   5.844  0.8408  1.5746 -0.1294
  100SAPS   C1310014   1.618   0.498   5.910  0.2166 -0.7624 -0.3903
  100SAPS  O13A10015   1.555   0.596   5.862  0.6541 -0.5666  0.2338
  100SAPS  O13B10016   1.695   0.510   6.012  0.0467 -1.0871 -0.0054
  100SAPS   C1110017   1.506   0.286   5.979  0.2110  0.1145 -0.5350
  100SAPS  H11A10018   1.414   0.342   6.007  0.6929  0.3582  0.6240
  100SAPS  H11B10019   1.566   0.292   6.073  2.0680  2.6672 -1.8245
  100SAPS     P10020   1.337   0.081   5.982 -0.1009 -0.5833  0.1196
  100SAPS   O1310021   1.227   0.165   5.944 -0.1461 -0.3989 -0.2501
  100SAPS   O1410022   1.336  -0.053   5.923  0.2821 -0.2905 -0.3799
  100SAPS   O1210023   1.480   0.147   5.958 -0.5773 -0.1734  0.6540
  100SAPS   O1110024   1.335   0.060   6.137 -0.9648 -0.1398 -0.5826
  100SAPS    C110025   1.452   0.052   6.223  0.5272  0.4804  0.3095
  100SAPS    HA10026   1.538   0.003   6.173 -0.2106  0.3592 -0.8855
  100SAPS    HB10027   1.475   0.157   6.249 -0.6054  0.4748  1.3791
  100SAPS    C210028   1.408  -0.017   6.361 -0.8333 -0.8797  0.1938
  100SAPS    HS10029   1.485  -0.004   6.440  0.3698  1.3999 -1.3204
  100SAPS   O2110030   1.369  -0.152   6.348 -0.4024  0.4373 -0.7628
  100SAPS   C2110031   1.471  -0.231   6.336  0.5169 -0.6060 -0.0111
  100SAPS   O2210032   1.586  -0.197   6.324 -0.4357 -0.2830 -0.3489
  100SAPS   C2210033   1.414  -0.376   6.340 -0.1157  0.0275  0.2290
  100SAPS   H2R10034   1.303  -0.373   6.332 -0.4619 -1.9874  3.1654
  100SAPS   H2S10035   1.459  -0.437   6.259 -0.4400 -0.6733  0.5613
  100SAPS    C310036   1.287   0.060   6.419  0.5306  0.3920 -0.2206
  100SAPS    HX10037   1.196   0.024   6.367 -0.6672 -0.8181  2.6265
  100SAPS    HY10038   1.295   0.170   6.404 -0.0268  0.5642  0.7347
  100SAPS   O3110039   1.244   0.021   6.552 -0.1535  0.9492 -0.7822
  100SAPS   C3110040   1.315   0.089   6.647  0.4445  0.3610  0.0283
  100SAPS   O3210041   1.408   0.170   6.623 -0.1568  0.0370  0.1884
  100SAPS   C3210042   1.261   0.045   6.791  0.0009  0.2319 -0.3259
  100SAPS   H2X10043   1.297  -0.058   6.813 -2.3640 -0.1683  1.9820
  100SAPS   H2Y10044   1.150   0.044   6.781 -0.1998 -0.4318  1.7458
  100SAPS   C2310045   1.466  -0.446   6.470  0.7876 -0.0193  0.5299
  100SAPS   H3R10046   1.576  -0.440   6.452  0.4332 -3.2137 -3.4181
  100SAPS   H3S10047   1.435  -0.552   6.480  0.8842 -0.0710  0.2702
  100SAPS   C2410048   1.417  -0.387   6.596  0.6178  0.1086  0.6869
  100SAPS   H4R10049   1.312  -0.414   6.618  0.4039  0.9295  0.7054
  100SAPS   H4S10050   1.413  -0.276   6.585  1.0719  0.0200 -0.5168
  100SAPS   C2510051   1.494  -0.415   6.720  0.5027 -0.3761  0.4229
  100SAPS   H5R10052   1.507  -0.519   6.754  0.9343  0.1055  1.7527
  100SAPS   C2610053   1.565  -0.333   6.800 -0.2274  0.9634  0.6291
  100SAPS   H6R10054   1.626  -0.374   6.881 -0.3790 -3.1767 -1.2340
  100SAPS   C2710055   1.576  -0.184   6.771 -1.2040  0.2902 -0.6627
  100SAPS   H7R10056   1.563  -0.128   6.866  0.9641 -0.5835  0.1827
  100SAPS   H7S10057   1.500  -0.153   6.696 -0.6820  1.0004 -0.9053
  100SAPS   C2810058   1.708  -0.150   6.712 -0.4783 -0.3016 -0.1709
  100SAPS   H8R10059   1.755  -0.229   6.651 -1.2606  0.0944 -1.3072
  100SAPS   C2910060   1.773  -0.034   6.723 -0.3735  0.4591  0.0581
  100SAPS   H9R10061   1.862  -0.018   6.661  0.5453  0.8069  1.4498
  100SAPS  C21010062   1.720   0.088   6.793 -0.0577  0.0803  0.1073
  100SAPS  H10R10063   1.610   0.080   6.807  0.1482  2.7530  4.0893
  100SAPS  H10S10064   1.740   0.183   6.739 -3.0005  1.1358  0.7469
  100SAPS  C21110065   1.780   0.115   6.930  0.3712  0.5039  0.6260
  100SAPS  H11R10066   1.803   0.027   6.991 -0.6463 -0.2134 -0.0081
  100SAPS  C21210067   1.785   0.238   6.992  0.7570  0.1808  0.1302
  100SAPS  H12R10068   1.832   0.235   7.092 -1.1121 -0.3943  1.0152
  100SAPS  C21310069   1.724   0.366   6.935 -0.0556 -0.4225 -0.2962
  100SAPS  H13R10070   1.615   0.361   6.915  0.0495  0.6928 -1.2128
  100SAPS  H13S10071   1.769   0.383   6.835  3.2409 -0.4062  1.1362
  100SAPS  C21410072   1.736   0.476   7.035 -0.5243  0.1723  0.5630
  100SAPS  H14R10073   1.838   0.499   7.068  0.4571  1.0270 -2.8118
  100SAPS  C21510074   1.634   0.553   7.083 -0.1644  0.1716 -1.0274
  100SAPS  H15R10075   1.663   0.629   7.157 -0.7463  0.4971 -1.1231
  100SAPS  C21610076   1.485   0.553   7.050  0.5760 -0.1304  0.4098
  100SAPS  H16R10077   1.489   0.495   6.956  2.5617  0.9098 -0.1714
  100SAPS  H16S10078   1.454   0.648   7.001 -0.3415  0.0312  1.2771
  100SAPS  C21710079   1.384   0.518   7.158 -0.5748  0.4091 -0.2364
  100SAPS  H17R10080   1.404   0.416   7.198  0.7009  0.5114 -0.5710
  100SAPS  H17S10081   1.283   0.508   7.113 -0.8814 -2.2680  0.9825
  100SAPS  C21810082   1.375   0.626   7.272  0.0465 -0.5007 -0.3730
  100SAPS  H18R10083   1.353   0.726   7.229  0.3656 -0.1694  0.2351
  100SAPS  H18S10084   1.470   0.641   7.328  1.3477 -0.5143 -2.5038
  100SAPS  C21910085   1.262   0.587   7.369  0.0424 -0.4067  0.1445
  100SAPS  H19R10086   1.302   0.516   7.444  0.7659  2.1066  2.2021
  100SAPS  H19S10087   1.180   0.543   7.309 -1.3409 -0.5160  2.0596
  100SAPS  C22010088   1.194   0.708   7.438  0.1316  0.1518  0.3424
  100SAPS  H20R10089   1.154   0.763   7.350  0.3932  2.9307  1.8916
  100SAPS  H20S10090   1.282   0.761   7.481  0.3836  0.1349 -0.1399
  100SAPS  H20T10091   1.119   0.690   7.518 -0.0315  1.7643  0.5768
  100SAPS   C3310092   1.296   0.139   6.912 -0.0979 -0.8641 -0.2447
  100SAPS   H3X10093   1.212   0.211   6.917 -0.6171 -1.5718  1.2882
  100SAPS   H3Y10094   1.401   0.175   6.899 -0.3016 -0.8246 -1.9910
  100SAPS   C3410095   1.296   0.064   7.051 -0.4376  0.2667  0.3373
  100SAPS   H4X10096   1.256  -0.039   7.051 -1.2692  0.5834 -1.2652
  100SAPS   H4Y10097   1.228   0.115   7.123 -3.5148  1.4253 -3.2371
  100SAPS   C3510098   1.441   0.065   7.100 -0.1807 -0.4246 -0.8791
  100SAPS   H5X10099   1.485   0.164   7.077  0.0841 -0.5200 -0.7882
  100SAPS   H5Y10100   1.502  -0.001   7.035  1.9334  0.8058 -0.1933
  100SAPS   C3610101   1.465   0.035   7.245  0.0734  0.6388  0.4339
  100SAPS   H6X10102   1.572   0.010   7.258  0.0753  0.6475  0.4333
  100SAPS   H6Y10103   1.402  -0.048   7.285  0.8695  1.5400  3.7347
  100SAPS   C3710104   1.434   0.149   7.342 -0.3470 -0.1791  0.2482
  100SAPS   H7X10105   1.340   0.201   7.314  0.4578  0.2604 -1.7519
  100SAPS   H7Y10106   1.512   0.225   7.319  0.4488 -1.2550 -0.6933
  100SAPS   C3810107   1.442   0.109   7.491 -0.1813 -0.2855 -0.2393
  100SAPS   H8X10108   1.533   0.047   7.506  0.8860  1.7610  2.0484
  100SAPS   H8Y10109   1.347   0.054   7.509 -1.1301  1.8378  1.4835
  100SAPS   C3910110   1.452   0.215   7.600 -0.1228  0.2464 -0.3847
  100SAPS   H9X10111   1.476   0.163   7.695 -1.2190  2.5794  1.2135
  100SAPS   H9Y10112   1.357   0.273   7.606 -0.1396  0.1147  0.7614
  100SAPS  C31010113   1.554   0.323   7.569  1.1013 -0.8081 -0.6303
  100SAPS  H10X10114   1.558   0.395   7.653  0.3199 -2.2971  0.7014
  100SAPS  H10Y10115   1.519   0.382   7.482 -0.7270  0.9929  1.2923
  100SAPS  C31110116   1.699   0.273   7.536  0.8151 -0.0482  0.4108
  100SAPS  H11X10117   1.708   0.266   7.426 -1.5250 -1.0064  0.2510
  100SAPS  H11Y10118   1.729   0.174   7.578 -0.0410 -0.0081  1.1257
  100SAPS  C31210119   1.799   0.372   7.579 -1.5052 -0.0052  0.2868
  100SAPS  H12X10120   1.798   0.412   7.683  1.2967  0.7972  0.0506
  100SAPS  H12Y10121   1.793   0.458   7.509 -1.9157 -0.7310 -0.5804
  100SAPS  C31310122   1.941   0.309   7.559  0.0251  0.1696 -0.3823
  100SAPS  H13X10123   1.957   0.269   7.456  0.5686 -0.8913  0.1055
  100SAPS  H13Y10124   1.954   0.225   7.631 -0.4622 -0.0771 -0.5792
  100SAPS  C31410125   2.052   0.407   7.576 -0.0620 -0.2233 -0.6096
  100SAPS  H14X10126   2.068   0.436   7.682  2.1065  0.2541 -1.0428
  100SAPS  H14Y10127   2.028   0.505   7.530  1.5006  1.5135  2.1617
  100SAPS  C31510128   2.192   0.360   7.525 -0.2310 -0.0527  0.6973
  100SAPS  H15X10129   2.195   0.329   7.419 -0.1402 -0.7793  0.9099
  100SAPS  H15Y10130   2.215   0.268   7.582 -0.7362 -0.4341  0.2879
  100SAPS  C31610131   2.299   0.474   7.551 -0.7011  0.1006 -0.0353
  100SAPS  H16X10132   2.268   0.506   7.653  0.6008 -1.2918  0.8244
  100SAPS  H16Y10133   2.290   0.553   7.474  1.4169 -0.3606 -0.8060
  100SAPS  C31710134   2.440   0.416   7.546  0.1544  0.4624  0.3713
  100SAPS  H17X10135   2.454   0.331   7.617 -0.7283  0.0752  0.0955
  100SAPS  H17Y10136   2.506   0.499   7.578 -1.9103  1.5702  1.9321
  100SAPS  C31810137   2.485   0.383   7.400  0.1698 -0.4885 -0.0959
  100SAPS  H18X10138   2.437   0.285   7.381  0.2115 -0.1890 -1.7942
  100SAPS  H18Y10139   2.593   0.363   7.416 -0.0091 -0.1277  1.6885
  100SAPS  H18Z10140   2.464   0.462   7.325  1.9124 -0.1664 -0.2630
  101OSM      N10141   3.932   2.424  10.334  0.3374  0.3584 -0.5872
  101OSM    C1510142   3.930   2.319  10.450  0.7095  0.1967 -0.4525
  101OSM   H15A10143   3.918   2.217  10.417 -3.8871 -0.9407  4.1784
  101OSM   H15B10144   3.840   2.327  10.509 -0.0376 -1.9646 -1.2288
  101OSM   H15C10145   4.024   2.316  10.502  0.0068  1.0400  0.8901
  101OSM    C1410146   4.045   2.390  10.253  0.3252 -0.7315 -0.1130
  101OSM   H14A10147   4.052   2.464  10.174 -2.0880  1.5284  1.6983
  101OSM   H14B10148   4.041   2.298  10.198 -0.3303 -0.6926 -0.1293
  101OSM   H14C10149   4.141   2.390  10.303  0.2977  2.0441  0.0246
  101OSM    C1310150   3.805   2.403  10.247 -0.1055  0.8438 -0.2311
  101OSM   H13A10151   3.825   2.325  10.175  0.7496  0.5438  0.3217
  101OSM   H13B10152   3.790   2.489  10.183  1.4629  1.4911  0.2387
  101OSM   H13C10153   3.716   2.378  10.302  0.0507  2.7357  0.9226
  101OSM    C1210154   3.933   2.562  10.387  0.5066  0.2264 -0.1154
  101OSM   H12A10155   4.031   2.554  10.433  1.3415  0.5962 -1.7852
  101OSM   H12B10156   3.843   2.575  10.445 -0.5641  1.1710 -1.9143
  101OSM    C1110157   3.933   2.690  10.299 -0.2527  0.1857 -0.2222
  101OSM   H11A10158   4.043   2.707  10.302 -0.1962  0.0215 -1.0726
  101OSM   H11B10159   3.876   2.768  10.353  2.2326  1.4962  0.6123
  101OSM      P10160   3.878   2.772  10.070 -0.0570 -0.2783 -0.4427
  101OSM    O1310161   3.780   2.742   9.964 -0.0703 -0.3720 -0.3297
  101OSM    O1410162   3.884   2.906  10.134  0.4617  0.4089  0.3387
  101OSM    O1110163   4.025   2.739  10.018  0.0936 -0.0289 -0.1211
  101OSM    O1210164   3.867   2.660  10.179 -0.5630  0.2409 -0.0544
  101OSM    C1S10165   4.058   2.619   9.951  0.4162  0.7431 -0.2106
  101OSM    H1S10166   3.974   2.549   9.969  1.0452  0.7939  3.2383
  101OSM    H1T10167   4.144   2.566   9.996  0.9032 -0.4206 -2.4541
  101OSM     NF10168   4.082   2.512   9.733  0.1676  0.4084 -0.0764
  101OSM    HNF10169   4.177   2.484   9.729 -0.1331 -0.4692 -1.3331
  101OSM    C2S10170   4.072   2.638   9.803  0.1759 -0.6327  0.4913
  101OSM    H2S10171   3.983   2.701   9.779  1.3532  0.5069 -1.0130
  101OSM    C3S10172   4.187   2.737   9.760  0.1618  0.2322 -0.3501
  101OSM    H3S10173   4.285   2.690   9.783 -0.6095 -2.7303 -2.8769
  101OSM     O310174   4.194   2.858   9.831  0.0114  0.3190 -0.4892
  101OSM    HO310175   4.146   2.839   9.912  0.9865 -0.2938 -0.0448
  101OSM    C4S10176   4.178   2.753   9.611  0.7515 -0.3177 -0.4027
  101OSM    H4S10177   4.207   2.669   9.546 -1.7899 -1.1548 -0.5316
  101OSM    C5S10178   4.121   2.855   9.546 -0.3879  0.1055  0.0489
  101OSM    H5S10179   4.086   2.942   9.603  1.7519  0.1424  1.3779
  101OSM    C6S10180   4.110   2.879   9.395  0.6760 -0.2420  0.6082
  101OSM    H6S10181   4.187   2.827   9.334  1.4023  1.4092  0.0890
  101OSM    H6T10182   4.140   2.983   9.371 -1.0167 -0.4460 -2.5989
  101OSM    C7S10183   3.973   2.841   9.351  0.0133 -0.0451  0.4039
  101OSM    H7S10184   3.900   2.918   9.383  2.0618  1.7234  0.9488
  101OSM    H7T10185   3.933   2.743   9.383 -1.7093 -0.0878 -1.7389
  101OSM    C8S10186   3.960   2.865   9.198 -0.5607  0.3868  0.7942
  101OSM    H8S10187   4.033   2.803   9.142 -0.1783  0.7536  0.8828
  101OSM    H8T10188   4.001   2.966   9.176  2.1011 -1.0012 -0.8545
  101OSM    C9S10189   3.821   2.843   9.134 -0.1348  0.3238 -0.5835
  101OSM    H9S10190   3.753   2.926   9.163  0.8960  1.4458 -1.3156
  101OSM    H9T10191   3.788   2.744   9.171  2.4874  0.5732  2.7207
  101OSM   C10S10192   3.825   2.848   8.983  0.4233 -0.6852 -0.1627
  101OSM   H10S10193   3.910   2.909   8.946 -1.7376  2.9168  0.6428
  101OSM   H10T10194   3.731   2.889   8.942  0.8504  0.5794  0.0919
  101OSM   C11S10195   3.833   2.704   8.919 -0.4171 -0.4166 -0.8825
  101OSM   H11S10196   3.737   2.652   8.940  0.8963 -2.5252  0.0932
  101OSM   H11T10197   3.917   2.646   8.963  1.1492  1.9857 -0.6219
  101OSM   C12S10198   3.853   2.707   8.770 -0.0439 -0.7836  0.0435
  101OSM   H12S10199   3.946   2.762   8.745  0.1898 -0.6823  1.1046
  101OSM   H12T10200   3.774   2.772   8.726  0.8830 -0.4688 -1.1636
  101OSM   C13S10201   3.878   2.575   8.691  0.1967 -0.2396  0.3943
  101OSM   H13S10202   3.786   2.514   8.693 -0.1065  0.0727 -2.3164
  101OSM   H13T10203   3.962   2.528   8.748 -0.4777 -0.5946  1.1012
  101OSM   C14S10204   3.921   2.584   8.545  0.0641  0.1079 -0.0615
  101OSM   H14S10205   3.935   2.480   8.510  0.6621  0.8787 -2.1843
  101OSM   H14T10206   4.023   2.629   8.537  0.1862 -0.0011  0.8672
  101OSM   C15S10207   3.819   2.652   8.445  0.5681  0.0001  0.9390
  101OSM   H15S10208   3.805   2.761   8.460 -1.8400  0.1028 -1.4915
  101OSM   H15T10209   3.716   2.611   8.444  0.9072 -0.8579  0.2483
  101OSM   C16S10210   3.876   2.642   8.298 -0.0151 -0.3519 -0.1304
  101OSM   H16S10211   3.894   2.535   8.276  3.9396 -0.0881  1.3692
  101OSM   H16T10212   3.976   2.690   8.284 -0.8315  1.4082 -0.1027
  101OSM   C17S10213   3.790   2.718   8.189  0.0920 -0.4633  0.6067
  101OSM   H17S10214   3.772   2.822   8.221 -0.4255 -0.4772  0.3688
  101OSM   H17T10215   3.688   2.674   8.190 -0.3330  0.4974  0.0355
  101OSM   C18S10216   3.847   2.708   8.054 -0.0907  0.0385  0.3356
  101OSM   H18S10217   3.931   2.781   8.049 -1.6049  1.9653  2.1691
  101OSM   H18T10218   3.762   2.730   7.987 -0.0985  0.2933  0.4293
  101OSM   H18U10219   3.893   2.612   8.024 -0.4916 -0.0169 -0.0973
  101OSM    C1F10220   3.975   2.430   9.719 -0.3650 -0.8947  1.0463
  101OSM     OF10221   3.860   2.462   9.733 -0.1461  0.3558  0.0718
  101OSM    C2F10222   4.000   2.295   9.663 -0.9254  0.2584  0.2929
  101OSM    H2F10223   3.940   2.219   9.718  2.1484 -3.8219 -1.6443
  101OSM    H2G10224   4.106   2.266   9.678 -0.1341  2.8016 -0.1946
  101OSM    C3F10225   3.963   2.286   9.514 -0.4536  0.6173  0.3363
  101OSM    H3F10226   4.025   2.346   9.444  0.2979  1.5276  1.7317
  101OSM    H3G10227   3.855   2.303   9.494 -0.2829 -0.7567 -1.9070
  101OSM    C4F10228   3.983   2.145   9.457  0.3518  0.8141  0.5057
  101OSM    H4F10229   3.942   2.072   9.531  0.0097  0.2052 -0.2739
  101OSM    H4G10230   4.088   2.118   9.431 -0.1268  0.7539 -1.4052
  101OSM    C5F10231   3.917   2.118   9.322 -0.1175  0.5490 -0.2702
  101OSM    H5F10232   3.806   2.119   9.314  0.0480 -0.2712 -3.2104
  101OSM    H5G10233   3.948   2.017   9.290  1.9897  0.4920  1.9080
  101OSM    C6F10234   3.974   2.207   9.210  0.5141 -0.0819 -0.9433
  101OSM    H6F10235   4.083   2.203   9.229  0.1025 -0.2904  1.5265
  101OSM    H6G10236   3.942   2.313   9.215  0.7846  0.0977 -2.6387
  101OSM    C7F10237   3.933   2.158   9.065 -0.4777 -0.1768 -0.1239
  101OSM    H7F10238   3.822   2.167   9.066 -0.4682 -0.0605  0.1499
  101OSM    H7G10239   3.952   2.049   9.063 -0.3696 -0.1742  0.5326
  101OSM    C8F10240   3.982   2.237   8.945 -0.3455  0.1864  0.4149
  101OSM    H8F10241   4.093   2.245   8.949 -0.4875  1.4547  2.4714
  101OSM    H8G10242   3.947   2.342   8.959  0.0518  0.4091 -0.2399
  101OSM    C9F10243   3.924   2.181   8.821 -0.4382  0.3172  0.3329
  101OSM    H9F10244   3.815   2.186   8.826 -0.6804 -1.1174 -2.5411
  101OSM   C10F10245   3.984   2.130   8.713 -0.0178 -1.4217 -0.1207
  101OSM   H10F10246   3.918   2.132   8.625 -0.7049 -2.0869  0.3776
  101OSM   C11F10247   4.131   2.125   8.684 -0.5172  0.0576 -0.2354
  101OSM   H11F10248   4.148   2.027   8.634 -3.7515 -0.9724  0.5097
  101OSM   H11G10249   4.187   2.116   8.780 -1.3887  0.1677  0.2957
  101OSM   C12F10250   4.205   2.227   8.595  0.4444 -0.0629  0.0037
  101OSM   H12F10251   4.312   2.199   8.586  0.6028  0.2814  0.7625
  101OSM   H12G10252   4.195   2.333   8.627  0.5001 -0.5856  1.8228
  101OSM   C13F10253   4.160   2.249   8.444 -0.4481  0.5783  0.0077
  101OSM   H13F10254   4.050   2.256   8.445 -0.3700  2.2606 -1.3212
  101OSM   H13G10255   4.181   2.155   8.388  1.6269  2.1145 -1.8959
  101OSM   C14F10256   4.230   2.374   8.387 -0.1321  0.2830 -0.5559
  101OSM   H14F10257   4.316   2.398   8.454 -2.6763 -0.9714  3.3848
  101OSM   H14G10258   4.170   2.464   8.415  0.9763  0.5546  1.0687
  101OSM   C15F10259   4.232   2.366   8.231 -0.4612 -0.0426 -0.8863
  101OSM   H15F10260   4.131   2.328   8.207 -0.1671 -0.2669 -1.7879
  101OSM   H15G10261   4.309   2.287   8.217  0.0519  0.5700 -1.5843
  101OSM   C16F10262   4.288   2.495   8.164 -0.5398  0.0984  0.7093
  101OSM   H16F10263   4.391   2.515   8.200 -0.1852 -1.4699  0.6066
  101OSM   H16G10264   4.236   2.587   8.197  1.3463  1.1971  0.6715
  101OSM   C17F10265   4.301   2.473   8.018  0.4836  0.2958 -0.2002
  101OSM   H17F10266   4.213   2.528   7.978  1.4837  0.3460 -2.3541
  101OSM   H17G10267   4.278   2.369   7.986  0.9714  0.7230 -1.9937
  101OSM   C18F10268   4.426   2.537   7.959  0.3516  0.4541 -0.1185
  101OSM   H18F10269   4.450   2.639   7.995 -3.6482  0.9856  1.3548
  101OSM   H18G10270   4.426   2.547   7.849  1.3702  0.0471 -0.1609
  101OSM   H18H10271   4.514   2.469   7.965 -1.7260 -2.3832 -0.4338
  102OSM      N10272   2.600   2.840  10.383 -0.3258  0.0155  0.0318
  102OSM    C1510273   2.500   2.732  10.370  0.6930  0.2175  0.1555
  102OSM   H15A10274   2.507   2.659  10.449 -3.1386 -0.4473 -0.0315
  102OSM   H15B10275   2.511   2.679  10.276  0.0164  0.9700 -0.3508
  102OSM   H15C10276   2.402   2.776  10.384  0.1679 -1.0134  0.4186
  102OSM    C1410277   2.588   2.923  10.513  0.3640 -0.0079  0.2843
  102OSM   H14A10278   2.615   2.856  10.594 -0.9541  0.6019  1.2340
  102OSM   H14B10279   2.487   2.960  10.524  0.6607  0.6346  0.8166
  102OSM   H14C10280   2.654   3.007  10.500 -0.3667  0.5306  0.0210
  102OSM    C1310281   2.733   2.763  10.395 -0.2339  0.5680 -0.0326
  102OSM   H13A10282   2.817   2.825  10.426  0.8904 -0.9298 -0.0127
  102OSM   H13B10283   2.758   2.730  10.295  0.2918 -1.3400  0.7149
  102OSM   H13C10284   2.726   2.694  10.478 -1.0174  0.8144  0.1042
  102OSM    C1210285   2.603   2.926  10.260 -0.0485 -0.2129  0.0156
  102OSM   H12A10286   2.692   2.988  10.258  0.3209 -0.7939 -2.0217
  102OSM   H12B10287   2.514   2.988  10.261 -0.5239 -0.8927  0.4965
  102OSM    C1110288   2.599   2.849  10.125  0.2711  0.0060 -1.1174
  102OSM   H11A10289   2.603   2.941  10.062  0.2008  1.4051  0.8549
  102OSM   H11B10290   2.498   2.803  10.115 -0.2142  0.5817  0.7995
  102OSM      P10291   2.686   2.642   9.996  0.4550 -0.1996 -0.1808
  102OSM    O1310292   2.818   2.578   9.978  0.9064  0.3252  0.0391
  102OSM    O1410293   2.570   2.558  10.029 -0.0364 -0.2462 -0.3094
  102OSM    O1110294   2.654   2.721   9.864 -0.6291 -0.3742  0.0798
  102OSM    O1210295   2.703   2.756  10.105 -0.0547 -0.1377 -0.0647
  102OSM    C1S10296   2.746   2.812   9.818  0.5454 -0.5881  0.3986
  102OSM    H1S10297   2.825   2.845   9.889  1.0228 -1.8522  0.4698
  102OSM    H1T10298   2.682   2.902   9.814  1.0834 -0.2218 -0.1598
  102OSM     NF10299   2.898   2.887   9.643 -0.2347 -0.0378 -0.7303
  102OSM    HNF10300   2.839   2.951   9.594 -1.0862 -1.5518 -1.7384
  102OSM    C2S10301   2.814   2.773   9.680 -0.1136 -0.4579 -0.0657
  102OSM    H2S10302   2.875   2.681   9.694  2.2195  0.9278 -0.9289
  102OSM    C3S10303   2.715   2.735   9.566 -0.3988 -0.0374  0.1996
  102OSM    H3S10304   2.656   2.827   9.543  1.8135  1.6084  0.8800
  102OSM     O310305   2.626   2.638   9.609  0.3977  0.4218  0.0355
  102OSM    HO310306   2.622   2.654   9.703  1.4146 -0.0838  0.1679
  102OSM    C4S10307   2.783   2.697   9.439 -0.0332  0.4371 -0.4970
  102OSM    H4S10308   2.746   2.762   9.359 -0.3418  1.8806  0.7929
  102OSM    C5S10309   2.859   2.590   9.408  0.2910 -0.5183 -1.1090
  102OSM    H5S10310   2.878   2.518   9.489 -0.5320 -1.3118 -1.6126
  102OSM    C6S10311   2.909   2.560   9.271  0.0052 -0.1070  0.8793
  102OSM    H6S10312   2.913   2.449   9.266 -2.3212 -0.1959  0.5435
  102OSM    H6T10313   3.012   2.601   9.264 -0.5619  1.3594  0.9421
  102OSM    C7S10314   2.833   2.631   9.152  0.3105  0.2023  0.3735
  102OSM    H7S10315   2.836   2.742   9.158 -3.7316  0.3943  0.1433
  102OSM    H7T10316   2.726   2.602   9.156 -0.4375  2.5324 -1.3514
  102OSM    C8S10317   2.882   2.609   9.017 -0.3393 -0.3025  0.7375
  102OSM    H8S10318   2.800   2.641   8.949  0.7412 -0.4041 -0.6285
  102OSM    H8T10319   2.911   2.502   9.019  0.7259 -0.0252  0.8678
  102OSM    C9S10320   3.019   2.664   8.968 -0.0630 -1.1437 -0.2318
  102OSM    H9S10321   3.085   2.661   9.057 -0.7605  0.4054  0.3531
  102OSM    H9T10322   3.009   2.771   8.937  0.1734 -0.6765  1.2859
  102OSM   C10S10323   3.077   2.596   8.833 -0.1315 -0.1888 -0.3409
  102OSM   H10S10324   3.111   2.492   8.853  1.1657  0.7005  2.3640
  102OSM   H10T10325   3.162   2.659   8.801 -2.4696  2.6188 -1.2161
  102OSM   C11S10326   2.984   2.598   8.714  0.5116  0.8968  1.4717
  102OSM   H11S10327   2.948   2.701   8.695  1.6530  1.3684  1.8861
  102OSM   H11T10328   2.889   2.543   8.736  1.6275 -2.2966 -1.2846
  102OSM   C12S10329   3.045   2.535   8.587 -0.3031 -0.4134 -0.0582
  102OSM   H12S10330   3.035   2.425   8.577  0.4434 -0.4211 -0.8000
  102OSM   H12T10331   3.149   2.572   8.574 -0.5677  1.0620  1.8072
  102OSM   C13S10332   2.971   2.591   8.463  0.2099  0.7248  0.7554
  102OSM   H13S10333   2.981   2.702   8.461  0.5756  0.6800 -0.6601
  102OSM   H13T10334   2.862   2.568   8.467  0.6463 -1.5554  0.0556
  102OSM   C14S10335   3.028   2.535   8.335  0.3789 -0.4555  0.6427
  102OSM   H14S10336   2.986   2.440   8.298 -0.1713 -0.0212  0.1377
  102OSM   H14T10337   3.137   2.521   8.350  0.7298 -0.1888 -1.4733
  102OSM   C15S10338   3.029   2.638   8.211  0.5593 -0.3634 -0.5974
  102OSM   H15S10339   3.085   2.729   8.241 -2.2522  0.9424  0.9611
  102OSM   H15T10340   2.926   2.676   8.194  1.0711  1.6880  0.6877
  102OSM   C16S10341   3.080   2.582   8.077  0.3736  0.9898  0.2249
  102OSM   H16S10342   3.001   2.505   8.067 -0.2788  1.6832  0.0219
  102OSM   H16T10343   3.180   2.534   8.086  0.1440  0.2843 -1.0413
  102OSM   C17S10344   3.084   2.677   7.962 -0.3117  0.1535  0.3918
  102OSM   H17S10345   3.144   2.643   7.875 -0.3127  0.7969  0.1307
  102OSM   H17T10346   3.116   2.779   7.993 -0.6903  0.0090  1.2636
  102OSM   C18S10347   2.947   2.688   7.901 -0.0458  0.1109  0.4578
  102OSM   H18S10348   2.893   2.591   7.903  0.4981 -0.1869  0.5524
  102OSM   H18T10349   2.940   2.730   7.798 -0.6874 -0.1519  0.3914
  102OSM   H18U10350   2.875   2.760   7.945 -0.9880 -1.2386  1.1495
  102OSM    C1F10351   3.027   2.922   9.678  0.1646 -0.0073  0.6204
  102OSM     OF10352   3.099   2.839   9.725  0.2554 -0.1614  0.0832
  102OSM    C2F10353   3.059   3.069   9.655 -0.0655 -0.1925  0.8347
  102OSM    H2F10354   3.105   3.112   9.746 -1.8099  1.4507  0.9780
  102OSM    H2G10355   2.962   3.124   9.652  1.4712  2.5545  0.7015
  102OSM    C3F10356   3.156   3.114   9.536  0.1274  0.1929 -0.0153
  102OSM    H3F10357   3.244   3.046   9.538  2.0476  2.6145  1.2581
  102OSM    H3G10358   3.189   3.216   9.567 -1.2901  0.3150  1.1590
  102OSM    C4F10359   3.097   3.131   9.392  0.4141 -0.7722  0.2018
  102OSM    H4F10360   3.165   3.193   9.330  0.1813 -0.0060  0.7028
  102OSM    H4G10361   3.007   3.195   9.399 -0.9776 -2.8313  1.9759
  102OSM    C5F10362   3.052   3.002   9.322 -0.5878  0.3537  0.0780
  102OSM    H5F10363   2.978   3.031   9.244  0.6119 -3.7407 -2.8001
  102OSM    H5G10364   2.996   2.948   9.401  1.3345  0.9677  1.9126
  102OSM    C6F10365   3.168   2.921   9.254  0.4723 -0.1005  0.3001
  102OSM    H6F10366   3.137   2.825   9.209  1.4974 -1.2377  1.9656
  102OSM    H6G10367   3.239   2.897   9.336  0.2189  0.1655  0.5977
  102OSM    C7F10368   3.243   3.002   9.146 -0.5148 -0.4218  0.3470
  102OSM    H7F10369   3.331   2.940   9.117  1.0206  2.1144 -0.5819
  102OSM    H7G10370   3.282   3.097   9.188 -0.7000  0.6176 -1.7491
  102OSM    C8F10371   3.175   3.025   9.012 -0.0697 -0.4243  0.1241
  102OSM    H8F10372   3.077   3.069   9.041 -0.0194 -0.1168 -0.1665
  102OSM    H8G10373   3.166   2.920   8.975  0.0674 -0.5537  0.4626
  102OSM    C9F10374   3.252   3.118   8.926  0.1321 -0.4114 -0.0033
  102OSM    H9F10375   3.224   3.224   8.938  2.6568  0.4438 -1.1966
  102OSM   C10F10376   3.341   3.090   8.832  1.0740 -0.2559 -0.2089
  102OSM   H10F10377   3.408   3.174   8.812  0.8831 -0.0549 -0.0089
  102OSM   C11F10378   3.387   2.947   8.808  0.0261  0.6420 -0.0651
  102OSM   H11F10379   3.355   2.876   8.887 -0.1189 -1.6025 -2.0870
  102OSM   H11G10380   3.497   2.932   8.801 -0.1580 -1.0960  0.5794
  102OSM   C12F10381   3.309   2.886   8.685 -0.1487  0.1307 -0.0453
  102OSM   H12F10382   3.201   2.908   8.696 -0.3426 -0.9065  0.1923
  102OSM   H12G10383   3.308   2.775   8.686 -0.2481  0.1365  0.7240
  102OSM   C13F10384   3.364   2.943   8.553 -0.5636  0.0454  0.7073
  102OSM   H13F10385   3.474   2.942   8.573 -0.8859  1.7513  2.6834
  102OSM   H13G10386   3.344   3.051   8.534 -1.5674 -0.5112 -1.4971
  102OSM   C14F10387   3.316   2.871   8.426 -0.3593 -0.0429 -0.5978
  102OSM   H14F10388   3.205   2.874   8.419 -0.2082  1.8730 -2.8519
  102OSM   H14G10389   3.354   2.767   8.434 -0.9871 -0.1730  0.9134
  102OSM   C15F10390   3.374   2.937   8.305 -0.2831 -0.0318  0.3365
  102OSM   H15F10391   3.478   2.904   8.283  0.4961  1.4753  1.6548
  102OSM   H15G10392   3.366   3.047   8.314  1.2898  0.1866 -0.7403
  102OSM   C16F10393   3.304   2.903   8.170 -0.6855 -0.0018 -0.5589
  102OSM   H16F10394   3.202   2.945   8.168 -1.3713 -1.5388  0.3744
  102OSM   H16G10395   3.310   2.793   8.152 -2.2066 -0.1709 -0.1467
  102OSM   C17F10396   3.369   2.973   8.050 -0.1246  0.6148  0.9064
  102OSM   H17F10397   3.362   3.083   8.060 -1.2513  0.5667  0.7202
  102OSM   H17G10398   3.296   2.950   7.970  1.1854 -1.6005  0.2916
  102OSM   C18F10399   3.515   2.924   8.020 -0.0519 -0.5202 -0.0255
  102OSM   H18F10400   3.547   2.962   7.920  4.7543 -0.3548  1.4314
  102OSM   H18G10401   3.512   2.813   8.014 -2.6641 -0.4362 -0.7196
  102OSM   H18H10402   3.584   2.960   8.100 -1.7656  2.7988  0.0389
  103OSM      N10403   2.564   5.170  10.364 -0.2883 -0.2655  0.3916
  103OSM    C1510404   2.599   5.022  10.368  0.4116  1.2485 -0.7092
  103OSM   H15A10405   2.694   4.994  10.325  1.2097 -1.5059  2.6113
  103OSM   H15B10406   2.518   4.968  10.322  0.9080 -0.9091  0.8925
  103OSM   H15C10407   2.603   5.006  10.475  0.8965  0.6832 -0.8067
  103OSM    C1410408   2.423   5.189  10.423 -0.1205 -0.1846 -0.2372
  103OSM   H14A10409   2.415   5.135  10.516  0.5501  0.9194  0.4780
  103OSM   H14B10410   2.351   5.150  10.353 -0.8335  0.4111  0.1420
  103OSM   H14C10411   2.410   5.295  10.444 -0.2784 -0.2757  0.1293
  103OSM    C1310412   2.662   5.249  10.436  0.2996 -0.4722  0.1282
  103OSM   H13A10413   2.760   5.209  10.415 -0.2034 -1.0003 -1.2233
  103OSM   H13B10414   2.661   5.234  10.543  1.5581  0.2732  0.2583
  103OSM   H13C10415   2.659   5.353  10.406  0.0171  0.2341  2.4990
  103OSM    C1210416   2.559   5.222  10.220  0.4670  0.1211  0.1644
  103OSM   H12A10417   2.658   5.215  10.176 -0.0234 -0.3691 -0.8819
  103OSM   H12B10418   2.528   5.325  10.211  1.4995  0.3675 -0.8203
  103OSM    C1110419   2.460   5.151  10.118 -0.3435 -0.0508 -0.2677
  103OSM   H11A10420   2.443   5.211  10.026 -1.6112  0.1127  0.0586
  103OSM   H11B10421   2.361   5.157  10.167  0.2322 -0.2948  0.9428
  103OSM      P10422   2.627   4.989  10.007 -0.0247 -0.1835  0.2263
  103OSM    O1310423   2.731   5.005  10.107 -0.3953 -0.1271  0.2377
  103OSM    O1410424   2.616   4.858   9.947  0.6135  0.1563  0.1757
  103OSM    O1110425   2.649   5.102   9.895 -0.5712  0.0046 -0.3954
  103OSM    O1210426   2.495   5.018  10.080 -0.3623  0.2218  0.3605
  103OSM    C1S10427   2.583   5.084   9.761  0.8159 -0.0853  0.0940
  103OSM    H1S10428   2.478   5.052   9.774  0.5252 -0.2396 -2.3982
  103OSM    H1T10429   2.616   5.006   9.689 -1.2297 -0.8787 -0.0181
  103OSM     NF10430   2.520   5.214   9.563  0.7287 -0.6816 -0.4101
  103OSM    HNF10431   2.569   5.207   9.477 -0.1741 -3.6347 -0.7674
  103OSM    C2S10432   2.599   5.217   9.684  0.8705  0.7458 -0.8160
  103OSM    H2S10433   2.565   5.305   9.743  1.7211  0.6950 -0.2450
  103OSM    C3S10434   2.750   5.232   9.651 -0.1147 -0.5173 -0.2800
  103OSM    H3S10435   2.779   5.143   9.591  2.8131  0.4205 -0.3261
  103OSM     O310436   2.850   5.239   9.754  0.1235  0.8198  0.2823
  103OSM    HO310437   2.794   5.233   9.832 -0.5261  0.2921 -0.2301
  103OSM    C4S10438   2.767   5.349   9.551  0.0306 -0.1702 -0.2232
  103OSM    H4S10439   2.742   5.448   9.594 -0.1656  0.1828 -1.1452
  103OSM    C5S10440   2.811   5.355   9.421 -0.0255  0.0472 -0.1109
  103OSM    H5S10441   2.850   5.263   9.373  1.7469  0.0181  1.3067
  103OSM    C6S10442   2.821   5.476   9.337  0.2044  0.3264 -0.0658
  103OSM    H6S10443   2.928   5.496   9.314  0.4272 -0.9680 -0.2144
  103OSM    H6T10444   2.775   5.561   9.391 -3.0401 -0.5412 -1.3847
  103OSM    C7S10445   2.747   5.463   9.200 -0.2849 -0.6323 -0.3472
  103OSM    H7S10446   2.636   5.462   9.201 -0.3083  0.8230 -0.0073
  103OSM    H7T10447   2.774   5.365   9.155  1.1076  0.4918 -2.0418
  103OSM    C8S10448   2.794   5.573   9.102  0.0628 -0.2074 -0.1935
  103OSM    H8S10449   2.904   5.578   9.113  0.3540 -2.8756 -1.4276
  103OSM    H8T10450   2.761   5.678   9.117 -0.6730 -0.3233 -0.9756
  103OSM    C9S10451   2.759   5.539   8.958  0.1801  0.3158 -0.1309
  103OSM    H9S10452   2.649   5.552   8.950  0.3096  0.3440 -2.0508
  103OSM    H9T10453   2.782   5.432   8.937  0.3267  1.1061 -4.2795
  103OSM   C10S10454   2.845   5.606   8.852  0.1011 -0.2418  0.0975
  103OSM   H10S10455   2.934   5.547   8.820  1.2311  1.1183  0.6790
  103OSM   H10T10456   2.880   5.701   8.897 -0.0191  0.0057 -0.3314
  103OSM   C11S10457   2.771   5.653   8.727  0.3663  1.0975 -0.7861
  103OSM   H11S10458   2.677   5.700   8.764 -0.1704 -0.6164  0.0815
  103OSM   H11T10459   2.740   5.572   8.657 -1.8109  1.0011  0.2337
  103OSM   C12S10460   2.851   5.757   8.658 -0.5533 -0.0245 -0.4199
  103OSM   H12S10461   2.958   5.726   8.651  0.2713  2.8771 -1.6116
  103OSM   H12T10462   2.859   5.848   8.721 -0.9281  0.7700 -1.5006
  103OSM   C13S10463   2.817   5.818   8.520 -0.2953 -0.1433 -1.0175
  103OSM   H13S10464   2.708   5.832   8.528 -0.3077  0.1833 -1.6943
  103OSM   H13T10465   2.834   5.736   8.447 -0.9330 -1.5122  0.3598
  103OSM   C14S10466   2.903   5.943   8.475  0.3462  0.4195  0.6656
  103OSM   H14S10467   3.012   5.929   8.492  0.6689  3.3613  1.2824
  103OSM   H14T10468   2.859   6.024   8.537 -0.7882 -0.0500  0.4808
  103OSM   C15S10469   2.876   5.979   8.332  0.0739  0.1434  0.3532
  103OSM   H15S10470   2.922   6.079   8.316 -0.8630  0.7500  1.3947
  103OSM   H15T10471   2.768   6.000   8.320  0.3502  1.2825 -0.1495
  103OSM   C16S10472   2.942   5.886   8.226  0.3414  0.1714  0.3392
  103OSM   H16S10473   3.025   5.831   8.275  0.3238 -1.4192 -1.3814
  103OSM   H16T10474   2.997   5.947   8.151 -0.8290 -1.1565 -1.6085
  103OSM   C17S10475   2.841   5.800   8.157 -0.2186  0.7443  0.5576
  103OSM   H17S10476   2.766   5.859   8.100  0.6604  0.4703 -0.8930
  103OSM   H17T10477   2.774   5.759   8.235 -0.7721 -0.9507 -0.7962
  103OSM   C18S10478   2.896   5.684   8.074 -0.3968 -0.0779  0.4204
  103OSM   H18S10479   2.933   5.608   8.145  0.1337  1.5625  1.9483
  103OSM   H18T10480   2.984   5.707   8.010 -0.8937 -1.2100 -0.6803
  103OSM   H18U10481   2.824   5.634   8.006  1.5368  0.5735 -2.1904
  103OSM    C1F10482   2.387   5.220   9.571 -0.3800  0.4524 -0.5700
  103OSM     OF10483   2.328   5.185   9.670 -0.0737  0.4208 -0.3877
  103OSM    C2F10484   2.313   5.268   9.446 -0.0292 -0.7673 -0.1032
  103OSM    H2F10485   2.266   5.363   9.476 -0.5859 -1.6532  1.9017
  103OSM    H2G10486   2.229   5.197   9.428 -1.4673  0.4072  1.8391
  103OSM    C3F10487   2.398   5.289   9.318  0.2589  0.1499  0.4345
  103OSM    H3F10488   2.498   5.334   9.339  0.5055 -1.5030  2.9215
  103OSM    H3G10489   2.369   5.370   9.247 -0.4097 -1.2836 -0.9539
  103OSM    C4F10490   2.432   5.161   9.226  0.2962  0.1428 -0.0147
  103OSM    H4F10491   2.334   5.127   9.185 -0.0057 -0.9732  1.6221
  103OSM    H4G10492   2.479   5.090   9.297 -2.5834 -0.9344  0.8818
  103OSM    C5F10493   2.520   5.188   9.101  0.3292  0.6974 -0.4219
  103OSM    H5F10494   2.622   5.213   9.136  0.1545  0.5910  0.1630
  103OSM    H5G10495   2.481   5.278   9.048  0.3665  0.7297 -0.3934
  103OSM    C6F10496   2.525   5.065   9.014 -0.3671  0.1780  0.5761
  103OSM    H6F10497   2.422   5.053   8.973 -1.0272 -2.7453  3.0103
  103OSM    H6G10498   2.536   4.967   9.065 -0.5736  0.5022  1.2466
  103OSM    C7F10499   2.621   5.084   8.894  0.3310 -0.4351  0.0232
  103OSM    H7F10500   2.722   5.114   8.929  1.5230  0.4751 -4.0324
  103OSM    H7G10501   2.590   5.174   8.836  1.3210 -2.2130 -3.3724
  103OSM    C8F10502   2.628   4.976   8.786  0.2474  0.6870 -0.4846
  103OSM    H8F10503   2.675   4.884   8.828 -2.1818 -0.8334 -0.9870
  103OSM    H8G10504   2.695   5.008   8.704 -0.2983  0.6670 -0.9421
  103OSM    C9F10505   2.496   4.945   8.727 -0.0659  0.7533 -0.7988
  103OSM    H9F10506   2.434   4.890   8.799  0.1962 -0.3603 -1.4032
  103OSM   C10F10507   2.451   4.950   8.599  0.3246  0.4418  0.4296
  103OSM   H10F10508   2.350   4.922   8.564  0.5141 -0.6988  0.7676
  103OSM   C11F10509   2.536   5.000   8.475  0.7335  0.5879  0.2850
  103OSM   H11F10510   2.611   5.079   8.499 -0.3297  2.3838 -2.1219
  103OSM   H11G10511   2.471   5.041   8.395 -0.9540  0.0335  1.3456
  103OSM   C12F10512   2.633   4.882   8.427  0.3632  0.1909 -0.6193
  103OSM   H12F10513   2.564   4.798   8.401 -0.5487  0.8507 -0.3521
  103OSM   H12G10514   2.698   4.852   8.512  0.3824 -0.4932 -0.8712
  103OSM   C13F10515   2.716   4.913   8.307 -0.3043 -0.3512 -0.2991
  103OSM   H13F10516   2.657   4.972   8.234  1.3636 -0.7660 -1.9995
  103OSM   H13G10517   2.796   4.977   8.350 -1.3003  0.3254  0.5776
  103OSM   C14F10518   2.768   4.792   8.236 -0.6839  0.9397  0.1620
  103OSM   H14F10519   2.682   4.730   8.202 -0.0961  0.1249  0.1506
  103OSM   H14G10520   2.829   4.730   8.304  1.9465  2.8686 -0.3899
  103OSM   C15F10521   2.842   4.824   8.109  0.1900 -0.1844  0.1834
  103OSM   H15F10522   2.895   4.921   8.121 -2.6839  1.3575  0.8877
  103OSM   H15G10523   2.767   4.827   8.028 -0.8134  0.4764  1.1236
  103OSM   C16F10524   2.934   4.714   8.082  0.8338 -0.1489  0.3501
  103OSM   H16F10525   3.009   4.676   8.154  0.3782  0.0514  0.9355
  103OSM   H16G10526   3.006   4.745   8.004 -2.2176  1.9495 -1.7205
  103OSM   C17F10527   2.852   4.597   8.036 -0.2339  0.4663 -0.2713
  103OSM   H17F10528   2.920   4.550   7.961 -0.1963  0.6457 -0.3482
  103OSM   H17G10529   2.770   4.632   7.970  0.4368 -1.0167 -1.9468
  103OSM   C18F10530   2.816   4.493   8.142 -0.2951 -0.1768  0.6172
  103OSM   H18F10531   2.910   4.487   8.201 -1.4065  1.9971  2.6944
  103OSM   H18G10532   2.792   4.394   8.097  1.5234  0.1835 -1.2532
  103OSM   H18H10533   2.731   4.527   8.204  0.6334  0.9917  1.2652
  104OSM      N10534   1.508   4.321  10.167  0.0550 -0.4636 -0.0711
  104OSM    C1510535   1.462   4.183  10.197  0.1060  0.1219  0.2741
  104OSM   H15A10536   1.417   4.174  10.295 -0.9812  1.7479 -0.0460
  104OSM   H15B10537   1.539   4.108  10.204 -1.0169 -1.2150 -1.2125
  104OSM   H15C10538   1.387   4.148  10.128  0.5460  0.1808 -0.2362
  104OSM    C1410539   1.403   4.425  10.195 -0.5901  0.0366  0.0266
  104OSM   H14A10540   1.415   4.529  10.168 -2.1937  0.3541  0.4384
  104OSM   H14B10541   1.379   4.428  10.300  3.5404  3.8933  1.0240
  104OSM   H14C10542   1.310   4.399  10.146  0.2150  0.0569 -1.5363
  104OSM    C1310543   1.629   4.346  10.259 -0.5825 -0.8542  0.0624
  104OSM   H13A10544   1.624   4.299  10.356  3.0868  0.6154  1.0323
  104OSM   H13B10545   1.649   4.452  10.265 -0.5331 -0.8317 -0.4696
  104OSM   H13C10546   1.717   4.301  10.214 -1.1336 -2.7153  0.7994
  104OSM    C1210547   1.550   4.345  10.026 -0.7128  0.4812 -0.1611
  104OSM   H12A10548   1.611   4.433  10.014  0.1310 -0.2888 -1.6530
  104OSM   H12B10549   1.473   4.371   9.954 -0.5308 -1.9691 -1.2784
  104OSM    C1110550   1.649   4.232   9.965  0.1232  0.2865 -0.1396
  104OSM   H11A10551   1.665   4.250   9.857  0.4353 -0.8812 -0.2932
  104OSM   H11B10552   1.600   4.133   9.963  1.7636 -0.5750  1.3313
  104OSM      P10553   1.891   4.318   9.988 -0.2926 -0.0990 -0.4588
  104OSM    O1310554   1.853   4.459  10.021  0.3224  0.2736 -0.5374
  104OSM    O1410555   2.024   4.281  10.040  0.0580  0.1845  0.3225
  104OSM    O1110556   1.890   4.293   9.831 -0.1162 -0.3277 -0.3174
  104OSM    O1210557   1.778   4.225  10.035  0.4784  0.1145 -0.0527
  104OSM    C1S10558   2.006   4.328   9.752  0.1981  0.0463  0.0607
  104OSM    H1S10559   2.088   4.354   9.823 -0.3218  0.6548  0.4426
  104OSM    H1T10560   1.992   4.422   9.695 -1.3958  0.1587  0.6149
  104OSM     NF10561   2.162   4.246   9.580  0.6989 -0.7414 -0.0503
  104OSM    HNF10562   2.156   4.278   9.486  0.4501  1.1819  0.5994
  104OSM    C2S10563   2.042   4.221   9.650  0.2055 -0.0512  0.1965
  104OSM    H2S10564   2.068   4.138   9.719 -1.8319 -0.6235  0.2907
  104OSM    C3S10565   1.920   4.183   9.555 -0.4476  0.3768  0.1133
  104OSM    H3S10566   1.898   4.271   9.491 -0.4707  0.2120 -0.1059
  104OSM     O310567   1.800   4.157   9.621 -0.1326  0.1027 -0.0408
  104OSM    HO310568   1.804   4.217   9.696  2.3336 -0.5931  0.4221
  104OSM    C4S10569   1.952   4.062   9.475 -0.0487 -0.3009  0.6596
  104OSM    H4S10570   1.998   3.982   9.535  1.0488  0.3064  0.6485
  104OSM    C5S10571   1.932   4.051   9.346 -0.2218 -0.3648  0.0673
  104OSM    H5S10572   1.903   4.132   9.277  1.0766 -0.9750 -1.2351
  104OSM    C6S10573   1.969   3.924   9.265  0.5052 -0.2235  0.4392
  104OSM    H6S10574   1.876   3.883   9.221  0.9424 -0.9708  0.1896
  104OSM    H6T10575   2.011   3.842   9.328 -1.5184 -0.3851  1.6332
  104OSM    C7S10576   2.067   3.967   9.155 -0.1301  0.7199 -0.1355
  104OSM    H7S10577   2.155   4.019   9.198 -1.0118  1.7744  0.4064
  104OSM    H7T10578   2.013   4.029   9.081 -0.7208  0.9725  0.5036
  104OSM    C8S10579   2.130   3.843   9.082 -0.5458 -0.0935 -0.1956
  104OSM    H8S10580   2.045   3.794   9.030 -1.5722  3.0650 -1.6243
  104OSM    H8T10581   2.169   3.778   9.163  2.3000 -0.6555 -1.9294
  104OSM    C9S10582   2.232   3.880   8.973 -0.3877 -0.0121  0.7161
  104OSM    H9S10583   2.248   3.786   8.917 -0.5039 -0.1577  0.9254
  104OSM    H9T10584   2.329   3.915   9.016  0.4037  1.4350 -2.1374
  104OSM   C10S10585   2.177   3.978   8.872 -0.0420  0.1744 -0.8541
  104OSM   H10S10586   2.151   4.072   8.925  0.5936 -0.7397  1.1592
  104OSM   H10T10587   2.082   3.940   8.829 -0.8581  0.0007  1.0196
  104OSM   C11S10588   2.270   4.014   8.757 -0.0440 -0.0017  0.2155
  104OSM   H11S10589   2.280   3.918   8.702 -1.6117  0.6512 -1.2634
  104OSM   H11T10590   2.368   4.058   8.785 -0.5012  1.0845  0.1593
  104OSM   C12S10591   2.195   4.119   8.667 -0.9833  0.5402 -0.3995
  104OSM   H12S10592   2.152   4.196   8.734 -0.6735  1.8532 -1.6893
  104OSM   H12T10593   2.108   4.062   8.629 -2.6535  1.5160  1.8996
  104OSM   C13S10594   2.269   4.177   8.547 -0.2686 -0.2247  0.2889
  104OSM   H13S10595   2.362   4.231   8.573 -0.6639 -0.3885  2.1476
  104OSM   H13T10596   2.202   4.241   8.486 -0.8580 -2.0140 -0.9923
  104OSM   C14S10597   2.309   4.059   8.452  0.4612 -0.2872  0.0691
  104OSM   H14S10598   2.215   4.003   8.431 -0.2064  0.6344  0.5919
  104OSM   H14T10599   2.382   3.986   8.493  0.8880 -0.9788 -1.8376
  104OSM   C15S10600   2.372   4.109   8.324  0.8300  0.7903 -0.7980
  104OSM   H15S10601   2.459   4.178   8.335  1.0502  1.0547 -3.7163
  104OSM   H15T10602   2.303   4.168   8.259 -0.2984  1.1068  0.6510
  104OSM   C16S10603   2.439   3.997   8.242 -0.2514  0.1427  0.1101
  104OSM   H16S10604   2.448   4.021   8.134 -1.8481  0.0319 -0.0515
  104OSM   H16T10605   2.366   3.914   8.250  1.1340 -1.2546 -1.3562
  104OSM   C17S10606   2.586   3.955   8.284 -0.3142 -0.2325 -0.9385
  104OSM   H17S10607   2.567   3.881   8.365 -2.3682  1.0939 -0.1669
  104OSM   H17T10608   2.641   4.045   8.317 -1.3326  0.5227 -1.2782
  104OSM   C18S10609   2.658   3.880   8.176 -0.4306 -0.2921 -0.3605
  104OSM   H18S10610   2.688   3.948   8.093  0.2602 -0.0007  0.1233
  104OSM   H18T10611   2.607   3.785   8.149 -0.6767 -0.3878  0.4398
  104OSM   H18U10612   2.745   3.849   8.238 -1.1725  0.0360  0.8560
  104OSM    C1F10613   2.280   4.272   9.641 -0.3362  0.4384 -0.3225
  104OSM     OF10614   2.307   4.230   9.755  0.2901  0.5893 -0.3801
  104OSM    C2F10615   2.379   4.344   9.564  0.1084  0.2453  0.7751
  104OSM    H2F10616   2.454   4.267   9.535  0.6171  0.4899  1.4409
  104OSM    H2G10617   2.440   4.408   9.632  0.6998 -1.2246  1.6566
  104OSM    C3F10618   2.321   4.422   9.439  0.1582 -0.6564 -0.6381
  104OSM    H3F10619   2.273   4.352   9.368  0.2468  1.5083 -2.8848
  104OSM    H3G10620   2.403   4.470   9.382 -0.3508  0.0514 -0.7788
  104OSM    C4F10621   2.221   4.540   9.465  0.0264 -0.2637  0.1184
  104OSM    H4F10622   2.277   4.619   9.519  2.6076 -2.0200  0.0853
  104OSM    H4G10623   2.137   4.509   9.531  2.9075 -1.1815  3.4640
  104OSM    C5F10624   2.154   4.599   9.336  0.3666 -0.3053 -1.0024
  104OSM    H5F10625   2.232   4.627   9.262 -0.6390 -0.0652 -1.9807
  104OSM    H5G10626   2.099   4.691   9.365  2.6699  0.9420 -0.4463
  104OSM    C6F10627   2.061   4.501   9.269  0.2739 -0.2953 -0.3177
  104OSM    H6F10628   1.992   4.462   9.346  0.6527  2.8006  1.6739
  104OSM    H6G10629   2.125   4.422   9.225 -0.9565 -0.9440 -0.9567
  104OSM    C7F10630   1.983   4.557   9.149 -0.6898  0.5479 -0.3491
  104OSM    H7F10631   2.040   4.629   9.087  0.8266  1.0658  1.6395
  104OSM    H7G10632   1.889   4.607   9.182 -0.0885  2.9288 -2.0866
  104OSM    C8F10633   1.931   4.437   9.068  0.4402 -0.3189 -0.2625
  104OSM    H8F10634   1.859   4.388   9.138 -0.5477  1.8087  0.2687
  104OSM    H8G10635   2.019   4.371   9.051 -0.3824 -1.3286 -0.6230
  104OSM    C9F10636   1.862   4.481   8.944 -0.2727 -0.3161  0.3361
  104OSM    H9F10637   1.758   4.512   8.962 -0.3362 -0.8303  0.8455
  104OSM   C10F10638   1.922   4.505   8.825 -0.5372  0.0797 -0.1793
  104OSM   H10F10639   1.871   4.542   8.735  1.9632  2.6067 -0.6042
  104OSM   C11F10640   2.068   4.472   8.800  0.8215  0.3799  0.3938
  104OSM   H11F10641   2.071   4.420   8.702  1.5883 -0.2323  0.7411
  104OSM   H11G10642   2.129   4.419   8.877  0.7531  2.3947  1.9017
  104OSM   C12F10643   2.165   4.596   8.797 -0.7844 -0.3730  0.2618
  104OSM   H12F10644   2.152   4.641   8.898  0.7558  3.6213 -1.2500
  104OSM   H12G10645   2.130   4.681   8.736 -0.2173  2.0654  3.1982
  104OSM   C13F10646   2.308   4.572   8.760 -0.3217  0.1539  0.0253
  104OSM   H13F10647   2.340   4.479   8.812  0.3916 -0.2911 -1.1780
  104OSM   H13G10648   2.366   4.659   8.796  2.3643 -2.2848  1.7517
  104OSM   C14F10649   2.354   4.569   8.613  0.2450 -0.0703  0.1521
  104OSM   H14F10650   2.338   4.673   8.579  0.6083 -0.3725 -0.9644
  104OSM   H14G10651   2.287   4.508   8.548  0.3497  0.7182 -0.7081
  104OSM   C15F10652   2.490   4.511   8.585  0.0501  0.6929  0.1006
  104OSM   H15F10653   2.512   4.510   8.476  0.8912  3.1091  0.2155
  104OSM   H15G10654   2.490   4.410   8.630 -4.0457 -0.0808 -1.4355
  104OSM   C16F10655   2.603   4.591   8.655  0.3521 -0.1198 -0.4538
  104OSM   H16F10656   2.604   4.581   8.765  0.9613  0.8979 -0.3569
  104OSM   H16G10657   2.576   4.698   8.670 -2.1279 -0.6365 -0.8595
  104OSM   C17F10658   2.739   4.565   8.593  0.0269  0.2394 -0.0600
  104OSM   H17F10659   2.811   4.629   8.649 -1.3883 -0.5055  2.6512
  104OSM   H17G10660   2.744   4.610   8.491 -0.3781  1.0559  0.2804
  104OSM   C18F10661   2.772   4.418   8.585 -1.1552 -0.1376 -0.2592
  104OSM   H18F10662   2.743   4.371   8.489  2.6127 -1.2521 -0.9323
  104OSM   H18G10663   2.726   4.361   8.668 -0.2732 -0.8372 -0.2397
  104OSM   H18H10664   2.881   4.400   8.598 -0.9552 -1.0860 -2.9689
  105OSM      N10665   1.961   3.971  10.223  0.0803 -0.9873 -0.4260
  105OSM    C1510666   1.998   3.848  10.296  0.4810 -0.3681 -0.4308
  105OSM   H15A10667   1.965   3.860  10.399  0.9586 -0.1311 -0.3028
  105OSM   H15B10668   2.105   3.832  10.298  0.4820 -0.6460 -2.4319
  105OSM   H15C10669   1.953   3.760  10.252  0.3501  0.5759 -2.2049
  105OSM    C1410670   1.998   4.098  10.299 -0.4421  0.3713  0.0190
  105OSM   H14A10671   1.972   4.186  10.242 -2.5747  1.6161  2.7340
  105OSM   H14B10672   2.103   4.084  10.318 -0.6615 -2.7106 -0.9287
  105OSM   H14C10673   1.942   4.098  10.392  0.4370 -1.9451  0.5634
  105OSM    C1310674   2.039   3.959  10.097  0.0453 -0.3927 -0.9546
  105OSM   H13A10675   2.005   3.874  10.040  0.5189 -1.6911  0.6319
  105OSM   H13B10676   2.147   3.947  10.105 -0.5419 -5.4676  1.5770
  105OSM   H13C10677   2.021   4.044  10.033 -0.2311 -1.4395 -2.2757
  105OSM    C1210678   1.811   3.984  10.205 -0.4283  0.0626  0.4152
  105OSM   H12A10679   1.774   4.080  10.175 -2.0877 -0.8480 -0.5400
  105OSM   H12B10680   1.771   3.964  10.304 -0.6221 -0.9212  0.1440
  105OSM    C1110681   1.734   3.878  10.117  0.8157  0.2327  1.0899
  105OSM   H11A10682   1.760   3.916  10.016  2.9092 -2.2670  0.6504
  105OSM   H11B10683   1.623   3.884  10.121  0.7551 -0.3589  0.4175
  105OSM      P10684   1.823   3.650  10.020  0.3829  0.0343  0.0543
  105OSM    O1310685   1.966   3.670   9.997  0.2338  0.8941 -0.3973
  105OSM    O1410686   1.765   3.516  10.039  0.4737 -0.1653 -0.1850
  105OSM    O1110687   1.751   3.712   9.897 -0.4193  0.1268 -0.2215
  105OSM    O1210688   1.780   3.745  10.135 -0.0853  0.3868 -0.1545
  105OSM    C1S10689   1.608   3.707   9.880  0.3029 -0.0660  0.3844
  105OSM    H1S10690   1.554   3.804   9.886  0.9157  0.2633  0.6059
  105OSM    H1T10691   1.562   3.647   9.962 -3.0321  3.1951  1.0725
  105OSM     NF10692   1.601   3.508   9.725  0.8685 -0.5801  0.4843
  105OSM    HNF10693   1.696   3.491   9.701  0.0176 -3.5063 -1.2008
  105OSM    C2S10694   1.569   3.652   9.740 -0.3282 -0.1102 -0.1791
  105OSM    H2S10695   1.458   3.655   9.732 -0.3359  0.8113  0.1678
  105OSM    C3S10696   1.627   3.737   9.630 -0.0894  0.2354 -0.1652
  105OSM    H3S10697   1.722   3.788   9.657 -0.3202 -0.4433  1.9722
  105OSM     O310698   1.547   3.858   9.623  0.2453  0.4251  0.4217
  105OSM    HO310699   1.598   3.927   9.666  1.7775  0.0474 -0.7609
  105OSM    C4S10700   1.626   3.683   9.492 -1.0033 -0.2182  0.5027
  105OSM    H4S10701   1.528   3.654   9.449 -0.3896  0.1681 -1.1834
  105OSM    C5S10702   1.739   3.650   9.423  0.4604  0.3526  0.4770
  105OSM    H5S10703   1.834   3.674   9.472  1.2703 -1.3219 -0.2260
  105OSM    C6S10704   1.749   3.586   9.289 -0.1480  0.5132  0.3702
  105OSM    H6S10705   1.733   3.477   9.296  2.1513  0.2872  2.6990
  105OSM    H6T10706   1.854   3.604   9.258  0.0590 -0.7339  0.3499
  105OSM    C7S10707   1.637   3.612   9.191  0.4484  0.2247  0.4992
  105OSM    H7S10708   1.600   3.714   9.216  2.2630  1.0469 -0.0990
  105OSM    H7T10709   1.547   3.547   9.197  0.9084 -0.5492 -0.6431
  105OSM    C8S10710   1.666   3.612   9.039 -0.0117  0.1521 -0.2579
  105OSM    H8S10711   1.722   3.702   9.005  1.3937  0.6849  3.2215
  105OSM    H8T10712   1.566   3.615   8.990  0.1903  2.9740 -0.5578
  105OSM    C9S10713   1.740   3.486   8.989  0.2631 -0.7657  0.1331
  105OSM    H9S10714   1.786   3.433   9.075 -1.2251 -2.6660 -0.2179
  105OSM    H9T10715   1.820   3.505   8.915  1.3217  0.1836  1.4938
  105OSM   C10S10716   1.648   3.385   8.932  0.2966  0.9027  0.2214
  105OSM   H10S10717   1.553   3.366   8.986 -0.2879 -1.8915 -1.6347
  105OSM   H10T10718   1.695   3.284   8.926 -1.3087  0.1442  0.2059
  105OSM   C11S10719   1.597   3.425   8.794 -0.2676  0.1624 -0.0092
  105OSM   H11S10720   1.523   3.508   8.798 -0.7441 -0.2939  0.8148
  105OSM   H11T10721   1.534   3.341   8.758  0.8993 -1.3775  1.4758
  105OSM   C12S10722   1.698   3.455   8.687 -0.0086  0.4681 -0.6238
  105OSM   H12S10723   1.792   3.396   8.685  0.0414  0.5925 -2.6108
  105OSM   H12T10724   1.737   3.559   8.691  1.5993 -0.1311 -0.0790
  105OSM   C13S10725   1.644   3.430   8.538 -0.0702 -0.1234  0.6423
  105OSM   H13S10726   1.611   3.324   8.531  1.8043 -0.6237 -0.8423
  105OSM   H13T10727   1.725   3.451   8.465 -1.2703 -1.5600 -1.1611
  105OSM   C14S10728   1.532   3.528   8.499  0.4938  0.1081 -0.3736
  105OSM   H14S10729   1.563   3.633   8.519 -1.2866  0.8096 -1.1760
  105OSM   H14T10730   1.451   3.497   8.568  0.4287 -0.1981 -0.5854
  105OSM   C15S10731   1.481   3.512   8.355 -0.1100 -0.0288 -0.2037
  105OSM   H15S10732   1.465   3.405   8.330 -1.0896  0.4688 -1.8057
  105OSM   H15T10733   1.562   3.549   8.289  0.8769 -1.3494  0.2642
  105OSM   C16S10734   1.342   3.577   8.338 -0.2433 -0.1973  0.3524
  105OSM   H16S10735   1.354   3.681   8.374  0.7526  0.2815 -1.2610
  105OSM   H16T10736   1.268   3.537   8.410  1.2368 -1.5268  1.1660
  105OSM   C17S10737   1.293   3.565   8.198 -0.1999 -0.1319  1.0750
  105OSM   H17S10738   1.263   3.460   8.177  1.2426 -0.4042  0.2738
  105OSM   H17T10739   1.374   3.605   8.133 -0.4933 -1.3434 -0.0663
  105OSM   C18S10740   1.174   3.645   8.167 -0.2288  0.1952 -0.2781
  105OSM   H18S10741   1.197   3.754   8.178  0.9018  0.2025 -2.4110
  105OSM   H18T10742   1.084   3.605   8.219 -0.8116  1.1816 -0.5043
  105OSM   H18U10743   1.164   3.630   8.058  0.1729 -1.8358 -0.0513
  105OSM    C1F10744   1.535   3.416   9.805 -0.4987  0.1657 -0.1588
  105OSM     OF10745   1.445   3.444   9.880 -0.5050 -0.1342  0.0084
  105OSM    C2F10746   1.596   3.277   9.815  0.2092 -0.7044 -0.4360
  105OSM    H2F10747   1.527   3.211   9.758  0.1007  0.9775 -2.2914
  105OSM    H2G10748   1.595   3.259   9.925 -0.4724  1.1082 -0.1306
  105OSM    C3F10749   1.740   3.276   9.755  0.4077  0.6595 -0.0730
  105OSM    H3F10750   1.801   3.346   9.816 -1.9331  1.4685  1.4113
  105OSM    H3G10751   1.735   3.307   9.649 -1.6691  1.4766  0.2382
  105OSM    C4F10752   1.798   3.137   9.781 -0.4346  0.7862 -0.0835
  105OSM    H4F10753   1.799   3.131   9.892  0.9859 -0.3855 -0.1392
  105OSM    H4G10754   1.906   3.124   9.759 -0.4083 -0.2176  0.6407
  105OSM    C5F10755   1.720   3.011   9.754 -0.2656  0.4804 -0.1915
  105OSM    H5F10756   1.617   3.026   9.792 -0.0416 -0.1862  0.6616
  105OSM    H5G10757   1.758   2.923   9.810  0.1578  0.7356 -0.0753
  105OSM    C6F10758   1.723   2.968   9.601  0.6995 -0.0047  0.0435
  105OSM    H6F10759   1.828   2.947   9.570  0.5242  0.1249 -0.6590
  105OSM    H6G10760   1.684   3.052   9.540 -1.3481 -0.0320  1.2760
  105OSM    C7F10761   1.637   2.836   9.587  0.5526  1.0018  0.2046
  105OSM    H7F10762   1.532   2.855   9.617 -0.0965 -0.0367 -1.2927
  105OSM    H7G10763   1.676   2.757   9.655  2.0430  1.3455 -0.2248
  105OSM    C8F10764   1.639   2.781   9.437 -0.4078 -0.2309 -0.7467
  105OSM    H8F10765   1.739   2.741   9.410  0.5980 -0.6559  3.1970
  105OSM    H8G10766   1.611   2.869   9.377 -0.3961 -0.3087 -0.8668
  105OSM    C9F10767   1.545   2.668   9.442 -0.6372  0.5593 -0.1523
  105OSM    H9F10768   1.575   2.594   9.518  1.8239  1.4660 -0.2054
  105OSM   C10F10769   1.436   2.657   9.368  0.9157  0.0980 -0.7570
  105OSM   H10F10770   1.368   2.573   9.383 -1.4820  1.6647 -2.4956
  105OSM   C11F10771   1.394   2.757   9.262  0.4366 -0.7571  0.8352
  105OSM   H11F10772   1.404   2.861   9.299  2.2297 -0.2399 -0.9715
  105OSM   H11G10773   1.287   2.739   9.236  0.0555  2.1115  0.1784
  105OSM   C12F10774   1.474   2.737   9.125  0.0228 -0.3778 -0.8322
  105OSM   H12F10775   1.424   2.649   9.078 -3.5991 -0.0325  2.0988
  105OSM   H12G10776   1.581   2.737   9.151 -0.1827  1.8766  0.1065
  105OSM   C13F10777   1.458   2.845   9.021  0.1465 -0.5533  0.1283
  105OSM   H13F10778   1.537   2.920   9.046  2.2031 -3.4218  2.5984
  105OSM   H13G10779   1.357   2.889   9.032 -0.5894 -2.4153  1.0699
  105OSM   C14F10780   1.488   2.790   8.884  0.2346  0.0370 -0.0169
  105OSM   H14F10781   1.415   2.713   8.849 -0.2800 -0.5328  2.2775
  105OSM   H14G10782   1.587   2.746   8.908  0.5005  0.6891  0.0921
  105OSM   C15F10783   1.500   2.893   8.772 -0.4275  0.0142  0.4544
  105OSM   H15F10784   1.409   2.956   8.785  0.9413  1.8954  1.0025
  105OSM   H15G10785   1.485   2.846   8.672 -2.9258 -1.4345  1.4544
  105OSM   C16F10786   1.628   2.963   8.777  0.0310  1.1091 -0.0412
  105OSM   H16F10787   1.718   2.898   8.781  0.8583  2.3755  2.4589
  105OSM   H16G10788   1.622   3.018   8.873 -2.6370  0.6997  0.0442
  105OSM   C17F10789   1.641   3.075   8.664 -0.7348 -0.0550 -0.8654
  105OSM   H17F10790   1.743   3.120   8.665 -1.7687  2.4038 -2.0584
  105OSM   H17G10791   1.566   3.156   8.677  0.8136  0.9079  2.6477
  105OSM   C18F10792   1.624   3.011   8.519 -0.2370  0.1616 -0.5195
  105OSM   H18F10793   1.654   3.086   8.442  1.9656  0.7156  0.8219
  105OSM   H18G10794   1.524   2.969   8.500  0.0742 -0.7330 -0.1837
  105OSM   H18H10795   1.706   2.941   8.493  0.1965  1.3757 -2.5169
  106OSM      N10796   2.868   2.316  10.277  0.0906  0.1163  0.1047
  106OSM    C1510797   2.726   2.342  10.320 -0.4058  0.3744  0.2094
  106OSM   H15A10798   2.686   2.248  10.354  2.4152  0.1888  3.3093
  106OSM   H15B10799   2.670   2.381  10.237  1.9739 -0.0649 -1.6617
  106OSM   H15C10800   2.728   2.402  10.410  1.1606 -0.9353  1.0791
  106OSM    C1410801   2.934   2.449  10.267  1.0245 -0.6805  0.7466
  106OSM   H14A10802   3.037   2.440  10.234  1.3297 -0.2653  1.5675
  106OSM   H14B10803   2.945   2.496  10.363  3.0044 -0.2008  0.3272
  106OSM   H14C10804   2.888   2.517  10.196  2.0924  0.5654  1.2275
  106OSM    C1310805   2.925   2.232  10.386 -0.1329  0.3591  0.0158
  106OSM   H13A10806   3.025   2.198  10.363 -0.4897 -0.9558  0.3690
  106OSM   H13B10807   2.867   2.142  10.397  0.2704  0.3521  2.3727
  106OSM   H13C10808   2.920   2.274  10.485  1.5541 -0.3005  0.3956
  106OSM    C1210809   2.875   2.236  10.148 -0.2848  0.2943  0.2295
  106OSM   H12A10810   2.973   2.191  10.145  0.2824  1.4946  0.3972
  106OSM   H12B10811   2.871   2.297  10.059  0.7442 -1.2815 -0.9281
  106OSM    C1110812   2.773   2.123  10.126  0.2197 -0.1799  0.4884
  106OSM   H11A10813   2.774   2.091  10.019 -2.4122 -0.5791  0.5518
  106OSM   H11B10814   2.669   2.156  10.146  0.4824  1.0597 -0.1366
  106OSM      P10815   2.898   1.893  10.170 -0.1586 -0.0631  0.2935
  106OSM    O1310816   3.023   1.966  10.142  0.0064  0.5604  0.0682
  106OSM    O1410817   2.901   1.803  10.288 -0.0605  0.1101  0.3136
  106OSM    O1110818   2.851   1.829  10.036 -0.0595 -0.1195 -0.0168
  106OSM    O1210819   2.797   2.007  10.202  0.1765 -0.3425  0.4885
  106OSM    C1S10820   2.713   1.814  10.006  0.0379  0.2103  0.4773
  106OSM    H1S10821   2.652   1.907  10.007 -0.2735  0.0295 -0.7429
  106OSM    H1T10822   2.659   1.727  10.049  0.2171  0.1089  0.4984
  106OSM     NF10823   2.545   1.767   9.821  0.0016 -0.4041  0.1256
  106OSM    HNF10824   2.497   1.680   9.819 -0.7726  0.0321 -0.1967
  106OSM    C2S10825   2.693   1.765   9.855 -0.7074 -0.9288  0.1680
  106OSM    H2S10826   2.739   1.839   9.786 -4.2504  1.3276  0.1492
  106OSM    C3S10827   2.765   1.625   9.839 -0.0500  0.0593 -0.1057
  106OSM    H3S10828   2.710   1.556   9.907  1.7398  0.4868  1.8373
  106OSM     O310829   2.903   1.620   9.878 -0.0557  0.1695  0.6295
  106OSM    HO310830   2.932   1.703   9.915 -0.7401 -0.2701  2.2070
  106OSM    C4S10831   2.740   1.576   9.699 -0.3130 -0.4238  0.0555
  106OSM    H4S10832   2.683   1.482   9.693  2.1040 -1.8631 -1.1006
  106OSM    C5S10833   2.809   1.609   9.585 -0.4793 -0.2908  0.3860
  106OSM    H5S10834   2.903   1.665   9.591  0.7137 -2.2961  0.6466
  106OSM    C6S10835   2.791   1.552   9.449  0.4180 -0.1949  0.5857
  106OSM    H6S10836   2.812   1.626   9.368 -1.3998 -0.0824  0.1881
  106OSM    H6T10837   2.682   1.533   9.433  0.5190  0.6215 -1.2119
  106OSM    C7S10838   2.874   1.423   9.425  0.9187  0.0485  0.8289
  106OSM    H7S10839   2.863   1.353   9.510 -1.7150 -0.1540  0.3481
  106OSM    H7T10840   2.980   1.456   9.417  0.3840  1.7266  0.1983
  106OSM    C8S10841   2.828   1.350   9.292  0.7763  0.7595  0.1013
  106OSM    H8S10842   2.726   1.308   9.291  0.4804  1.4127  1.9133
  106OSM    H8T10843   2.887   1.256   9.278 -2.5810 -1.0022 -3.0627
  106OSM    C9S10844   2.846   1.434   9.166 -0.3785  0.3568  0.2853
  106OSM    H9S10845   2.950   1.465   9.141 -0.0241 -1.5395 -0.6516
  106OSM    H9T10846   2.794   1.532   9.160 -0.1575  0.3586 -1.8428
  106OSM   C10S10847   2.791   1.351   9.047  0.0665  0.1686  0.2654
  106OSM   H10S10848   2.681   1.343   9.061  0.1774 -0.7313  0.6969
  106OSM   H10T10849   2.836   1.249   9.048 -0.5858 -0.1612 -2.2306
  106OSM   C11S10850   2.818   1.417   8.912  0.2906  1.1434  0.3492
  106OSM   H11S10851   2.928   1.425   8.897  0.5040 -3.1365 -1.1848
  106OSM   H11T10852   2.771   1.517   8.907  1.7906  1.9270  1.4160
  106OSM   C12S10853   2.748   1.339   8.800 -0.0854  0.2415 -0.7897
  106OSM   H12S10854   2.640   1.336   8.826  0.5512 -0.4377  2.0104
  106OSM   H12T10855   2.780   1.232   8.794 -0.4391  0.0593  0.4190
  106OSM   C13S10856   2.784   1.404   8.666  0.6531 -1.0154 -0.3439
  106OSM   H13S10857   2.779   1.515   8.670 -0.2667 -1.0659  0.1772
  106OSM   H13T10858   2.704   1.381   8.592  0.6940  0.7660 -0.9654
  106OSM   C14S10859   2.912   1.358   8.594  0.2130 -0.1399 -0.5353
  106OSM   H14S10860   2.999   1.378   8.660 -0.0720 -0.6393  0.0008
  106OSM   H14T10861   2.920   1.428   8.508  0.1162 -0.9458 -1.1973
  106OSM   C15S10862   2.906   1.220   8.533 -0.1473 -1.2172  0.1971
  106OSM   H15S10863   2.908   1.146   8.616  2.1928 -0.3112  0.9841
  106OSM   H15T10864   3.005   1.210   8.484  0.7895 -2.5601  2.2764
  106OSM   C16S10865   2.795   1.197   8.429  0.1007 -0.1367  0.1218
  106OSM   H16S10866   2.771   1.291   8.373  2.2392  0.7612  0.6443
  106OSM   H16T10867   2.704   1.194   8.491 -0.3229 -1.4002 -0.5567
  106OSM   C17S10868   2.801   1.060   8.355  0.1666 -0.0576 -0.1264
  106OSM   H17S10869   2.790   0.972   8.422 -0.8314  0.4960  0.4425
  106OSM   H17T10870   2.895   1.078   8.299 -0.0810 -2.6222 -1.4234
  106OSM   C18S10871   2.687   1.039   8.257  0.0699 -0.0255  0.2123
  106OSM   H18S10872   2.686   0.936   8.215 -0.9359 -0.4953  1.3619
  106OSM   H18T10873   2.708   1.104   8.169  0.3852  0.6928  0.8152
  106OSM   H18U10874   2.588   1.057   8.302  0.9425  0.1118  2.1327
  106OSM    C1F10875   2.474   1.879   9.798  0.3680  0.2382 -0.0644
  106OSM     OF10876   2.523   1.993   9.813  0.3336 -0.2263 -0.0840
  106OSM    C2F10877   2.330   1.853   9.761  1.1163 -0.8642 -0.7612
  106OSM    H2F10878   2.272   1.861   9.856  3.4680  1.4750  0.5703
  106OSM    H2G10879   2.315   1.755   9.710  0.7225 -2.5165  2.3934
  106OSM    C3F10880   2.270   1.975   9.675 -0.2820  0.3057 -0.6886
  106OSM    H3F10881   2.294   2.067   9.731  2.2192 -0.0588 -1.1085
  106OSM    H3G10882   2.160   1.961   9.662 -0.0848 -1.3158 -0.7368
  106OSM    C4F10883   2.329   1.984   9.534  0.0245  0.0635  0.2983
  106OSM    H4F10884   2.316   1.883   9.489 -0.8182  1.0702 -1.8124
  106OSM    H4G10885   2.438   2.005   9.538 -0.0466  0.8845 -1.4705
  106OSM    C5F10886   2.251   2.084   9.448  0.4387 -0.8834 -0.4898
  106OSM    H5F10887   2.263   2.191   9.475 -1.8649 -0.3671 -1.3700
  106OSM    H5G10888   2.141   2.072   9.459  0.3268 -1.9822 -2.4811
  106OSM    C6F10889   2.277   2.049   9.305  0.8200  0.7448  0.4037
  106OSM    H6F10890   2.232   2.137   9.254 -0.7956  0.1300  0.7320
  106OSM    H6G10891   2.212   1.960   9.289 -0.6714  1.8300  0.2898
  106OSM    C7F10892   2.416   2.011   9.252  0.2103 -0.4281  0.1186
  106OSM    H7F10893   2.462   1.928   9.308 -1.6733 -1.5521  0.0536
  106OSM    H7G10894   2.481   2.100   9.264  3.2944 -2.5753 -0.2173
  106OSM    C8F10895   2.399   1.964   9.103 -0.4985 -0.6475 -0.4205
  106OSM    H8F10896   2.318   2.025   9.057  0.0940  0.9753  0.6441
  106OSM    H8G10897   2.360   1.860   9.111 -1.5233 -0.3338 -1.2628
  106OSM    C9F10898   2.533   1.972   9.032 -0.0665  0.5870 -0.1491
  106OSM    H9F10899   2.572   2.075   9.029 -0.7267  0.8719  1.1110
  106OSM   C10F10900   2.601   1.884   8.958 -0.2228  0.8548  0.3213
  106OSM   H10F10901   2.693   1.907   8.902  0.5320 -0.7162  0.8848
  106OSM   C11F10902   2.568   1.748   8.918 -1.3628  0.5136 -0.3693
  106OSM   H11F10903   2.467   1.715   8.952 -1.0009 -1.6843 -1.3345
  106OSM   H11G10904   2.635   1.676   8.969 -1.1559  0.1726 -1.1215
  106OSM   C12F10905   2.580   1.713   8.771 -0.2368 -0.5058  0.4540
  106OSM   H12F10906   2.569   1.602   8.774 -2.2812 -0.2976  1.4284
  106OSM   H12G10907   2.682   1.733   8.732 -1.1792  1.6447 -0.9730
  106OSM   C13F10908   2.460   1.751   8.681 -0.5049  0.2122  0.5576
  106OSM   H13F10909   2.481   1.855   8.648  0.8422 -0.6675 -1.4403
  106OSM   H13G10910   2.369   1.748   8.746 -0.5273  0.0382  0.5187
  106OSM   C14F10911   2.471   1.663   8.553  0.0114  0.6149 -0.1613
  106OSM   H14F10912   2.470   1.556   8.583 -0.0523  0.6470 -0.0510
  106OSM   H14G10913   2.570   1.672   8.504 -0.9415  0.9734 -2.0836
  106OSM   C15F10914   2.355   1.678   8.455  0.3430 -0.1099  0.6110
  106OSM   H15F10915   2.270   1.698   8.525 -0.4355  2.6977 -1.0630
  106OSM   H15G10916   2.333   1.586   8.397 -1.8840  1.0159 -0.3814
  106OSM   C16F10917   2.390   1.799   8.366  0.3863 -0.1113  0.0257
  106OSM   H16F10918   2.488   1.776   8.319  0.5633 -2.1069  1.3016
  106OSM   H16G10919   2.389   1.893   8.425 -0.6500  1.1680 -1.9644
  106OSM   C17F10920   2.293   1.805   8.248 -0.2012  0.6617 -0.6597
  106OSM   H17F10921   2.186   1.831   8.266 -0.1424  0.0245  0.6890
  106OSM   H17G10922   2.299   1.709   8.192 -4.3527  0.1895 -0.4848
  106OSM   C18F10923   2.336   1.924   8.169 -0.4520 -0.1786 -0.0144
  106OSM   H18F10924   2.366   2.006   8.237  1.6253 -0.3346 -0.7110
  106OSM   H18G10925   2.253   1.952   8.101 -2.3443  0.9777  2.7066
  106OSM   H18H10926   2.424   1.898   8.106  0.6572  0.0100  1.4220
  107OSM      N10927   3.607   6.086  10.092 -0.7469  0.0467  0.3511
  107OSM    C1510928   3.532   6.072   9.961  0.2318  0.7106 -0.6687
  107OSM   H15A10929   3.599   6.093   9.879  0.6260  0.1556 -0.4904
  107OSM   H15B10930   3.465   6.157   9.964  0.0150  0.5539 -1.0894
  107OSM   H15C10931   3.479   5.978   9.958 -0.3990  1.0330  0.1498
  107OSM    C1410932   3.685   6.218  10.088  0.1043 -0.0519 -0.0620
  107OSM   H14A10933   3.614   6.299  10.075 -0.0636  0.1947  2.2427
  107OSM   H14B10934   3.754   6.225  10.006 -0.0513  0.6587 -0.1312
  107OSM   H14C10935   3.748   6.228  10.175 -0.5481  0.1412  0.3947
  107OSM    C1310936   3.514   6.093  10.206 -0.3563  0.0106  0.3867
  107OSM   H13A10937   3.456   6.002  10.218 -0.1083 -0.1988  0.0241
  107OSM   H13B10938   3.450   6.179  10.192 -0.5109 -0.3443 -1.1645
  107OSM   H13C10939   3.564   6.106  10.301  0.1405 -1.0914  0.2882
  107OSM    C1210940   3.703   5.964  10.096  0.8901 -0.1815 -0.5113
  107OSM   H12A10941   3.774   5.982  10.016 -0.2963 -0.0096 -1.5552
  107OSM   H12B10942   3.638   5.881  10.072 -0.4662  0.7963 -0.3203
  107OSM    C1110943   3.776   5.932  10.225 -0.1093 -0.8914  1.2284
  107OSM   H11A10944   3.807   6.032  10.261  0.5824 -0.8657  0.5701
  107OSM   H11B10945   3.872   5.884  10.195  0.5037  2.0663 -1.7475
  107OSM      P10946   3.650   5.709  10.286  0.2525 -0.3846 -0.4409
  107OSM    O1310947   3.716   5.607  10.371  0.3044 -0.5139  0.4345
  107OSM    O1410948   3.504   5.713  10.286 -0.2439  0.3155  0.2167
  107OSM    O1110949   3.697   5.670  10.139 -0.0049  0.1558  0.2419
  107OSM    O1210950   3.704   5.856  10.320 -0.2842  0.1700 -0.5267
  107OSM    C1S10951   3.603   5.613  10.045  0.1597 -0.3815  0.4835
  107OSM    H1S10952   3.501   5.654  10.056  0.1720  0.0138 -0.8391
  107OSM    H1T10953   3.577   5.509  10.073  0.6455 -1.0991 -1.6668
  107OSM     NF10954   3.538   5.589   9.807  0.3656  0.1488  0.1392
  107OSM    HNF10955   3.529   5.494   9.776  0.2441  0.4208 -0.6738
  107OSM    C2S10956   3.650   5.624   9.901 -0.6842 -0.5583 -0.1781
  107OSM    H2S10957   3.682   5.729   9.885 -2.3446 -0.2165 -1.4162
  107OSM    C3S10958   3.781   5.540   9.890  0.2752  0.3231 -0.5165
  107OSM    H3S10959   3.751   5.436   9.913 -2.3759  0.6336 -2.3284
  107OSM     O310960   3.884   5.578   9.973  0.6692  0.1231 -0.5502
  107OSM    HO310961   3.822   5.619  10.034  0.5221 -2.3440  1.0208
  107OSM    C4S10962   3.823   5.539   9.749 -0.7150 -0.0395 -0.0812
  107OSM    H4S10963   3.819   5.437   9.707  1.2690  0.1575 -0.7781
  107OSM    C5S10964   3.874   5.646   9.676 -0.3259 -0.3139 -0.9687
  107OSM    H5S10965   3.893   5.742   9.725  1.2893 -0.7054 -0.8016
  107OSM    C6S10966   3.919   5.641   9.537  0.3430  0.2222  0.8359
  107OSM    H6S10967   4.023   5.681   9.537  0.3238  0.2850 -0.8356
  107OSM    H6T10968   3.854   5.713   9.484 -0.2583 -0.8880  0.0421
  107OSM    C7S10969   3.902   5.514   9.452 -0.2540 -0.1711  0.4400
  107OSM    H7S10970   3.936   5.424   9.506  2.5957  0.8954  0.5146
  107OSM    H7T10971   3.970   5.519   9.365 -2.1042 -1.2428 -1.1076
  107OSM    C8S10972   3.758   5.479   9.401 -0.1392  0.1426  0.3146
  107OSM    H8S10973   3.709   5.576   9.377  1.2408  0.9716  0.7248
  107OSM    H8T10974   3.694   5.435   9.480 -0.6434 -1.5714 -1.0181
  107OSM    C9S10975   3.764   5.399   9.266  0.3448  0.7158  0.4430
  107OSM    H9S10976   3.818   5.305   9.291 -0.4897  0.3510  0.8694
  107OSM    H9T10977   3.822   5.466   9.198  0.1148 -0.6944 -1.1765
  107OSM   C10S10978   3.626   5.363   9.210  0.4651 -0.2615 -0.0541
  107OSM   H10S10979   3.553   5.440   9.243 -0.5149  0.0243 -2.7098
  107OSM   H10T10980   3.591   5.271   9.261 -1.2657  0.9672  0.9946
  107OSM   C11S10981   3.637   5.355   9.060 -0.3233 -0.1229 -0.7088
  107OSM   H11S10982   3.692   5.445   9.024 -1.8338  0.5758 -1.3370
  107OSM   H11T10983   3.541   5.365   9.005 -0.8802 -3.7075 -0.5120
  107OSM   C12S10984   3.697   5.226   9.004 -0.1319 -0.4043 -0.1877
  107OSM   H12S10985   3.628   5.144   9.031  1.1545 -1.2681  0.5633
  107OSM   H12T10986   3.787   5.209   9.068  0.0725 -2.6994 -1.0594
  107OSM   C13S10987   3.712   5.225   8.853 -0.4229  0.0911  0.3317
  107OSM   H13S10988   3.786   5.306   8.837  2.8216 -3.0422 -0.9431
  107OSM   H13T10989   3.617   5.245   8.798  0.1361 -0.6141 -0.9084
  107OSM   C14S10990   3.792   5.110   8.796  0.2210 -0.5053  0.4822
  107OSM   H14S10991   3.729   5.019   8.785 -0.5378 -0.1712  1.9069
  107OSM   H14T10992   3.873   5.082   8.867 -0.8610  1.0178  2.3918
  107OSM   C15S10993   3.858   5.150   8.665  0.1418 -0.2478  0.6884
  107OSM   H15S10994   3.928   5.235   8.676  0.0331  0.1291 -1.2968
  107OSM   H15T10995   3.772   5.187   8.605 -0.6159 -1.3209  1.0876
  107OSM   C16S10996   3.933   5.045   8.589 -0.7786 -0.4658 -1.2332
  107OSM   H16S10997   3.858   4.965   8.569 -2.8601  1.3128 -0.7884
  107OSM   H16T10998   4.011   4.998   8.652 -1.6714  1.0774  1.0679
  107OSM   C17S10999   3.987   5.107   8.457 -0.1961  0.2885  0.9468
  107OSM   H17S11000   4.040   5.200   8.484  0.0956  0.5953 -0.6656
  107OSM   H17T11001   3.900   5.131   8.392  0.7260  1.5210  0.1585
  107OSM   C18S11002   4.073   5.010   8.381 -0.4056  0.2711  0.9359
  107OSM   H18S11003   4.091   5.059   8.283 -0.5775 -1.2564  0.1376
  107OSM   H18T11004   4.006   4.923   8.369  1.8073 -1.5381  1.3783
  107OSM   H18U11005   4.157   4.972   8.444 -0.6006 -2.9012 -0.6263
  107OSM    C1F11006   3.441   5.678   9.792  0.0752  0.2463  0.2053
  107OSM     OF11007   3.442   5.784   9.850 -0.1783 -0.1488 -0.1824
  107OSM    C2F11008   3.324   5.644   9.700  0.6520  1.2554  0.5493
  107OSM    H2F11009   3.227   5.683   9.737  0.0017  0.4126 -0.2546
  107OSM    H2G11010   3.327   5.533   9.701 -1.4722  1.1730  1.3599
  107OSM    C3F11011   3.346   5.691   9.553  0.3338  0.3094  0.0238
  107OSM    H3F11012   3.452   5.727   9.550  1.2999 -2.1636  2.4426
  107OSM    H3G11013   3.296   5.788   9.537 -1.1877 -0.3544  0.6406
  107OSM    C4F11014   3.311   5.595   9.443 -0.2300  0.2193 -0.1612
  107OSM    H4F11015   3.202   5.570   9.446 -0.5750  1.5355 -1.6390
  107OSM    H4G11016   3.366   5.501   9.465  0.5731  0.9376  0.9400
  107OSM    C5F11017   3.357   5.645   9.303 -0.0151  0.2178  0.6041
  107OSM    H5F11018   3.465   5.618   9.293 -0.5942 -2.4578  1.1556
  107OSM    H5G11019   3.346   5.755   9.293  1.2259  0.1046 -2.9491
  107OSM    C6F11020   3.270   5.577   9.192 -0.0005  0.2484  0.1774
  107OSM    H6F11021   3.166   5.615   9.199 -0.0651  0.6336 -2.3387
  107OSM    H6G11022   3.253   5.468   9.202 -1.2494  0.3661 -0.5660
  107OSM    C7F11023   3.317   5.623   9.055  0.7433 -0.7838 -0.0011
  107OSM    H7F11024   3.418   5.579   9.037  0.0329 -1.7910 -1.5674
  107OSM    H7G11025   3.327   5.734   9.055  1.0429 -0.8076  1.1958
  107OSM    C8F11026   3.217   5.592   8.943 -0.6084  0.1440 -0.3318
  107OSM    H8F11027   3.120   5.645   8.955  0.2344  1.2783  1.6119
  107OSM    H8G11028   3.203   5.483   8.928 -0.5919 -0.0598  1.0705
  107OSM    C9F11029   3.248   5.649   8.801  0.5287  0.2461 -0.2318
  107OSM    H9F11030   3.191   5.742   8.781 -0.7915  0.5188  4.2942
  107OSM   C10F11031   3.324   5.596   8.702 -0.1584 -0.0664 -0.5946
  107OSM   H10F11032   3.334   5.654   8.610 -1.0573 -1.0377 -1.3232
  107OSM   C11F11033   3.404   5.467   8.713  0.5782 -0.2027  0.4359
  107OSM   H11F11034   3.359   5.400   8.790  1.8511 -2.2346 -0.5506
  107OSM   H11G11035   3.511   5.480   8.741  0.2308 -0.3563  1.9011
  107OSM   C12F11036   3.382   5.386   8.580  0.8577 -0.5014  0.2600
  107OSM   H12F11037   3.277   5.363   8.553  0.0916  3.1070 -0.0833
  107OSM   H12G11038   3.424   5.284   8.595  3.2592  0.2397 -1.0967
  107OSM   C13F11039   3.443   5.447   8.456 -0.3009 -0.0531 -0.3706
  107OSM   H13F11040   3.538   5.492   8.493 -1.3060  0.3361  1.8244
  107OSM   H13G11041   3.385   5.533   8.415 -1.2400 -0.2906  0.4411
  107OSM   C14F11042   3.480   5.348   8.345 -0.0827 -0.8620 -0.5050
  107OSM   H14F11043   3.570   5.293   8.378 -0.1305 -1.4838 -1.4053
  107OSM   H14G11044   3.507   5.399   8.250  0.4252 -0.3296 -0.0857
  107OSM   C15F11045   3.369   5.246   8.313  0.2080 -0.3761 -0.7069
  107OSM   H15F11046   3.284   5.311   8.282 -0.4979 -0.9228  0.0725
  107OSM   H15G11047   3.334   5.177   8.393 -2.2134 -1.8599 -2.9552
  107OSM   C16F11048   3.395   5.154   8.194 -0.1880 -0.3509  0.3653
  107OSM   H16F11049   3.503   5.126   8.195 -0.4556 -1.4206  0.3669
  107OSM   H16G11050   3.373   5.206   8.099 -2.2622 -1.6656  0.0908
  107OSM   C17F11051   3.316   5.018   8.200  0.5965 -0.7500  0.5956
  107OSM   H17F11052   3.339   4.969   8.298 -0.5438 -1.7855  0.3654
  107OSM   H17G11053   3.354   4.955   8.117  0.0634 -1.1368  0.6436
  107OSM   C18F11054   3.165   5.032   8.177 -0.0513  0.4425 -0.3826
  107OSM   H18F11055   3.115   5.087   8.260 -0.4066 -0.6534  0.1412
  107OSM   H18G11056   3.111   4.937   8.158 -0.7895  1.2305 -2.3339
  107OSM   H18H11057   3.147   5.091   8.084 -1.3697  2.1394  0.9053
  108OSM      N11058   1.256   3.294  10.483 -0.5810  0.4709 -0.0052
  108OSM    C1511059   1.171   3.393  10.409  0.3281 -0.0781 -0.0249
  108OSM   H15A11060   1.194   3.493  10.441  0.7678  0.3493 -1.6271
  108OSM   H15B11061   1.064   3.376  10.416 -0.2412  3.1791  0.2523
  108OSM   H15C11062   1.198   3.404  10.305 -1.3253  0.9460 -0.3807
  108OSM    C1411063   1.406   3.340  10.477  0.1907 -0.0331  0.6655
  108OSM   H14A11064   1.474   3.280  10.536  0.5118 -0.0346  0.2927
  108OSM   H14B11065   1.418   3.441  10.513 -0.8325  2.3841 -5.1908
  108OSM   H14C11066   1.436   3.355  10.375 -0.3809 -1.6624  0.2416
  108OSM    C1311067   1.216   3.311  10.622  0.2999  0.4127  0.3686
  108OSM   H13A11068   1.275   3.243  10.682 -1.5612 -2.3030 -0.7969
  108OSM   H13B11069   1.112   3.294  10.645  0.2058 -1.7185 -1.4219
  108OSM   H13C11070   1.229   3.414  10.652 -2.2360  1.2421 -1.1756
  108OSM    C1211071   1.240   3.149  10.434 -0.3049 -0.0494  0.3141
  108OSM   H12A11072   1.168   3.100  10.498 -0.0937 -0.2879  0.3695
  108OSM   H12B11073   1.331   3.100  10.464  1.1454  0.1218 -3.5449
  108OSM    C1111074   1.208   3.121  10.286  0.7276  0.4891  0.1182
  108OSM   H11A11075   1.122   3.187  10.258 -0.6092  0.1576  3.2224
  108OSM   H11B11076   1.167   3.018  10.273  1.2024  0.6403 -2.8785
  108OSM      P11077   1.469   3.082  10.232 -0.3414 -0.0408  0.0985
  108OSM    O1311078   1.572   3.186  10.204 -0.1042  0.0246  0.2124
  108OSM    O1411079   1.477   3.014  10.363  0.6407  0.8081  0.0342
  108OSM    O1111080   1.473   2.981  10.120  0.5528  0.4441  0.2707
  108OSM    O1211081   1.329   3.148  10.215  0.1888 -0.4725  0.6301
  108OSM    C1S11082   1.365   2.968  10.027  0.4162  0.2864 -0.0837
  108OSM    H1S11083   1.375   3.053   9.957  1.3497  0.5142  0.3205
  108OSM    H1T11084   1.266   2.979  10.075  0.3305 -1.2217  0.1167
  108OSM     NF11085   1.259   2.833   9.862  0.7667 -0.2790 -0.5623
  108OSM    HNF11086   1.182   2.788   9.906  1.1768 -0.0198  0.4467
  108OSM    C2S11087   1.377   2.842   9.948  0.2056 -0.1074  0.8638
  108OSM    H2S11088   1.466   2.850   9.882  0.7304  1.1955  1.7261
  108OSM    C3S11089   1.385   2.715  10.034  0.7952  0.7056  0.3411
  108OSM    H3S11090   1.305   2.729  10.109  0.6915 -0.5878  0.4708
  108OSM     O311091   1.511   2.720  10.103 -0.4004  0.0720 -0.2999
  108OSM    HO311092   1.540   2.811  10.115 -1.0110  0.2687 -0.2609
  108OSM    C4S11093   1.376   2.586   9.953  0.2681  0.1847  0.3530
  108OSM    H4S11094   1.469   2.580   9.895  1.3718  1.6957  1.9409
  108OSM    C5S11095   1.264   2.500   9.941 -0.3696 -0.0291 -0.0088
  108OSM    H5S11096   1.174   2.531   9.995 -1.7419 -2.2359 -0.9388
  108OSM    C6S11097   1.243   2.374   9.862 -0.2398 -0.2674  0.6739
  108OSM    H6S11098   1.154   2.417   9.811  1.0001  0.3293 -1.0018
  108OSM    H6T11099   1.208   2.294   9.931 -0.8664  2.4184  3.5965
  108OSM    C7S11100   1.358   2.331   9.775 -0.1597  0.2012  0.6804
  108OSM    H7S11101   1.455   2.325   9.829  1.7891 -0.6752 -2.7314
  108OSM    H7T11102   1.372   2.398   9.687 -1.3579 -0.7900 -0.2858
  108OSM    C8S11103   1.336   2.193   9.714 -0.5744 -0.4469 -0.0328
  108OSM    H8S11104   1.240   2.205   9.660 -0.1139 -2.4192 -1.3101
  108OSM    H8T11105   1.359   2.117   9.792 -1.4615  0.2052  0.8839
  108OSM    C9S11106   1.445   2.170   9.610 -0.6593 -0.2108 -0.4302
  108OSM    H9S11107   1.456   2.062   9.587 -0.8718 -0.0620 -1.2737
  108OSM    H9T11108   1.543   2.202   9.649  0.8617 -2.4890 -2.2128
  108OSM   C10S11109   1.422   2.229   9.467 -0.7773  0.0942  0.1492
  108OSM   H10S11110   1.425   2.339   9.477  1.5082 -0.1646  2.8133
  108OSM   H10T11111   1.331   2.190   9.415 -1.2295  1.7761 -0.3391
  108OSM   C11S11112   1.549   2.194   9.382 -0.1487  0.1988 -0.4281
  108OSM   H11S11113   1.561   2.085   9.368 -1.5225 -0.0763  0.4495
  108OSM   H11T11114   1.632   2.236   9.442 -0.7163  1.0960 -0.2498
  108OSM   C12S11115   1.542   2.255   9.241  0.3008 -0.4542 -0.0502
  108OSM   H12S11116   1.500   2.357   9.252 -0.1382 -0.5983 -0.3865
  108OSM   H12T11117   1.486   2.193   9.168  0.9204  0.7770 -1.6068
  108OSM   C13S11118   1.686   2.272   9.182 -0.0153 -0.1573 -0.7512
  108OSM   H13S11119   1.715   2.166   9.166  1.7206  0.3566 -1.1204
  108OSM   H13T11120   1.742   2.331   9.258 -0.3637  0.2105 -0.7843
  108OSM   C14S11121   1.702   2.349   9.047  0.0033 -0.1430  0.1595
  108OSM   H14S11122   1.674   2.456   9.063 -1.0467 -0.2536 -0.8656
  108OSM   H14T11123   1.621   2.314   8.979  0.4671 -1.9713  0.5410
  108OSM   C15S11124   1.838   2.315   8.992 -0.1901 -0.2616  0.6677
  108OSM   H15S11125   1.918   2.352   9.061 -0.0843  0.6627  0.0610
  108OSM   H15T11126   1.856   2.372   8.898 -0.1578 -0.4282  0.5731
  108OSM   C16S11127   1.873   2.166   8.968 -0.8709  0.2284 -1.1042
  108OSM   H16S11128   1.786   2.122   8.913  0.4312 -0.1662 -2.9040
  108OSM   H16T11129   1.883   2.108   9.062 -0.5515 -1.5462 -2.2001
  108OSM   C17S11130   1.996   2.133   8.881  0.8765 -0.1376  0.6174
  108OSM   H17S11131   2.084   2.191   8.916  0.6911 -0.1348  1.0771
  108OSM   H17T11132   1.967   2.163   8.778  0.4793 -0.9082  0.4981
  108OSM   C18S11133   2.028   1.982   8.872  0.7190 -0.1209  0.0315
  108OSM   H18S11134   1.957   1.929   8.805  0.8744 -0.8700  0.4546
  108OSM   H18T11135   2.022   1.922   8.965 -1.2590  1.2987  0.8545
  108OSM   H18U11136   2.130   1.967   8.828 -0.3660  0.1062 -2.6765
  108OSM    C1F11137   1.240   2.909   9.750 -0.0684  0.3003 -0.1185
  108OSM     OF11138   1.328   2.977   9.700 -0.2720 -0.5448 -0.4549
  108OSM    C2F11139   1.095   2.926   9.706  0.2268  0.6592  0.5843
  108OSM    H2F11140   1.068   3.032   9.686 -1.8600 -0.3342 -2.3007
  108OSM    H2G11141   1.036   2.891   9.794 -1.5612  0.9254 -0.4891
  108OSM    C3F11142   1.062   2.848   9.579  0.6041  0.3142  0.8826
  108OSM    H3F11143   1.114   2.895   9.493 -1.8786 -2.1936 -2.0706
  108OSM    H3G11144   0.954   2.865   9.564  1.2991  3.0305 -1.5434
  108OSM    C4F11145   1.086   2.699   9.587  0.6263  1.1076  0.1073
  108OSM    H4F11146   1.010   2.655   9.654 -0.0402  1.4620 -0.4041
  108OSM    H4G11147   1.188   2.662   9.609 -0.7625 -2.3632  0.9380
  108OSM    C5F11148   1.056   2.627   9.445  0.5942  0.1488  0.2235
  108OSM    H5F11149   1.071   2.517   9.455 -0.5726 -0.1866 -1.5254
  108OSM    H5G11150   1.117   2.668   9.362  0.4399  1.0363  0.5451
  108OSM    C6F11151   0.905   2.624   9.415  0.4097  0.3378 -0.2403
  108OSM    H6F11152   0.848   2.608   9.509  1.2632 -2.4980 -0.1399
  108OSM    H6G11153   0.887   2.538   9.346  0.8405 -0.2188  0.3336
  108OSM    C7F11154   0.861   2.745   9.332  0.7067  0.8204  0.2247
  108OSM    H7F11155   0.924   2.832   9.362  0.7639  1.0455 -0.5156
  108OSM    H7G11156   0.752   2.755   9.350  0.4121  0.2606 -1.1791
  108OSM    C8F11157   0.878   2.704   9.188 -0.1882 -0.0943  0.2279
  108OSM    H8F11158   0.793   2.646   9.147 -0.1610 -2.4414  3.3088
  108OSM    H8G11159   0.968   2.638   9.189  0.1658  0.3946  1.1343
  108OSM    C9F11160   0.905   2.834   9.113  0.3724 -0.1124 -0.0766
  108OSM    H9F11161   0.846   2.917   9.153  1.9421  0.4164  1.2017
  108OSM   C10F11162   0.996   2.858   9.016 -0.5855  0.5841  0.3429
  108OSM   H10F11163   1.006   2.958   8.971 -2.3940  1.0735  0.9814
  108OSM   C11F11164   1.081   2.743   8.957 -0.0257 -0.7992 -0.4592
  108OSM   H11F11165   1.077   2.654   9.024  0.3379 -0.5750 -0.1365
  108OSM   H11G11166   1.188   2.770   8.949  0.1796 -1.2322  0.7286
  108OSM   C12F11167   1.031   2.700   8.820  0.4044  0.2987 -0.6462
  108OSM   H12F11168   0.926   2.665   8.828 -0.2474  2.1274 -0.8671
  108OSM   H12G11169   1.093   2.619   8.777 -0.0267 -1.0566  1.2023
  108OSM   C13F11170   1.016   2.812   8.717 -0.0130 -0.2085  0.0365
  108OSM   H13F11171   1.091   2.889   8.744 -2.0772  1.1154  2.2370
  108OSM   H13G11172   0.917   2.863   8.726  0.0832  0.6657 -2.9678
  108OSM   C14F11173   1.031   2.757   8.565  0.3300  0.3300 -0.0453
  108OSM   H14F11174   0.970   2.821   8.498 -1.2241 -0.8717  0.2091
  108OSM   H14G11175   1.008   2.648   8.566  2.5122 -0.2210 -2.5352
  108OSM   C15F11176   1.174   2.771   8.514 -0.1837 -0.3604 -0.5654
  108OSM   H15F11177   1.243   2.696   8.558 -0.1891  0.4098  0.7515
  108OSM   H15G11178   1.226   2.862   8.551 -0.7319 -0.4372  0.3827
  108OSM   C16F11179   1.191   2.767   8.361  0.6107  0.4035  0.7789
  108OSM   H16F11180   1.293   2.800   8.330  1.2042 -2.4686 -0.4680
  108OSM   H16G11181   1.122   2.841   8.315  2.2722  1.0398 -0.7956
  108OSM   C17F11182   1.141   2.646   8.292  0.0990  0.5636 -0.0868
  108OSM   H17F11183   1.132   2.669   8.184  2.2025  0.1209 -0.3635
  108OSM   H17G11184   1.032   2.629   8.310 -0.0545 -0.3513 -1.7448
  108OSM   C18F11185   1.216   2.521   8.316 -0.3903 -0.6239  0.1172
  108OSM   H18F11186   1.246   2.506   8.422  3.7930 -0.7000 -0.9869
  108OSM   H18G11187   1.313   2.527   8.262 -0.8490  1.6560 -0.4758
  108OSM   H18H11188   1.175   2.429   8.270 -0.7136 -1.0460  1.2265
  109OSM      N11189   0.979   3.765  10.118  0.4499 -0.1392 -0.4893
  109OSM    C1511190   0.901   3.848  10.017  0.6712 -0.2122 -0.5324
  109OSM   H15A11191   0.813   3.792   9.987 -1.2679  1.1413  2.4410
  109OSM   H15B11192   0.957   3.879   9.931  1.5274  0.3489  0.2237
  109OSM   H15C11193   0.867   3.934  10.072  1.1335 -0.7962  0.7016
  109OSM    C1411194   0.886   3.754  10.233 -0.1613 -0.1962  0.2159
  109OSM   H14A11195   0.845   3.853  10.247 -0.0295 -0.2293  0.8621
  109OSM   H14B11196   0.931   3.726  10.327 -1.1256 -0.4728  0.6036
  109OSM   H14C11197   0.801   3.690  10.215 -1.0515  1.1794 -0.5221
  109OSM    C1311198   1.005   3.633  10.057  0.4354  0.6635 -0.2781
  109OSM   H13A11199   1.064   3.634   9.967  1.8403  0.2381  0.6279
  109OSM   H13B11200   0.914   3.587  10.022  0.4150  0.4739  0.0156
  109OSM   H13C11201   1.055   3.558  10.117 -0.5455 -1.5426 -2.1566
  109OSM    C1211202   1.111   3.843  10.152  0.0317 -0.6889 -0.1395
  109OSM   H12A11203   1.164   3.850  10.058 -0.2294 -0.4616 -0.2713
  109OSM   H12B11204   1.168   3.779  10.218 -1.7941 -2.2402 -0.0202
  109OSM    C1111205   1.099   3.978  10.211  0.0698 -0.1733 -0.2796
  109OSM   H11A11206   1.202   4.014  10.231  0.1894  0.1761 -1.4490
  109OSM   H11B11207   1.047   3.965  10.308  0.2170  1.5558  0.0580
  109OSM      P11208   1.094   4.189  10.040  0.4259  0.1692  0.1241
  109OSM    O1311209   1.005   4.218   9.926 -0.1328 -0.2205 -0.1969
  109OSM    O1411210   1.124   4.294  10.142 -0.4647  0.3795 -0.0797
  109OSM    O1111211   1.227   4.138   9.980  0.2066  0.1519 -0.0291
  109OSM    O1211212   1.031   4.069  10.121 -0.5141  0.0945  0.7087
  109OSM    C1S11213   1.252   4.030   9.896  0.4184  0.1144 -0.6219
  109OSM    H1S11214   1.169   3.956   9.899 -4.5121  5.3252  0.0462
  109OSM    H1T11215   1.352   3.984   9.913 -0.0118  0.0675  1.9710
  109OSM     NF11216   1.256   3.937   9.666 -0.2310  0.1125  0.2594
  109OSM    HNF11217   1.344   3.922   9.623 -1.7369  1.4614 -3.4767
  109OSM    C2S11218   1.250   4.066   9.739  0.8603 -0.4275 -0.6426
  109OSM    H2S11219   1.157   4.123   9.716 -0.3258 -0.7642  2.9948
  109OSM    C3S11220   1.365   4.156   9.714 -0.1963  0.3526 -0.3277
  109OSM    H3S11221   1.447   4.086   9.740  0.4695  0.4728 -2.0444
  109OSM     O311222   1.373   4.281   9.788  0.0528  0.1032  0.7809
  109OSM    HO311223   1.348   4.249   9.875 -0.2583  1.3543  1.1708
  109OSM    C4S11224   1.371   4.180   9.563 -1.4631 -0.3834  0.2554
  109OSM    H4S11225   1.275   4.179   9.508  0.3190  0.2182 -3.0328
  109OSM    C5S11226   1.479   4.192   9.487 -0.7470 -0.0233  0.6011
  109OSM    H5S11227   1.581   4.177   9.527 -0.6105  1.2114  0.7367
  109OSM    C6S11228   1.490   4.207   9.333  0.4719  0.1933 -0.0467
  109OSM    H6S11229   1.554   4.290   9.297  1.4135 -0.5881 -0.1733
  109OSM    H6T11230   1.390   4.225   9.288  0.5480 -1.4480 -0.9214
  109OSM    C7S11231   1.547   4.077   9.274  0.2327  0.4295 -0.3588
  109OSM    H7S11232   1.489   3.987   9.302 -0.9677  1.1293 -0.5420
  109OSM    H7T11233   1.650   4.056   9.307 -0.4725  0.5400  1.9831
  109OSM    C8S11234   1.546   4.085   9.116 -0.1812 -0.2033 -0.0560
  109OSM    H8S11235   1.612   4.173   9.100  1.7907 -1.8390 -1.0792
  109OSM    H8T11236   1.450   4.129   9.082  0.0979 -1.8164 -3.0630
  109OSM    C9S11237   1.603   3.966   9.042  0.5339 -0.1927  0.3707
  109OSM    H9S11238   1.515   3.903   9.015  1.4253 -1.5820  0.7022
  109OSM    H9T11239   1.683   3.910   9.094 -0.2140 -0.2599  1.4674
  109OSM   C10S11240   1.661   4.008   8.909  0.2302 -0.1159  0.0245
  109OSM   H10S11241   1.744   4.078   8.932 -0.5288  0.5982  0.6458
  109OSM   H10T11242   1.585   4.055   8.841  0.8069  0.2036 -0.4011
  109OSM   C11S11243   1.708   3.886   8.827 -0.1558 -0.7894  0.0452
  109OSM   H11S11244   1.638   3.800   8.826 -1.0745 -0.0520  0.1457
  109OSM   H11T11245   1.804   3.860   8.877  1.0839  0.6032 -1.5659
  109OSM   C12S11246   1.744   3.925   8.679  0.0758  0.4808 -0.3626
  109OSM   H12S11247   1.801   4.021   8.684 -0.3057  0.5718  5.2031
  109OSM   H12T11248   1.648   3.937   8.626  1.0686  0.8203 -2.1340
  109OSM   C13S11249   1.824   3.816   8.614 -0.3355 -0.0531 -0.6674
  109OSM   H13S11250   1.764   3.722   8.614  0.3117 -0.4913 -2.1913
  109OSM   H13T11251   1.921   3.808   8.667  0.2595 -0.4563 -1.8004
  109OSM   C14S11252   1.855   3.847   8.464  0.1393 -0.2710 -0.9332
  109OSM   H14S11253   1.900   3.948   8.453 -2.1666  0.8618 -0.4651
  109OSM   H14T11254   1.749   3.840   8.431 -0.1149  0.3401 -0.2784
  109OSM   C15S11255   1.940   3.737   8.401  0.0005 -0.3929 -0.4791
  109OSM   H15S11256   1.920   3.634   8.438  0.7720 -0.3295  0.1293
  109OSM   H15T11257   2.046   3.769   8.415  0.0723 -0.3471 -1.0984
  109OSM   C16S11258   1.918   3.740   8.254  0.3063  0.2215  0.3299
  109OSM   H16S11259   1.953   3.836   8.210  0.7611  0.4163  1.1066
  109OSM   H16T11260   1.808   3.744   8.240  0.6062 -0.0778 -2.5835
  109OSM   C17S11261   1.968   3.615   8.184  0.5902  0.0119  0.1290
  109OSM   H17S11262   1.913   3.536   8.240  0.6421 -0.7942 -0.9514
  109OSM   H17T11263   2.078   3.599   8.187  0.4751 -0.8762 -0.1648
  109OSM   C18S11264   1.941   3.615   8.029 -0.1370  0.3994 -0.7830
  109OSM   H18S11265   1.987   3.704   7.980  0.2354  1.6846  1.8161
  109OSM   H18T11266   1.831   3.610   8.013 -0.0240 -3.6203 -0.6754
  109OSM   H18U11267   1.983   3.520   7.989 -0.7483 -1.1138  2.0719
  109OSM    C1F11268   1.153   3.856   9.641 -0.2360  0.6887 -0.3564
  109OSM     OF11269   1.039   3.892   9.657 -0.8023  0.8568 -0.3078
  109OSM    C2F11270   1.187   3.720   9.595  1.1208  0.0179  0.2206
  109OSM    H2F11271   1.116   3.649   9.642  0.8741  0.9411  1.2653
  109OSM    H2G11272   1.283   3.688   9.640  1.0950  0.7717  0.8356
  109OSM    C3F11273   1.190   3.708   9.451  0.3890  0.5607 -0.2194
  109OSM    H3F11274   1.258   3.626   9.419  1.7636  1.3911  0.4962
  109OSM    H3G11275   1.242   3.796   9.406  2.0910  0.0017  0.5954
  109OSM    C4F11276   1.044   3.690   9.399 -0.1181  0.3954  0.3564
  109OSM    H4F11277   0.995   3.790   9.404  1.4110  1.1008  1.7738
  109OSM    H4G11278   0.986   3.625   9.468 -0.8413 -1.1578 -1.6576
  109OSM    C5F11279   1.046   3.629   9.254 -0.4351 -0.3573 -0.3390
  109OSM    H5F11280   0.943   3.598   9.227 -0.5892 -0.7190  0.6465
  109OSM    H5G11281   1.107   3.536   9.260  0.4478  0.1693 -1.0838
  109OSM    C6F11282   1.118   3.716   9.141  0.4124 -0.2295 -0.2477
  109OSM    H6F11283   1.226   3.720   9.166  0.7069 -2.6539 -1.0156
  109OSM    H6G11284   1.080   3.821   9.143 -0.9095 -0.6987 -0.6033
  109OSM    C7F11285   1.120   3.658   9.004  0.0672 -0.6939 -1.1101
  109OSM    H7F11286   1.017   3.625   8.978 -0.3029  0.3560 -0.9905
  109OSM    H7G11287   1.177   3.563   9.016 -0.8493 -1.1467 -0.1805
  109OSM    C8F11288   1.181   3.754   8.901  0.2774  0.5691  0.1756
  109OSM    H8F11289   1.282   3.786   8.934 -0.4364  2.5088  0.5114
  109OSM    H8G11290   1.126   3.849   8.884  0.1753  0.9032  2.2285
  109OSM    C9F11291   1.200   3.696   8.761  0.5253  0.0441 -0.1999
  109OSM    H9F11292   1.136   3.612   8.733  0.9124 -0.5369  0.6498
  109OSM   C10F11293   1.289   3.743   8.670  0.4181 -0.2427 -0.7632
  109OSM   H10F11294   1.304   3.680   8.582  3.0118 -1.5182  0.5429
  109OSM   C11F11295   1.385   3.855   8.693 -0.2390  0.5045 -0.1530
  109OSM   H11F11296   1.480   3.835   8.640 -1.0137 -1.0510 -0.9758
  109OSM   H11G11297   1.418   3.865   8.799 -0.8603 -1.8156  0.2841
  109OSM   C12F11298   1.334   3.994   8.641 -0.3611  0.5211 -0.5439
  109OSM   H12F11299   1.418   4.056   8.679 -0.4855  1.2325 -1.4152
  109OSM   H12G11300   1.240   4.011   8.698 -1.0576  0.4355 -1.6438
  109OSM   C13F11301   1.305   4.019   8.485 -0.8278  0.3750  0.8489
  109OSM   H13F11302   1.290   4.126   8.462 -0.7845 -0.1853 -2.0198
  109OSM   H13G11303   1.216   3.961   8.452  1.2931 -1.5798 -1.7147
  109OSM   C14F11304   1.424   3.968   8.405 -0.1663 -0.9233 -0.2453
  109OSM   H14F11305   1.438   3.857   8.401 -1.2784 -1.0409 -0.9970
  109OSM   H14G11306   1.520   4.000   8.450  0.8445 -0.4670 -2.6481
  109OSM   C15F11307   1.399   4.009   8.255 -0.8116  0.3043 -0.3674
  109OSM   H15F11308   1.379   4.118   8.264  2.8779  1.0522 -0.2006
  109OSM   H15G11309   1.301   3.964   8.227 -1.8233 -0.1433  3.5506
  109OSM   C16F11310   1.516   3.975   8.166  0.3097  0.4459  0.1259
  109OSM   H16F11311   1.533   3.867   8.148  0.6264  0.4731  0.2629
  109OSM   H16G11312   1.602   4.021   8.219 -0.2696  1.7057 -0.0122
  109OSM   C17F11313   1.507   4.035   8.029 -0.4456 -0.0057  0.2130
  109OSM   H17F11314   1.418   4.004   7.971  1.5550 -0.5910 -2.6827
  109OSM   H17G11315   1.595   3.995   7.973 -2.3645 -0.9300 -2.2558
  109OSM   C18F11316   1.520   4.192   8.034  0.3988  0.3080  0.4558
  109OSM   H18F11317   1.429   4.237   8.079  0.6797  1.1089  0.2342
  109OSM   H18G11318   1.532   4.223   7.928  1.4095 -0.1458  0.4250
  109OSM   H18H11319   1.613   4.225   8.085  0.8495 -1.3190  0.7181
  110OSM      N11320   2.213   4.782   9.971 -0.0424  0.3780 -0.2441
  110OSM    C1511321   2.288   4.735   9.847  0.3198  0.2205 -0.4267
  110OSM   H15A11322   2.394   4.738   9.865  0.1316  0.0009  0.7594
  110OSM   H15B11323   2.267   4.801   9.765 -2.1572 -0.7207 -0.5904
  110OSM   H15C11324   2.283   4.628   9.834  2.8630 -0.2327  1.8662
  110OSM    C1411325   2.282   4.739  10.095  0.2621  0.3090 -0.2308
  110OSM   H14A11326   2.259   4.635  10.113  2.3228 -0.2035 -0.4370
  110OSM   H14B11327   2.239   4.790  10.180 -1.9652  0.0992 -1.1849
  110OSM   H14C11328   2.389   4.748  10.101  0.3457 -1.0778  0.8080
  110OSM    C1311329   2.217   4.931   9.980 -0.4668 -0.2164 -0.2195
  110OSM   H13A11330   2.170   4.971  10.069 -0.3135  3.2827 -1.6265
  110OSM   H13B11331   2.165   4.981   9.900 -0.8130 -1.9156 -1.0698
  110OSM   H13C11332   2.320   4.961   9.996 -0.4884  0.3089 -1.0430
  110OSM    C1211333   2.069   4.729   9.971  0.0333 -0.2744  0.9226
  110OSM   H12A11334   2.022   4.764  10.061 -1.3329 -1.0139  0.5115
  110OSM   H12B11335   2.074   4.623   9.988  1.1238 -0.6799 -1.6671
  110OSM    C1111336   1.987   4.766   9.858  0.7449  0.7905 -0.2596
  110OSM   H11A11337   2.010   4.702   9.770 -0.9124  1.4877 -1.2341
  110OSM   H11B11338   2.019   4.867   9.826  1.4458  0.0792 -1.8470
  110OSM      P11339   1.780   4.881   9.968  0.1484 -0.1741  0.0737
  110OSM    O1311340   1.632   4.854   9.970 -0.2367 -0.1316  0.1201
  110OSM    O1411341   1.841   4.894  10.099 -0.7367 -0.2281 -0.5667
  110OSM    O1111342   1.810   5.007   9.889 -0.1110 -0.0472  0.2433
  110OSM    O1211343   1.852   4.761   9.895 -0.4561 -0.5016  0.3837
  110OSM    C1S11344   1.723   5.061   9.789  0.2515  0.1722 -0.0868
  110OSM    H1S11345   1.742   5.164   9.752 -1.3015  0.2134 -0.8166
  110OSM    H1T11346   1.618   5.066   9.826  1.4388  0.4208  3.4881
  110OSM     NF11347   1.772   5.066   9.552  0.7434 -0.6748  0.1707
  110OSM    HNF11348   1.710   5.124   9.501  0.2977 -0.7169  0.6659
  110OSM    C2S11349   1.720   4.976   9.659  0.1869 -0.8187 -1.0103
  110OSM    H2S11350   1.790   4.890   9.673  0.9742 -0.7887 -4.3278
  110OSM    C3S11351   1.574   4.923   9.627 -1.1623  0.3469 -0.4727
  110OSM    H3S11352   1.502   5.008   9.623 -0.1018  1.2476 -0.6982
  110OSM     O311353   1.516   4.834   9.718  0.5771  0.2809  0.3371
  110OSM    HO311354   1.580   4.815   9.787  1.1667 -1.0292 -0.5622
  110OSM    C4S11355   1.577   4.864   9.491 -1.0226  0.1071 -0.4048
  110OSM    H4S11356   1.520   4.919   9.415  2.0651 -0.8589 -3.5360
  110OSM    C5S11357   1.626   4.744   9.453 -0.4469  1.3940  0.1160
  110OSM    H5S11358   1.682   4.682   9.524  0.2313  0.7666 -0.9698
  110OSM    C6S11359   1.621   4.687   9.314  0.1361 -1.0522 -0.2635
  110OSM    H6S11360   1.558   4.595   9.318 -2.7099  0.8541  0.5782
  110OSM    H6T11361   1.725   4.661   9.289  1.4058  2.3455  1.1540
  110OSM    C7S11362   1.569   4.779   9.196  0.0706 -0.7225 -0.4505
  110OSM    H7S11363   1.637   4.867   9.198 -1.2687  0.3084  1.2728
  110OSM    H7T11364   1.469   4.816   9.228 -0.4447 -0.7494 -1.9879
  110OSM    C8S11365   1.555   4.713   9.058  0.1454 -0.6602 -0.5571
  110OSM    H8S11366   1.477   4.634   9.064 -0.9298  0.6085  2.8399
  110OSM    H8T11367   1.651   4.659   9.041  0.9061  0.4112  0.2289
  110OSM    C9S11368   1.544   4.813   8.943  0.0424  0.2227  0.4545
  110OSM    H9S11369   1.613   4.900   8.947  1.1973 -0.4807 -2.8645
  110OSM    H9T11370   1.436   4.839   8.942  0.0172  0.1191  0.5787
  110OSM   C10S11371   1.587   4.750   8.810  0.0382 -0.1144 -0.2029
  110OSM   H10S11372   1.689   4.711   8.830 -0.5101 -0.5651  1.8242
  110OSM   H10T11373   1.592   4.827   8.729 -0.4686 -0.1482 -0.2701
  110OSM   C11S11374   1.492   4.638   8.768  0.0682 -0.1979 -0.2325
  110OSM   H11S11375   1.409   4.680   8.707 -0.1193  0.7741  0.6857
  110OSM   H11T11376   1.458   4.583   8.858  0.5748 -0.9436 -0.4899
  110OSM   C12S11377   1.580   4.531   8.688  0.5570 -0.2660  0.4194
  110OSM   H12S11378   1.677   4.515   8.740  2.6381  1.0061 -2.9591
  110OSM   H12T11379   1.605   4.592   8.599 -0.2997 -2.3599 -1.2893
  110OSM   C13S11380   1.508   4.397   8.657  0.0317 -0.6309  0.0607
  110OSM   H13S11381   1.423   4.412   8.587 -1.3812 -3.5420  1.0595
  110OSM   H13T11382   1.452   4.367   8.748  2.1241  0.6080  1.8065
  110OSM   C14S11383   1.591   4.287   8.602 -0.2063 -0.0657  0.0485
  110OSM   H14S11384   1.531   4.195   8.585 -0.2211  0.3514 -2.2183
  110OSM   H14T11385   1.680   4.271   8.666  1.0543  0.9812 -1.4285
  110OSM   C15S11386   1.625   4.330   8.458 -0.1329 -0.0956  0.1039
  110OSM   H15S11387   1.665   4.433   8.464 -2.9907  1.0126  0.9169
  110OSM   H15T11388   1.539   4.325   8.387 -0.4869 -0.2126  0.5344
  110OSM   C16S11389   1.737   4.244   8.396  0.3193 -0.0758 -0.8108
  110OSM   H16S11390   1.758   4.272   8.291  2.9598  0.2740 -0.2406
  110OSM   H16T11391   1.713   4.136   8.382  1.3123 -0.7644  2.2366
  110OSM   C17S11392   1.881   4.262   8.454  0.8718  0.5786  0.3362
  110OSM   H17S11393   1.965   4.203   8.413  0.3163  0.1360 -0.1756
  110OSM   H17T11394   1.877   4.221   8.558  0.3336  0.7478  0.3860
  110OSM   C18S11395   1.926   4.409   8.456 -0.1656  0.2484 -0.2614
  110OSM   H18S11396   1.933   4.447   8.352 -0.3234  0.8284 -0.0642
  110OSM   H18T11397   2.027   4.422   8.500 -0.4118 -1.1275  0.7447
  110OSM   H18U11398   1.862   4.473   8.520 -1.4977  0.4137 -1.7086
  110OSM    C1F11399   1.899   5.093   9.547  0.2730 -0.2708  0.3410
  110OSM     OF11400   1.973   5.063   9.641  0.0238 -0.0685  0.1823
  110OSM    C2F11401   1.932   5.177   9.424 -1.2452  0.2658  0.0767
  110OSM    H2F11402   2.005   5.253   9.457  1.1116 -0.9694 -2.1113
  110OSM    H2G11403   1.843   5.228   9.382  0.2007  1.0724 -2.0791
  110OSM    C3F11404   1.995   5.092   9.316  0.5930 -0.2247 -0.3396
  110OSM    H3F11405   2.080   5.027   9.346  1.1582  0.9595  0.6560
  110OSM    H3G11406   2.027   5.153   9.229 -0.1346  0.1038 -0.3827
  110OSM    C4F11407   1.899   4.982   9.259 -0.4643  0.8593 -0.8440
  110OSM    H4F11408   1.798   5.020   9.235 -0.9570  0.2200  0.1920
  110OSM    H4G11409   1.891   4.913   9.345  0.4710 -0.0186 -1.4566
  110OSM    C5F11410   1.968   4.907   9.143 -0.6584  0.0844  0.3888
  110OSM    H5F11411   1.920   4.807   9.140 -1.7001  0.5408  1.2802
  110OSM    H5G11412   2.073   4.889   9.175 -1.1853  1.1166  2.8934
  110OSM    C6F11413   1.964   4.994   9.013  0.2330 -0.0759  0.7412
  110OSM    H6F11414   1.988   5.101   9.027  0.1540  0.0315  0.1023
  110OSM    H6G11415   1.862   4.993   8.969 -0.4177 -0.4905  2.2424
  110OSM    C7F11416   2.057   4.929   8.903  0.3883 -0.1205 -0.8547
  110OSM    H7F11417   2.038   4.821   8.885  1.6821 -0.2687 -1.4051
  110OSM    H7G11418   2.167   4.939   8.917  0.3230  0.6056 -0.8569
  110OSM    C8F11419   2.018   4.995   8.763  0.2071  0.0333  0.1781
  110OSM    H8F11420   2.108   4.981   8.700  1.1708  1.2395  1.2416
  110OSM    H8G11421   2.024   5.105   8.782  2.9587 -0.1643  0.7359
  110OSM    C9F11422   1.896   4.958   8.682  0.5156  0.5938  0.1094
  110OSM    H9F11423   1.834   4.870   8.708 -0.4814  0.3067 -3.0043
  110OSM   C10F11424   1.848   5.018   8.568  0.1752  0.0141 -0.7239
  110OSM   H10F11425   1.750   4.985   8.530  0.3702 -1.4635  0.0282
  110OSM   C11F11426   1.908   5.145   8.507  0.0695 -0.7151  0.4447
  110OSM   H11F11427   1.933   5.214   8.591 -1.5933 -0.3010  0.6230
  110OSM   H11G11428   1.832   5.198   8.445 -1.3670 -2.5780  0.5624
  110OSM   C12F11429   2.021   5.115   8.407 -0.0064 -0.3759 -0.0243
  110OSM   H12F11430   1.993   5.027   8.344 -0.1265 -2.1470  2.4337
  110OSM   H12G11431   2.117   5.081   8.451  1.5140  0.6558 -2.4507
  110OSM   C13F11432   2.051   5.231   8.313 -0.1586  0.0864  0.1047
  110OSM   H13F11433   2.060   5.329   8.365 -3.4015 -0.1651  1.3302
  110OSM   H13G11434   1.963   5.234   8.245  0.8241  2.0937 -1.1345
  110OSM   C14F11435   2.166   5.195   8.221  0.1768  0.0115  0.0095
  110OSM   H14F11436   2.243   5.138   8.276  0.7940  1.4072  0.6085
  110OSM   H14G11437   2.202   5.288   8.173  1.7348 -1.8515 -2.5611
  110OSM   C15F11438   2.117   5.108   8.101 -0.0896 -0.2643 -0.3650
  110OSM   H15F11439   2.027   5.158   8.058  2.5566  5.5431  0.3798
  110OSM   H15G11440   2.084   5.010   8.140  1.6871 -0.7800 -0.1464
  110OSM   C16F11441   2.220   5.090   7.986  0.0600  0.2481  0.1856
  110OSM   H16F11442   2.244   5.187   7.938  0.2880 -0.2651 -0.7356
  110OSM   H16G11443   2.169   5.038   7.903 -3.5742  2.7396  0.7306
  110OSM   C17F11444   2.351   5.028   8.039  0.5683  0.5101  0.2105
  110OSM   H17F11445   2.410   5.108   8.089  1.2317  1.1638 -1.6090
  110OSM   H17G11446   2.411   4.989   7.954  2.9282  2.4261  0.9515
  110OSM   C18F11447   2.331   4.905   8.138 -0.5559  0.0031  0.5781
  110OSM   H18F11448   2.273   4.940   8.226  0.2929  0.4565  0.9714
  110OSM   H18G11449   2.432   4.861   8.157 -0.1193  0.7630  0.0788
  110OSM   H18H11450   2.278   4.826   8.081 -0.5238 -0.1535  0.7616
  111OSM      N11451   4.321   0.764  10.434  0.5660  0.1585  0.0731
  111OSM    C1511452   4.367   0.638  10.365 -0.4539  0.9934  0.8733
  111OSM   H15A11453   4.334   0.548  10.416  0.5577  0.2488  0.2213
  111OSM   H15B11454   4.474   0.642  10.357 -0.3377 -0.4114  1.5938
  111OSM   H15C11455   4.324   0.632  10.266  0.9911  0.7634  0.2539
  111OSM    C1411456   4.176   0.749  10.456  0.1835  0.1075  0.5943
  111OSM   H14A11457   4.139   0.836  10.509  0.2296  1.6298 -1.8051
  111OSM   H14B11458   4.144   0.657  10.501  0.0838  0.0121  0.3287
  111OSM   H14C11459   4.113   0.748  10.368 -0.3053  0.0974  0.9439
  111OSM    C1311460   4.386   0.791  10.570 -0.8716  0.3844 -0.2763
  111OSM   H13A11461   4.379   0.708  10.639  0.6878  1.2132  0.9165
  111OSM   H13B11462   4.340   0.873  10.623 -1.4851 -0.8010  1.0566
  111OSM   H13C11463   4.491   0.813  10.565 -0.7162  0.1781  1.8177
  111OSM    C1211464   4.340   0.883  10.348 -0.6211 -0.4877  0.3331
  111OSM   H12A11465   4.443   0.915  10.358 -0.8748  0.3537  0.3211
  111OSM   H12B11466   4.279   0.966  10.382 -0.6221 -0.0040 -0.8205
  111OSM    C1111467   4.324   0.867  10.195 -0.0477 -0.3149  0.2472
  111OSM   H11A11468   4.408   0.805  10.158 -0.6210 -0.3511 -1.0088
  111OSM   H11B11469   4.338   0.965  10.145 -4.8806 -0.7275 -2.2328
  111OSM      P11470   4.162   0.709  10.048 -0.0765 -0.1082 -0.7518
  111OSM    O1311471   4.257   0.593  10.066 -0.5335  0.3321  0.9619
  111OSM    O1411472   4.014   0.683  10.056  0.3567  0.4620 -0.1673
  111OSM    O1111473   4.188   0.793   9.920  0.0033  0.0466  0.1861
  111OSM    O1211474   4.198   0.809  10.166  0.3269  0.0535  0.6279
  111OSM    C1S11475   4.126   0.927   9.902  0.5309 -0.0851 -0.3388
  111OSM    H1S11476   4.193   1.011   9.930  0.2941  0.0355 -0.1307
  111OSM    H1T11477   4.038   0.939   9.969  0.7504  1.7751 -0.3564
  111OSM     NF11478   4.012   1.092   9.756  1.2173 -1.3520 -0.6570
  111OSM    HNF11479   3.913   1.085   9.761  1.0814 -0.9520 -2.3508
  111OSM    C2S11480   4.085   0.966   9.759  0.4303  0.4504  0.0158
  111OSM    H2S11481   4.177   0.988   9.701  1.3629 -0.0806  1.2776
  111OSM    C3S11482   4.008   0.850   9.691  0.0001 -0.0326 -0.8791
  111OSM    H3S11483   3.916   0.841   9.752 -0.3499  1.7030 -1.1169
  111OSM     O311484   4.076   0.721   9.693 -0.4891  0.2789 -0.1320
  111OSM    HO311485   4.160   0.740   9.737 -0.6385 -0.3340  0.4244
  111OSM    C4S11486   3.973   0.879   9.548 -0.1485 -0.5857 -0.5760
  111OSM    H4S11487   3.873   0.926   9.544  0.9197  1.6073 -2.7231
  111OSM    C5S11488   4.032   0.838   9.437 -0.5812 -0.0165 -0.1963
  111OSM    H5S11489   4.119   0.770   9.433 -2.1360 -2.0841  0.4911
  111OSM    C6S11490   3.985   0.874   9.299 -0.9646 -0.1809 -0.3084
  111OSM    H6S11491   3.931   0.971   9.293 -3.4071 -1.5394 -1.1638
  111OSM    H6T11492   3.907   0.801   9.268 -1.2408  0.2770 -0.7046
  111OSM    C7S11493   4.086   0.854   9.184 -0.0129 -0.0048  0.1047
  111OSM    H7S11494   4.127   0.751   9.177  2.6688  0.9950  0.3763
  111OSM    H7T11495   4.178   0.912   9.205  0.9471 -0.5034 -2.5275
  111OSM    C8S11496   4.034   0.899   9.046  0.2772 -0.1659  0.1530
  111OSM    H8S11497   3.982   0.996   9.063  0.6972  0.4599 -1.9394
  111OSM    H8T11498   3.949   0.834   9.016 -0.3566  0.4022  0.6801
  111OSM    C9S11499   4.146   0.910   8.942 -0.3898  0.5450 -0.3727
  111OSM    H9S11500   4.201   0.815   8.923 -0.1291  1.1221 -2.6189
  111OSM    H9T11501   4.222   0.980   8.985 -1.5973  2.0037 -0.5645
  111OSM   C10S11502   4.099   0.945   8.804 -0.4183  0.0418 -0.2110
  111OSM   H10S11503   4.043   1.041   8.799 -0.3566  0.0963  0.1489
  111OSM   H10T11504   4.028   0.869   8.763 -0.8470  1.2082 -1.6678
  111OSM   C11S11505   4.225   0.955   8.711  0.7206 -0.1825 -0.4095
  111OSM   H11S11506   4.287   0.866   8.734  1.6780  0.1711 -1.5814
  111OSM   H11T11507   4.273   1.045   8.756 -2.2038 -0.1246  2.8693
  111OSM   C12S11508   4.195   0.960   8.561  0.7739 -0.3209  0.2012
  111OSM   H12S11509   4.125   0.875   8.542  0.3402  0.0138  0.2884
  111OSM   H12T11510   4.294   0.947   8.515  1.0592 -0.7021  0.9138
  111OSM   C13S11511   4.118   1.081   8.512  0.1368 -0.2376  0.1487
  111OSM   H13S11512   4.167   1.174   8.549 -0.1837  0.9502 -2.3074
  111OSM   H13T11513   4.017   1.090   8.558 -0.3035  0.4132 -0.9223
  111OSM   C14S11514   4.117   1.107   8.360  0.0957 -0.7731  1.1117
  111OSM   H14S11515   4.213   1.136   8.312 -0.5493  0.3798  0.4852
  111OSM   H14T11516   4.044   1.191   8.354  0.7811 -0.1385  1.5705
  111OSM   C15S11517   4.041   0.997   8.280  0.0809 -0.2108 -0.3753
  111OSM   H15S11518   3.950   0.989   8.343  1.4528 -1.9940  1.4397
  111OSM   H15T11519   4.093   0.901   8.297  0.1898  0.0595  0.8922
  111OSM   C16S11520   4.014   1.040   8.137  0.6306  0.0430  0.4797
  111OSM   H16S11521   4.112   1.054   8.085 -0.7155  2.1794 -1.6071
  111OSM   H16T11522   3.949   1.130   8.142  0.8917  0.1087  4.6557
  111OSM   C17S11523   3.952   0.926   8.052  0.4719  0.5080  0.4371
  111OSM   H17S11524   3.855   0.899   8.100  1.0678 -0.1747  1.2487
  111OSM   H17T11525   4.024   0.843   8.059  0.9771  0.9371  0.3277
  111OSM   C18S11526   3.922   0.971   7.909  0.2125  0.0090 -0.1619
  111OSM   H18S11527   3.823   1.022   7.915 -0.1814 -0.8937  1.2177
  111OSM   H18T11528   3.906   0.887   7.839  0.9018 -0.5742  0.3788
  111OSM   H18U11529   3.996   1.041   7.866  1.6491  0.4463  2.9177
  111OSM    C1F11530   4.056   1.209   9.813  0.3371  0.6119  0.3852
  111OSM     OF11531   4.175   1.223   9.835 -0.0815 -0.4924  0.3864
  111OSM    C2F11532   3.947   1.307   9.850 -0.0727 -0.3553 -0.3689
  111OSM    H2F11533   4.012   1.390   9.886  0.0969  0.0971 -1.7085
  111OSM    H2G11534   3.894   1.257   9.934  1.7625  0.0102  1.0421
  111OSM    C3F11535   3.857   1.345   9.735 -0.6866 -0.7238  0.0100
  111OSM    H3F11536   3.769   1.403   9.770 -0.2022 -1.2454  2.1581
  111OSM    H3G11537   3.818   1.261   9.674 -0.4727 -0.4008 -0.5766
  111OSM    C4F11538   3.924   1.427   9.618  0.3934 -0.9341 -0.2549
  111OSM    H4F11539   3.971   1.362   9.542  1.3069  0.6650 -1.0905
  111OSM    H4G11540   4.010   1.479   9.665 -1.4093  0.5652  1.5145
  111OSM    C5F11541   3.840   1.532   9.555 -0.3839  0.4846 -0.2628
  111OSM    H5F11542   3.789   1.600   9.627 -2.3256 -1.5511  0.3321
  111OSM    H5G11543   3.751   1.483   9.510 -1.7328  2.4884  0.1512
  111OSM    C6F11544   3.913   1.609   9.444 -0.0853  0.4360 -0.7733
  111OSM    H6F11545   3.835   1.669   9.391 -0.9337 -1.9585 -2.3183
  111OSM    H6G11546   3.958   1.529   9.381 -2.5623 -1.1064 -0.6501
  111OSM    C7F11547   4.027   1.702   9.484 -0.1665 -0.1668 -0.5717
  111OSM    H7F11548   4.085   1.654   9.566 -0.6626  1.2731  0.6530
  111OSM    H7G11549   3.983   1.797   9.522 -0.0966  0.4394 -1.9760
  111OSM    C8F11550   4.129   1.731   9.367 -0.5146  0.5117  0.4787
  111OSM    H8F11551   4.090   1.801   9.290  2.1361  0.5909 -0.8369
  111OSM    H8G11552   4.159   1.636   9.320  0.6529  0.1593  1.8883
  111OSM    C9F11553   4.251   1.809   9.422  0.8822 -0.2859 -0.0786
  111OSM    H9F11554   4.235   1.854   9.521  0.5131  0.1651 -0.3371
  111OSM   C10F11555   4.378   1.799   9.376  0.2304 -0.3765  1.0447
  111OSM   H10F11556   4.462   1.851   9.424  1.3474 -1.1552 -0.0382
  111OSM   C11F11557   4.423   1.720   9.255 -0.0754  0.2490  0.0003
  111OSM   H11F11558   4.453   1.789   9.173 -0.2929 -0.1332 -0.3980
  111OSM   H11G11559   4.349   1.644   9.221 -1.2106  0.9741  0.8225
  111OSM   C12F11560   4.549   1.637   9.288 -0.0546  0.7982  0.0936
  111OSM   H12F11561   4.510   1.563   9.361 -2.9761  1.3330 -0.8659
  111OSM   H12G11562   4.632   1.701   9.325 -1.5606  1.2833  2.7315
  111OSM   C13F11563   4.605   1.552   9.174  0.6019  0.2943  0.2569
  111OSM   H13F11564   4.683   1.490   9.223  2.7222  2.5231 -0.1892
  111OSM   H13G11565   4.657   1.619   9.101  0.4671 -0.2135 -0.3114
  111OSM   C14F11566   4.501   1.470   9.099 -0.1617  0.0239 -0.0576
  111OSM   H14F11567   4.418   1.542   9.080 -1.6670 -0.2092  4.8825
  111OSM   H14G11568   4.448   1.396   9.162 -0.7322  2.8264  2.8878
  111OSM   C15F11569   4.554   1.414   8.970 -0.0458 -0.1786  0.2453
  111OSM   H15F11570   4.625   1.331   8.994 -0.3718 -0.0768  1.6009
  111OSM   H15G11571   4.624   1.488   8.927 -0.1702 -1.0605 -1.5215
  111OSM   C16F11572   4.451   1.376   8.863 -0.0411 -0.0386 -0.3856
  111OSM   H16F11573   4.362   1.440   8.876 -0.8870 -1.2353 -0.2606
  111OSM   H16G11574   4.411   1.277   8.894 -0.9744  0.1260 -1.0609
  111OSM   C17F11575   4.506   1.367   8.713  0.6620 -0.3238  0.5431
  111OSM   H17F11576   4.602   1.311   8.715  1.0025  0.2766  0.9919
  111OSM   H17G11577   4.534   1.468   8.678 -1.7653 -0.1644 -1.0363
  111OSM   C18F11578   4.400   1.324   8.610  0.2359 -0.1082  0.4594
  111OSM   H18F11579   4.301   1.374   8.610  0.1953 -0.1803  1.0487
  111OSM   H18G11580   4.389   1.214   8.610  0.2260 -0.1089 -0.2598
  111OSM   H18H11581   4.439   1.353   8.510 -1.5786 -1.1224 -0.5665
  112OSM      N11582   2.889   5.879  10.194  0.3363 -0.0061  0.0020
  112OSM    C1511583   2.928   5.954  10.070  0.1132  0.5710 -0.0976
  112OSM   H15A11584   2.859   6.036  10.065 -0.7835 -0.1958 -0.4793
  112OSM   H15B11585   2.895   5.894   9.986 -1.0809  2.8073 -1.2772
  112OSM   H15C11586   3.032   5.982  10.072 -0.2317  1.8349  1.8188
  112OSM    C1411587   2.972   5.752  10.197  0.2393 -0.1795  0.0104
  112OSM   H14A11588   2.924   5.674  10.254 -0.3184 -0.8857 -1.3836
  112OSM   H14B11589   3.075   5.765  10.228  0.3064 -0.3158 -0.1479
  112OSM   H14C11590   2.969   5.709  10.098  0.8830 -1.4573  0.5352
  112OSM    C1311591   2.937   5.950  10.313 -0.4430 -0.0816  0.2629
  112OSM   H13A11592   2.926   5.888  10.400 -2.0583 -0.3222 -0.0957
  112OSM   H13B11593   2.877   6.040  10.325 -0.8741 -0.3454  0.1123
  112OSM   H13C11594   3.035   5.988  10.288 -0.2112  0.2992  1.7511
  112OSM    C1211595   2.740   5.840  10.197  0.2965  0.7442 -0.2119
  112OSM   H12A11596   2.675   5.925  10.186 -0.6964  0.3043  1.8551
  112OSM   H12B11597   2.720   5.803  10.297  2.6738  1.0060  0.3953
  112OSM    C1111598   2.686   5.746  10.084  0.4550  0.5728  0.3137
  112OSM   H11A11599   2.695   5.802   9.989  2.5573 -0.8032 -0.3413
  112OSM   H11B11600   2.576   5.750  10.098  0.6526  1.4005  1.8278
  112OSM      P11601   2.714   5.524   9.955 -0.2079 -0.2650  0.1090
  112OSM    O1311602   2.806   5.566   9.853  0.2020 -0.1028  0.3427
  112OSM    O1411603   2.708   5.383   9.999  0.2947 -0.4578 -0.0481
  112OSM    O1111604   2.570   5.572   9.910 -0.0999 -0.4594 -0.1763
  112OSM    O1211605   2.745   5.617  10.077 -0.8025 -0.5438 -0.2943
  112OSM    C1S11606   2.547   5.651   9.795 -0.7543  0.2995 -0.1672
  112OSM    H1S11607   2.615   5.639   9.708 -0.0601  0.6671  0.3091
  112OSM    H1T11608   2.546   5.760   9.819  1.0756 -0.3018  2.8852
  112OSM     NF11609   2.369   5.695   9.627 -0.3109  0.0002  0.3079
  112OSM    HNF11610   2.352   5.787   9.660  0.7643 -0.5873  2.5954
  112OSM    C2S11611   2.408   5.599   9.732  0.5451 -0.3608  0.8498
  112OSM    H2S11612   2.416   5.496   9.691 -0.3384 -0.2606  0.3982
  112OSM    C3S11613   2.293   5.606   9.844  0.5826  0.0177 -0.1428
  112OSM    H3S11614   2.286   5.709   9.886  3.0138 -0.8475  2.5937
  112OSM     O311615   2.316   5.523   9.955 -0.2560 -0.4344  0.6627
  112OSM    HO311616   2.410   5.506   9.951  0.1550  1.8344 -0.0453
  112OSM    C4S11617   2.164   5.558   9.773  0.4310  0.3679 -0.5849
  112OSM    H4S11618   2.165   5.454   9.736  1.2992 -0.7179  2.3707
  112OSM    C5S11619   2.054   5.627   9.743  0.0576  0.0534 -0.0284
  112OSM    H5S11620   2.050   5.730   9.780  0.9001 -0.5948  1.9244
  112OSM    C6S11621   1.934   5.584   9.670  0.9474  0.4818 -0.5429
  112OSM    H6S11622   1.844   5.593   9.734 -1.0931 -0.7574 -3.1598
  112OSM    H6T11623   1.927   5.478   9.637 -1.6278  0.0370  1.2020
  112OSM    C7S11624   1.912   5.667   9.548  0.1824  0.6105 -0.7112
  112OSM    H7S11625   1.882   5.765   9.591  0.2022 -0.3850  1.6467
  112OSM    H7T11626   1.826   5.638   9.485 -0.3698 -1.7919  1.0550
  112OSM    C8S11627   2.029   5.710   9.454 -0.6438 -0.2436  0.1770
  112OSM    H8S11628   2.123   5.711   9.513  1.1795 -0.2257 -2.5815
  112OSM    H8T11629   2.011   5.814   9.421 -1.2491 -0.4274 -0.0853
  112OSM    C9S11630   2.047   5.616   9.337 -0.4448  0.9209  0.7170
  112OSM    H9S11631   2.056   5.512   9.374  0.7289 -0.0135 -2.0319
  112OSM    H9T11632   2.146   5.644   9.295  0.0328 -0.5529  0.8162
  112OSM   C10S11633   1.961   5.636   9.206  0.7140  0.0601 -0.2839
  112OSM   H10S11634   1.933   5.743   9.195  2.1939  0.4241 -0.5137
  112OSM   H10T11635   1.874   5.568   9.219  0.5734  0.3222  0.1669
  112OSM   C11S11636   2.043   5.595   9.074  0.7064  0.0312 -0.9834
  112OSM   H11S11637   2.143   5.643   9.075 -0.2048  2.0055 -1.3611
  112OSM   H11T11638   1.989   5.630   8.984 -0.6667 -1.9310 -0.9550
  112OSM   C12S11639   2.050   5.441   9.063 -0.5006  0.6833  0.5090
  112OSM   H12S11640   1.952   5.396   9.034 -0.3575 -0.4625  1.8007
  112OSM   H12T11641   2.080   5.383   9.153  0.2397  0.4893  0.1401
  112OSM   C13S11642   2.136   5.394   8.945  0.1551 -1.1451 -0.0894
  112OSM   H13S11643   2.079   5.416   8.853  0.3759  2.9825  0.6355
  112OSM   H13T11644   2.160   5.285   8.948 -0.1915 -1.2087  0.3806
  112OSM   C14S11645   2.269   5.469   8.935  0.2154  0.4569 -0.2232
  112OSM   H14S11646   2.317   5.458   9.035 -0.6460 -1.7981 -0.0269
  112OSM   H14T11647   2.256   5.576   8.907  0.2172  0.1027 -1.6220
  112OSM   C15S11648   2.360   5.398   8.834 -0.3786 -0.2106  0.4178
  112OSM   H15S11649   2.366   5.287   8.836 -0.4468 -0.1982  3.0509
  112OSM   H15T11650   2.463   5.430   8.858 -0.1445 -1.8702  1.7544
  112OSM   C16S11651   2.348   5.436   8.685 -0.2242 -0.0610  0.4610
  112OSM   H16S11652   2.395   5.536   8.667 -1.0766 -0.1335 -2.5002
  112OSM   H16T11653   2.240   5.446   8.661  0.3745 -1.1892 -3.0961
  112OSM   C17S11654   2.402   5.334   8.586  0.0467 -0.8725  0.7660
  112OSM   H17S11655   2.314   5.266   8.574 -0.3425  0.0770 -2.2606
  112OSM   H17T11656   2.492   5.281   8.623  0.9569 -1.7064 -2.4416
  112OSM   C18S11657   2.438   5.412   8.457  0.3320  0.5048 -0.1427
  112OSM   H18S11658   2.496   5.335   8.402 -1.4369 -1.1045  0.1886
  112OSM   H18T11659   2.513   5.491   8.478  2.7230 -1.1417 -2.1396
  112OSM   H18U11660   2.350   5.443   8.398 -2.0332 -3.8836  0.8556
  112OSM    C1F11661   2.428   5.684   9.507 -0.4762 -0.2865  0.2716
  112OSM     OF11662   2.504   5.587   9.484 -0.4215 -0.0977  0.5342
  112OSM    C2F11663   2.403   5.794   9.405  0.5312  0.8004  0.4429
  112OSM    H2F11664   2.481   5.870   9.428  1.3408 -0.4822  2.0315
  112OSM    H2G11665   2.314   5.861   9.402  1.4684  2.0397 -0.0951
  112OSM    C3F11666   2.437   5.746   9.252  0.4015  0.1638  0.3713
  112OSM    H3F11667   2.346   5.692   9.218 -1.3700  1.8399  2.2619
  112OSM    H3G11668   2.529   5.685   9.262  0.3235 -0.1922 -1.0171
  112OSM    C4F11669   2.464   5.867   9.167 -0.2743  0.1461  0.4419
  112OSM    H4F11670   2.525   5.944   9.220 -1.2494  0.4404  1.1530
  112OSM    H4G11671   2.364   5.915   9.156  0.7707  1.6772 -3.1099
  112OSM    C5F11672   2.524   5.853   9.033  0.2930 -0.6390 -0.0408
  112OSM    H5F11673   2.467   5.777   8.975 -1.7452  0.8997 -0.1325
  112OSM    H5G11674   2.626   5.811   9.042  0.6648  0.4186  0.6937
  112OSM    C6F11675   2.546   5.991   8.965 -0.4604 -0.2687 -0.5001
  112OSM    H6F11676   2.614   6.048   9.031  0.8666  0.4651 -2.4511
  112OSM    H6G11677   2.444   6.034   8.975 -1.0839 -1.5172 -1.3715
  112OSM    C7F11678   2.571   5.996   8.812  0.0431 -0.6101 -0.6885
  112OSM    H7F11679   2.675   5.966   8.790  0.7413  0.0044  1.6724
  112OSM    H7G11680   2.567   6.097   8.767  2.0216  1.1391  2.9163
  112OSM    C8F11681   2.476   5.914   8.723  0.0841  0.0931  0.7067
  112OSM    H8F11682   2.479   5.814   8.769 -1.1042 -0.2557  0.0380
  112OSM    H8G11683   2.525   5.898   8.625  0.3301  0.6221  0.7391
  112OSM    C9F11684   2.333   5.963   8.730  0.1207  0.4850 -0.5202
  112OSM    H9F11685   2.291   5.966   8.831  0.0216 -0.6080 -0.5142
  112OSM   C10F11686   2.258   5.990   8.624 -0.4128 -0.3559  0.2537
  112OSM   H10F11687   2.156   6.027   8.641  0.2226  2.2901 -1.3716
  112OSM   C11F11688   2.305   5.991   8.475  0.1461  0.0994 -0.2223
  112OSM   H11F11689   2.413   5.966   8.466 -0.4458 -2.5205 -0.5729
  112OSM   H11G11690   2.293   6.092   8.430 -0.1849  0.9632  1.7589
  112OSM   C12F11691   2.233   5.889   8.381 -0.4161  0.6479  0.0076
  112OSM   H12F11692   2.126   5.916   8.371 -0.6874 -0.5171 -0.3331
  112OSM   H12G11693   2.247   5.787   8.424  2.0047 -0.0474 -2.2501
  112OSM   C13F11694   2.279   5.874   8.231  0.4528  0.4330  0.4390
  112OSM   H13F11695   2.299   5.973   8.184  1.6549 -0.2139 -0.4307
  112OSM   H13G11696   2.191   5.831   8.180  0.4840  0.1290  0.6390
  112OSM   C14F11697   2.393   5.773   8.205 -0.6936  0.0525 -0.0224
  112OSM   H14F11698   2.370   5.676   8.253 -0.7360 -0.4009 -0.9561
  112OSM   H14G11699   2.488   5.814   8.245 -0.7627 -0.8588  1.1024
  112OSM   C15F11700   2.408   5.750   8.054  0.2669 -0.3897 -0.3256
  112OSM   H15F11701   2.408   5.849   8.003 -0.8127 -0.1774  0.0841
  112OSM   H15G11702   2.323   5.694   8.008 -1.0218  0.0613  1.4475
  112OSM   C16F11703   2.537   5.680   7.994  0.0392 -0.7099  0.1781
  112OSM   H16F11704   2.574   5.614   8.075 -0.1842 -1.3664 -0.2517
  112OSM   H16G11705   2.613   5.759   7.977 -1.4126  0.0577 -3.1843
  112OSM   C17F11706   2.514   5.614   7.859 -0.1331 -0.0331 -0.1127
  112OSM   H17F11707   2.418   5.560   7.845 -0.3625  0.2404  0.3872
  112OSM   H17G11708   2.593   5.538   7.839  1.3626  2.5685 -4.6852
  112OSM   C18F11709   2.510   5.717   7.749 -0.4496 -0.0193  0.1455
  112OSM   H18F11710   2.459   5.812   7.774 -0.2480 -0.2517  1.4787
  112OSM   H18G11711   2.468   5.683   7.652  2.5039 -0.3158 -1.0674
  112OSM   H18H11712   2.612   5.750   7.720 -1.9303  2.5184 -2.4715
  113OSM      N11713   1.559   2.400  10.353  0.2481  0.0298  0.8116
  113OSM    C1511714   1.672   2.491  10.303  0.0048  0.4925  0.4443
  113OSM   H15A11715   1.727   2.444  10.223 -0.5240  0.1297  0.2856
  113OSM   H15B11716   1.736   2.528  10.381 -0.7959  0.4093  1.1594
  113OSM   H15C11717   1.625   2.575  10.254  1.2185  1.7110  1.3339
  113OSM    C1411718   1.601   2.289  10.440 -0.6824  0.3104 -0.0622
  113OSM   H14A11719   1.654   2.319  10.529 -2.8635  1.2667  0.9489
  113OSM   H14B11720   1.659   2.214  10.388 -0.1107  0.8638 -0.2242
  113OSM   H14C11721   1.518   2.226  10.467  0.9353 -1.4176  0.9580
  113OSM    C1311722   1.474   2.482  10.438 -0.5452 -0.1239 -0.0329
  113OSM   H13A11723   1.382   2.433  10.463  1.0974 -3.4817 -0.2930
  113OSM   H13B11724   1.445   2.576  10.393 -0.3401  1.1756  2.4189
  113OSM   H13C11725   1.513   2.508  10.536 -0.4522 -0.8381  0.1219
  113OSM    C1211726   1.474   2.352  10.234 -0.5775  0.0974 -0.0014
  113OSM   H12A11727   1.465   2.434  10.164 -0.7534  0.9744  1.0399
  113OSM   H12B11728   1.375   2.318  10.262 -0.4589 -1.6366 -1.5471
  113OSM    C1111729   1.520   2.220  10.162  0.0763 -0.2479 -0.2924
  113OSM   H11A11730   1.624   2.229  10.125  0.8571  2.9381  2.4518
  113OSM   H11B11731   1.464   2.218  10.066  0.6304  0.4040 -0.6292
  113OSM      P11732   1.362   2.046  10.263  0.2252  0.2809  0.0669
  113OSM    O1311733   1.364   1.929  10.355  0.3608  0.6141 -0.0570
  113OSM    O1411734   1.272   2.160  10.295  0.2524 -0.2031  0.0182
  113OSM    O1111735   1.340   1.999  10.118 -0.7340  0.0505 -0.1995
  113OSM    O1211736   1.507   2.103  10.236 -0.7680 -0.3494 -0.5289
  113OSM    C1S11737   1.223   1.913  10.095 -0.3865  0.3442  0.2361
  113OSM    H1S11738   1.129   1.965  10.123  0.7189  1.5421  1.8679
  113OSM    H1T11739   1.221   1.822  10.158 -1.3898  0.6638  0.6885
  113OSM     NF11740   1.088   1.794   9.910  0.0583  0.5472  0.9028
  113OSM    HNF11741   1.115   1.707   9.871  1.4028 -0.0554  3.0665
  113OSM    C2S11742   1.205   1.876   9.940  0.7451 -0.0708 -0.2653
  113OSM    H2S11743   1.190   1.973   9.888  1.0912  1.0635  1.6913
  113OSM    C3S11744   1.331   1.809   9.877 -0.1658  0.3546 -0.3286
  113OSM    H3S11745   1.351   1.707   9.919  1.9905  0.7908 -0.2136
  113OSM     O311746   1.454   1.868   9.919 -0.0687  0.0781 -0.2489
  113OSM    HO311747   1.438   1.925   9.995 -0.2895 -0.1989 -0.0930
  113OSM    C4S11748   1.317   1.813   9.729 -0.4680 -0.1848  0.5086
  113OSM    H4S11749   1.294   1.913   9.688 -0.5608 -0.2429  0.4192
  113OSM    C5S11750   1.317   1.702   9.649  0.1229 -0.7054  0.2916
  113OSM    H5S11751   1.336   1.600   9.683 -0.9632 -0.8474  0.4869
  113OSM    C6S11752   1.293   1.703   9.504 -0.4850 -0.2154 -0.4417
  113OSM    H6S11753   1.186   1.727   9.486 -0.1035  0.3911 -1.9829
  113OSM    H6T11754   1.301   1.601   9.461 -1.7685  0.0448 -1.3370
  113OSM    C7S11755   1.386   1.782   9.424  0.0062 -0.1772 -0.4472
  113OSM    H7S11756   1.478   1.722   9.409  0.8325  0.0160  3.3514
  113OSM    H7T11757   1.421   1.880   9.463  0.8610  0.3341 -2.4072
  113OSM    C8S11758   1.327   1.800   9.282  0.0675  0.0226 -0.6176
  113OSM    H8S11759   1.287   1.703   9.246  2.7286 -0.8368 -1.3246
  113OSM    H8T11760   1.412   1.831   9.218 -0.7938 -0.6346 -2.0987
  113OSM    C9S11761   1.218   1.908   9.265  0.1991  0.2657 -0.5977
  113OSM    H9S11762   1.255   2.003   9.311  1.7935 -0.1191 -1.0678
  113OSM    H9T11763   1.135   1.868   9.327  1.2698 -0.3471  0.4445
  113OSM   C10S11764   1.158   1.911   9.118 -1.1309 -0.2809  0.0284
  113OSM   H10S11765   1.049   1.932   9.129 -1.1402 -0.9997  1.4910
  113OSM   H10T11766   1.173   1.808   9.079 -3.5681 -0.8851  0.6071
  113OSM   C11S11767   1.213   2.014   9.034 -0.1383 -0.5680  0.1409
  113OSM   H11S11768   1.159   2.013   8.937  1.9757  0.6771 -1.1004
  113OSM   H11T11769   1.321   2.010   9.012 -0.2967  2.1654 -1.3389
  113OSM   C12S11770   1.197   2.161   9.088 -0.7342  0.0994  0.2459
  113OSM   H12S11771   1.232   2.175   9.192 -1.5636  1.2619  0.3746
  113OSM   H12T11772   1.091   2.194   9.089 -0.8259 -0.1426 -0.9906
  113OSM   C13S11773   1.274   2.265   8.999  0.0034  0.1917 -0.3015
  113OSM   H13S11774   1.380   2.231   9.001  1.0489  3.1588 -1.9009
  113OSM   H13T11775   1.267   2.368   9.041  0.9859  0.9114 -1.8460
  113OSM   C14S11776   1.211   2.266   8.857  0.7192  0.2859 -0.1185
  113OSM   H14S11777   1.109   2.310   8.861  1.2063  1.4515 -0.4977
  113OSM   H14T11778   1.207   2.162   8.818  1.9509  0.7321 -1.5132
  113OSM   C15S11779   1.294   2.355   8.761 -0.2936  0.4713 -0.7935
  113OSM   H15S11780   1.338   2.432   8.828 -1.6562  1.3170 -0.8482
  113OSM   H15T11781   1.226   2.412   8.694 -0.4157  0.4560 -0.6823
  113OSM   C16S11782   1.390   2.274   8.679  0.4370 -0.5597 -0.4177
  113OSM   H16S11783   1.329   2.223   8.602 -1.0444  0.1469  0.2755
  113OSM   H16T11784   1.440   2.184   8.721  0.3832 -0.5845 -0.4071
  113OSM   C17S11785   1.494   2.368   8.620  0.2270 -0.5004  0.0157
  113OSM   H17S11786   1.561   2.413   8.697  1.8682  0.0143 -1.6691
  113OSM   H17T11787   1.442   2.454   8.573 -1.1687 -1.6419 -0.5781
  113OSM   C18S11788   1.581   2.299   8.520  0.2471 -0.1628  0.3701
  113OSM   H18S11789   1.667   2.360   8.484  0.8787 -0.3651  1.5160
  113OSM   H18T11790   1.519   2.267   8.434 -0.6768 -0.2425  1.0517
  113OSM   H18U11791   1.619   2.207   8.569 -0.4329  0.6371  2.4457
  113OSM    C1F11792   0.948   1.809   9.937 -0.4052  0.1026 -0.2599
  113OSM     OF11793   0.913   1.905  10.000  0.2746  0.4549 -0.1143
  113OSM    C2F11794   0.848   1.710   9.893  0.5066 -0.2561 -0.3676
  113OSM    H2F11795   0.815   1.643   9.976 -1.7918 -0.2836 -1.2485
  113OSM    H2G11796   0.889   1.648   9.810 -0.9160 -1.0389 -0.5036
  113OSM    C3F11797   0.712   1.781   9.859 -0.4412  0.4966 -0.4642
  113OSM    H3F11798   0.733   1.846   9.772  0.6745 -0.5348 -0.9837
  113OSM    H3G11799   0.674   1.843   9.943  1.7858 -0.6811  1.4656
  113OSM    C4F11800   0.605   1.685   9.812  1.0041 -0.2661  1.1984
  113OSM    H4F11801   0.596   1.596   9.879 -0.9737 -1.3418 -0.4355
  113OSM    H4G11802   0.621   1.641   9.712 -2.5380 -1.4693  1.0657
  113OSM    C5F11803   0.467   1.749   9.815 -0.0441 -0.1614  0.1276
  113OSM    H5F11804   0.432   1.796   9.910  1.3687 -2.6640  1.9788
  113OSM    H5G11805   0.404   1.659   9.800  1.8972 -1.2328 -1.8786
  113OSM    C6F11806   0.434   1.850   9.708 -0.1478 -0.2949 -0.2646
  113OSM    H6F11807   0.485   1.822   9.613  0.1986  1.4261 -0.6033
  113OSM    H6G11808   0.473   1.948   9.742 -1.9750  0.1469  0.5840
  113OSM    C7F11809   0.282   1.856   9.682  0.2797  0.3547 -0.0023
  113OSM    H7F11810   0.231   1.836   9.778 -1.1978  2.6583 -0.2901
  113OSM    H7G11811   0.243   1.784   9.607  1.0914 -0.6088  0.4785
  113OSM    C8F11812   0.243   1.996   9.627  0.1896  0.0349  0.2246
  113OSM    H8F11813   0.135   1.992   9.602 -0.1493  1.2893  1.4407
  113OSM    H8G11814   0.294   2.022   9.532  0.3820  1.7006  0.7677
  113OSM    C9F11815   0.270   2.108   9.728 -0.3393  0.3403 -0.4253
  113OSM    H9F11816   0.240   2.076   9.828 -0.4265 -0.3353 -0.6657
  113OSM   C10F11817   0.313   2.231   9.713  0.6436 -0.3530  0.0157
  113OSM   H10F11818   0.315   2.293   9.805 -1.7698 -1.2928  0.7383
  113OSM   C11F11819   0.341   2.309   9.590  0.4118  0.8438 -0.6537
  113OSM   H11F11820   0.322   2.418   9.602 -0.9948  0.3694  1.8666
  113OSM   H11G11821   0.268   2.280   9.512  0.7276 -3.4309  0.5243
  113OSM   C12F11822   0.480   2.282   9.537  0.2242  0.1330 -0.0044
  113OSM   H12F11823   0.502   2.174   9.521 -0.9043 -0.1179  0.0573
  113OSM   H12G11824   0.547   2.323   9.615  0.8226 -3.3715  1.4515
  113OSM   C13F11825   0.500   2.356   9.401 -0.4420 -0.1695 -0.7974
  113OSM   H13F11826   0.474   2.464   9.414 -1.3307 -0.4563 -0.0992
  113OSM   H13G11827   0.428   2.321   9.324 -0.8727 -0.5519 -0.2209
  113OSM   C14F11828   0.642   2.344   9.340  0.4237  0.5929  0.4255
  113OSM   H14F11829   0.683   2.240   9.349 -2.1537 -0.4304  0.7550
  113OSM   H14G11830   0.705   2.416   9.397  1.5290 -0.1234  0.1402
  113OSM   C15F11831   0.638   2.376   9.197  0.3338  0.2455 -0.5243
  113OSM   H15F11832   0.619   2.484   9.175  0.0086 -0.2586 -2.8294
  113OSM   H15G11833   0.557   2.313   9.155  0.2725 -0.0431  0.0231
  113OSM   C16F11834   0.775   2.343   9.134  0.3487  0.7613 -0.5416
  113OSM   H16F11835   0.783   2.232   9.135 -1.9478  0.5581 -1.3822
  113OSM   H16G11836   0.861   2.382   9.194  0.3314 -1.1915  0.8140
  113OSM   C17F11837   0.812   2.385   8.995  0.1505 -0.2772  0.4084
  113OSM   H17F11838   0.918   2.353   8.988  0.0629 -0.2910 -0.9616
  113OSM   H17G11839   0.808   2.494   8.972 -2.3187 -0.5591 -0.5683
  113OSM   C18F11840   0.733   2.309   8.890  0.6113  0.4400 -0.1111
  113OSM   H18F11841   0.623   2.322   8.896  0.2925 -2.8469  2.0822
  113OSM   H18G11842   0.746   2.200   8.901  0.9358  0.5203  0.3425
  113OSM   H18H11843   0.760   2.352   8.791  1.3724 -0.5058 -0.3123
  114OSM      N11844   1.559   5.095  10.397  0.0095 -0.6892  0.3467
  114OSM    C1511845   1.669   5.180  10.445  0.1848  0.9821  0.3483
  114OSM   H15A11846   1.767   5.142  10.422 -0.4924 -0.4903 -0.1503
  114OSM   H15B11847   1.657   5.195  10.552  0.8711  0.9688  0.4299
  114OSM   H15C11848   1.660   5.271  10.388  1.3101 -0.1024 -1.5952
  114OSM    C1411849   1.547   4.966  10.470 -0.1476 -0.3009  0.0662
  114OSM   H14A11850   1.555   4.983  10.576  0.3056 -2.2819  0.3760
  114OSM   H14B11851   1.621   4.895  10.435 -1.5170 -1.7849  0.1057
  114OSM   H14C11852   1.452   4.916  10.454  0.4595 -1.9416  1.4496
  114OSM    C1311853   1.419   5.158  10.434  0.1961  0.2584  0.4204
  114OSM   H13A11854   1.343   5.081  10.432  0.7299 -0.2594 -0.2422
  114OSM   H13B11855   1.386   5.243  10.376  2.0035  1.1782  0.6880
  114OSM   H13C11856   1.427   5.189  10.537  0.2440 -2.0164  1.1318
  114OSM    C1211857   1.570   5.057  10.244  0.2102 -0.1826 -0.1659
  114OSM   H12A11858   1.497   4.979  10.229 -0.6428  0.1637  2.0432
  114OSM   H12B11859   1.663   5.009  10.218  0.3557  0.2944 -0.5480
  114OSM    C1111860   1.557   5.175  10.145  0.9861 -0.0063 -0.1607
  114OSM   H11A11861   1.589   5.132  10.048  2.3219 -0.8476  0.6288
  114OSM   H11B11862   1.627   5.256  10.175  1.5937  0.4810 -2.8009
  114OSM      P11863   1.376   5.349  10.087  0.1480  0.2304 -0.1323
  114OSM    O1311864   1.226   5.357  10.086 -0.2866  0.3721 -0.4631
  114OSM    O1411865   1.450   5.469  10.131  0.3129 -0.0793 -0.1569
  114OSM    O1111866   1.428   5.327   9.946  0.8141 -0.1683 -0.2000
  114OSM    O1211867   1.424   5.218  10.154  0.5693 -0.6620  0.0516
  114OSM    C1S11868   1.380   5.222   9.854  0.3080 -0.0823  0.5889
  114OSM    H1S11869   1.369   5.122   9.901  0.6011 -1.0328 -1.3115
  114OSM    H1T11870   1.451   5.209   9.769 -0.9789 -2.3555 -0.1872
  114OSM     NF11871   1.184   5.146   9.712 -1.1970  0.2926 -0.0475
  114OSM    HNF11872   1.241   5.128   9.632  1.8071 -1.8988  2.4189
  114OSM    C2S11873   1.243   5.261   9.777  0.4326 -0.1101 -0.6736
  114OSM    H2S11874   1.174   5.298   9.855  1.2010 -1.0495  0.4768
  114OSM    C3S11875   1.272   5.383   9.678 -0.1737 -0.0098  0.2991
  114OSM    H3S11876   1.326   5.340   9.591 -0.6019  2.1771 -1.1002
  114OSM     O311877   1.344   5.494   9.729 -0.3290 -0.2402  0.0250
  114OSM    HO311878   1.382   5.468   9.813  0.8448  1.4990  0.0488
  114OSM    C4S11879   1.145   5.428   9.612 -0.2661  0.2793 -0.3492
  114OSM    H4S11880   1.115   5.360   9.530 -2.8965  0.1960  0.6455
  114OSM    C5S11881   1.073   5.541   9.636  0.3149 -0.7853  0.1742
  114OSM    H5S11882   1.108   5.613   9.712  0.8285  0.2371 -1.0064
  114OSM    C6S11883   0.946   5.580   9.570 -0.3944 -0.3719 -1.2580
  114OSM    H6S11884   0.939   5.688   9.545 -0.7451  0.4034  2.0871
  114OSM    H6T11885   0.861   5.562   9.639  0.4627  0.2726 -0.0094
  114OSM    C7S11886   0.896   5.490   9.448  0.6229  0.2436  0.5933
  114OSM    H7S11887   0.794   5.516   9.412  1.1225  1.1263 -0.2082
  114OSM    H7T11888   0.905   5.381   9.467  2.5817  0.4740  1.0657
  114OSM    C8S11889   0.979   5.508   9.315 -0.1467 -0.2545 -0.1629
  114OSM    H8S11890   1.082   5.476   9.342 -0.1298  0.7065  0.9658
  114OSM    H8T11891   0.989   5.618   9.297 -0.6456 -0.2963 -0.7148
  114OSM    C9S11892   0.929   5.432   9.196  0.0315 -0.0528 -0.1639
  114OSM    H9S11893   0.823   5.444   9.167  0.2147 -0.8363 -1.1943
  114OSM    H9T11894   0.931   5.327   9.234 -0.5481 -0.0085 -0.0111
  114OSM   C10S11895   1.017   5.445   9.076  0.4967 -0.4718 -0.4133
  114OSM   H10S11896   1.126   5.447   9.096  0.1253 -1.3375  1.7770
  114OSM   H10T11897   1.004   5.552   9.046 -2.4141 -0.4667  0.6998
  114OSM   C11S11898   0.966   5.355   8.961  0.0051  0.1979 -0.5750
  114OSM   H11S11899   0.861   5.389   8.951  0.9299  3.0905 -0.8917
  114OSM   H11T11900   0.973   5.249   8.991  1.8136 -0.2417 -2.4524
  114OSM   C12S11901   1.052   5.390   8.837  0.3684  0.3074 -0.0608
  114OSM   H12S11902   1.162   5.380   8.849  0.5374  0.3594 -1.4662
  114OSM   H12T11903   1.042   5.496   8.805  3.5017  0.2807 -1.3368
  114OSM   C13S11904   1.007   5.301   8.718  0.2936  0.1047  0.4514
  114OSM   H13S11905   1.064   5.333   8.628 -1.6829 -2.0258 -1.6060
  114OSM   H13T11906   0.900   5.314   8.693  0.8092  1.1426 -1.3203
  114OSM   C14S11907   1.033   5.147   8.733  0.0105  0.1372 -0.1710
  114OSM   H14S11908   1.032   5.108   8.629  0.8715  1.2595 -0.6066
  114OSM   H14T11909   0.956   5.098   8.797 -0.2525  1.7734  0.7928
  114OSM   C15S11910   1.167   5.113   8.788 -0.5917  0.2166  0.5693
  114OSM   H15S11911   1.159   5.115   8.899 -1.6829  0.2188  0.5026
  114OSM   H15T11912   1.236   5.193   8.756  0.2975 -0.2627  1.2644
  114OSM   C16S11913   1.219   4.964   8.767  0.3366  0.4565  0.2176
  114OSM   H16S11914   1.137   4.901   8.806 -0.0572 -0.5064 -2.1249
  114OSM   H16T11915   1.318   4.961   8.817  1.2594  1.0350 -1.5231
  114OSM   C17S11916   1.251   4.922   8.619 -1.0056  0.3745  0.4220
  114OSM   H17S11917   1.154   4.913   8.566  0.4361 -1.1388 -2.0296
  114OSM   H17T11918   1.293   4.819   8.619 -3.1423 -0.5311  0.6595
  114OSM   C18S11919   1.350   5.017   8.546 -0.5717 -0.4099  0.1792
  114OSM   H18S11920   1.369   4.992   8.439  0.3283 -0.5389  0.3613
  114OSM   H18T11921   1.449   5.028   8.595 -1.4211  0.6821  1.6766
  114OSM   H18U11922   1.313   5.122   8.541 -1.8255 -0.9177 -2.0190
  114OSM    C1F11923   1.112   5.052   9.769 -0.4472  0.1796 -0.1158
  114OSM     OF11924   1.069   5.063   9.882  0.3980 -0.3552 -0.4437
  114OSM    C2F11925   1.078   4.920   9.696  0.4424  0.7395  0.1535
  114OSM    H2F11926   1.053   4.843   9.772  1.3063 -0.3818 -0.7028
  114OSM    H2G11927   1.164   4.874   9.644 -0.2267  0.6401 -0.8678
  114OSM    C3F11928   0.963   4.927   9.592 -0.8819  0.5522  0.2980
  114OSM    H3F11929   0.883   4.977   9.649 -0.9751  0.5297  0.1863
  114OSM    H3G11930   0.929   4.829   9.551  0.5297  0.1427  0.0532
  114OSM    C4F11931   0.990   5.005   9.460  0.0648  0.0515 -1.0927
  114OSM    H4F11932   1.052   5.095   9.479 -0.3159 -0.2166  1.6711
  114OSM    H4G11933   0.889   5.044   9.433 -1.7192 -1.8709  2.4359
  114OSM    C5F11934   1.035   4.924   9.345 -0.1483  0.0009 -0.6847
  114OSM    H5F11935   0.958   4.845   9.332  1.7395 -1.5947 -2.7082
  114OSM    H5G11936   1.130   4.867   9.360 -0.9090 -1.3702 -1.0142
  114OSM    C6F11937   1.059   5.005   9.216 -0.0555 -0.1517 -0.1017
  114OSM    H6F11938   0.962   5.043   9.176 -0.2480  0.8451  1.2879
  114OSM    H6G11939   1.106   4.934   9.145  0.5845 -0.6814  0.8400
  114OSM    C7F11940   1.145   5.129   9.226  0.0009  0.0914  0.0228
  114OSM    H7F11941   1.098   5.197   9.300 -0.6312 -0.6469  0.2989
  114OSM    H7G11942   1.142   5.183   9.129 -1.2506 -1.8184 -1.0285
  114OSM    C8F11943   1.295   5.107   9.263  0.1740  0.1751  0.0602
  114OSM    H8F11944   1.336   5.042   9.183  1.5983  0.0990  0.8340
  114OSM    H8G11945   1.292   5.045   9.355  0.1732  0.0060 -0.0522
  114OSM    C9F11946   1.393   5.223   9.288  0.3833  0.5626 -0.0157
  114OSM    H9F11947   1.389   5.280   9.382  1.5628  0.2859  0.2047
  114OSM   C10F11948   1.501   5.245   9.211 -0.2141 -0.6571  0.0683
  114OSM   H10F11949   1.563   5.333   9.238  1.8798 -1.7547 -1.0390
  114OSM   C11F11950   1.553   5.177   9.092  0.1090  0.1988 -0.0486
  114OSM   H11F11951   1.483   5.114   9.033  2.6062 -1.5872 -1.2326
  114OSM   H11G11952   1.641   5.110   9.106 -1.3186 -2.0429 -1.3602
  114OSM   C12F11953   1.608   5.283   8.997 -0.4007 -0.9349  0.4689
  114OSM   H12F11954   1.707   5.327   9.023 -0.8688  0.6964 -0.4074
  114OSM   H12G11955   1.538   5.369   8.998  1.0938  0.2894  0.8888
  114OSM   C13F11956   1.604   5.232   8.848  0.4715  0.1428  0.2353
  114OSM   H13F11957   1.503   5.192   8.824 -0.2138  3.0841 -2.0260
  114OSM   H13G11958   1.675   5.147   8.838  2.0441  1.2014  2.0341
  114OSM   C14F11959   1.624   5.347   8.746 -0.4664 -0.4337  0.0013
  114OSM   H14F11960   1.544   5.420   8.772  1.4244  0.6976  2.8846
  114OSM   H14G11961   1.612   5.309   8.642  0.9459 -0.8682 -0.0121
  114OSM   C15F11962   1.755   5.424   8.754 -0.3028 -0.0164  0.1763
  114OSM   H15F11963   1.843   5.356   8.757 -2.0751 -2.4177 -0.8543
  114OSM   H15G11964   1.749   5.476   8.852 -1.0540 -2.8927  1.7218
  114OSM   C16F11965   1.783   5.513   8.631 -0.1109 -0.8311 -0.3267
  114OSM   H16F11966   1.690   5.554   8.585  0.3642 -1.1765 -1.6379
  114OSM   H16G11967   1.798   5.445   8.544  0.5243 -1.3591  0.2021
  114OSM   C17F11968   1.894   5.609   8.646  0.4607 -0.7249 -0.1365
  114OSM   H17F11969   1.984   5.549   8.672  0.6477 -0.3333  0.1419
  114OSM   H17G11970   1.871   5.669   8.737 -0.6071 -1.9048  0.3779
  114OSM   C18F11971   1.926   5.686   8.520 -0.3458 -0.2813 -0.5181
  114OSM   H18F11972   2.017   5.749   8.521  0.0590 -0.7899 -2.5700
  114OSM   H18G11973   1.843   5.756   8.495  0.2653 -0.2069 -2.3833
  114OSM   H18H11974   1.921   5.603   8.446  1.6448  0.4344 -1.4623
  115OSM      N11975   6.676   3.166  10.044  0.8131 -0.1444 -0.1555
  115OSM    C1511976   6.771   3.109   9.940 -0.2460  0.2946 -0.1680
  115OSM   H15A11977   6.871   3.093   9.977 -0.2366  0.9346  0.0925
  115OSM   H15B11978   6.782   3.176   9.856 -0.0005  2.4730  1.5521
  115OSM   H15C11979   6.733   3.012   9.910 -0.6627  0.3107  0.2860
  115OSM    C1411980   6.678   3.078  10.168 -0.1931  0.1637  0.2298
  115OSM   H14A11981   6.599   3.005  10.180  0.3565 -0.5694 -0.5801
  115OSM   H14B11982   6.681   3.136  10.259  2.3736  1.0934 -0.4234
  115OSM   H14C11983   6.776   3.034  10.159 -0.9594 -1.4917 -0.2574
  115OSM    C1311984   6.734   3.294  10.086  0.2546 -0.4786  0.0312
  115OSM   H13A11985   6.740   3.358   9.999  0.3113  1.2002  1.2505
  115OSM   H13B11986   6.822   3.301  10.148  0.5651  0.4466 -0.5060
  115OSM   H13C11987   6.661   3.336  10.154 -1.3074 -0.3030 -1.6993
  115OSM    C1211988   6.531   3.180   9.999  0.4119  0.3409 -0.1289
  115OSM   H12A11989   6.497   3.083   9.968 -1.1994  0.9402 -0.3206
  115OSM   H12B11990   6.535   3.236   9.907 -0.0562 -1.2172 -1.1059
  115OSM    C1111991   6.419   3.239  10.099  1.0412 -0.3179  0.5820
  115OSM   H11A11992   6.416   3.186  10.197  1.4604 -1.4729 -0.0209
  115OSM   H11B11993   6.327   3.232  10.037  1.5112  1.5933 -0.3597
  115OSM      P11994   6.414   3.490  10.017  0.2599  0.1694 -0.2249
  115OSM    O1311995   6.313   3.584  10.075 -0.0776 -0.0431 -0.0029
  115OSM    O1411996   6.539   3.560   9.985 -0.1736  0.2576 -0.1434
  115OSM    O1111997   6.352   3.411   9.888 -0.4088 -0.3193  0.2740
  115OSM    O1211998   6.443   3.377  10.123 -0.0396 -0.6320 -0.4119
  115OSM    C1S11999   6.298   3.480   9.769  0.3945 -0.1757  1.0555
  115OSM    H1S12000   6.269   3.585   9.787  0.2734  0.1589 -1.0380
  115OSM    H1T12001   6.220   3.416   9.722  2.1619 -0.3634 -1.7049
  115OSM     NF12002   6.386   3.599   9.559 -0.2650 -0.3293  0.3202
  115OSM    HNF12003   6.353   3.570   9.470  2.8949  0.2819 -1.1215
  115OSM    C2S12004   6.407   3.499   9.663 -0.2512 -0.0938 -0.3544
  115OSM    H2S12005   6.506   3.521   9.710 -0.3055 -0.2250 -0.1771
  115OSM    C3S12006   6.436   3.350   9.604  0.4236  0.2384 -0.2524
  115OSM    H3S12007   6.356   3.307   9.540 -1.2901  1.6095  0.9135
  115OSM     O312008   6.457   3.249   9.708 -0.9990 -0.1779  0.1377
  115OSM    HO312009   6.416   3.288   9.785 -0.8012 -0.4949  0.4071
  115OSM    C4S12010   6.561   3.349   9.518  0.1576 -0.1750  0.2598
  115OSM    H4S12011   6.650   3.408   9.545 -0.5418  0.6689  0.7290
  115OSM    C5S12012   6.562   3.316   9.387 -0.3276  0.1384  0.0868
  115OSM    H5S12013   6.464   3.290   9.343  0.2822 -3.3055  0.6025
  115OSM    C6S12014   6.682   3.321   9.292  0.0389 -0.2552  0.2256
  115OSM    H6S12015   6.709   3.215   9.270  1.8187  0.0695  0.7566
  115OSM    H6T12016   6.769   3.363   9.347  0.3205  0.5705 -0.8415
  115OSM    C7S12017   6.659   3.394   9.162 -0.4538 -0.1803 -0.0096
  115OSM    H7S12018   6.639   3.501   9.184  1.4603  0.5132 -1.4517
  115OSM    H7T12019   6.570   3.351   9.111  0.2085 -2.5889  0.8049
  115OSM    C8S12020   6.777   3.409   9.064  0.0359 -0.0591 -0.3053
  115OSM    H8S12021   6.801   3.303   9.039 -1.3015 -0.1982 -1.0449
  115OSM    H8T12022   6.859   3.455   9.124  1.3475 -2.1762 -0.3920
  115OSM    C9S12023   6.755   3.468   8.926 -0.3200  0.6713 -0.1072
  115OSM    H9S12024   6.732   3.576   8.929 -0.2035  0.7074 -0.4530
  115OSM    H9T12025   6.676   3.414   8.869  0.7348 -0.6619 -0.3541
  115OSM   C10S12026   6.882   3.440   8.851 -0.7319  0.0619  0.8537
  115OSM   H10S12027   6.888   3.329   8.848 -2.2128 -0.0087 -0.7823
  115OSM   H10T12028   6.969   3.487   8.901  0.1293  1.7041 -2.1062
  115OSM   C11S12029   6.878   3.501   8.712 -0.0786 -0.5199  0.8948
  115OSM   H11S12030   6.797   3.448   8.658 -0.4263  2.9788 -2.2056
  115OSM   H11T12031   6.974   3.474   8.663  0.2065  0.6558  0.7933
  115OSM   C12S12032   6.840   3.657   8.707  0.2325 -0.1208  0.2413
  115OSM   H12S12033   6.900   3.693   8.793  1.2996 -1.2068 -0.0291
  115OSM   H12T12034   6.730   3.674   8.706 -0.0217 -1.7122 -0.7417
  115OSM   C13S12035   6.893   3.735   8.581 -0.0990 -0.8001  0.0811
  115OSM   H13S12036   6.910   3.671   8.492 -3.1436 -2.0053  0.2875
  115OSM   H13T12037   6.994   3.776   8.601  0.1541 -0.4275 -1.8709
  115OSM   C14S12038   6.811   3.857   8.545 -0.4261 -0.3585 -0.1787
  115OSM   H14S12039   6.818   3.925   8.633  0.5429  0.1930 -0.6725
  115OSM   H14T12040   6.703   3.833   8.533 -0.2426 -1.3288  0.0911
  115OSM   C15S12041   6.854   3.929   8.420 -0.3991 -0.0181 -0.0098
  115OSM   H15S12042   6.827   3.862   8.336 -1.1907  0.7175 -0.3473
  115OSM   H15T12043   6.964   3.936   8.407 -0.0822 -0.9451  2.0390
  115OSM   C16S12044   6.775   4.053   8.424 -0.6858 -0.0553  0.3397
  115OSM   H16S12045   6.799   4.117   8.512 -4.1391 -0.8889  1.9667
  115OSM   H16T12046   6.665   4.041   8.430 -0.9994  3.0533  1.9088
  115OSM   C17S12047   6.797   4.145   8.301 -0.2280 -1.0753  0.0213
  115OSM   H17S12048   6.903   4.178   8.298 -0.8693  0.8455 -3.8146
  115OSM   H17T12049   6.746   4.241   8.323  1.7130 -0.0951  0.3097
  115OSM   C18S12050   6.752   4.088   8.175  0.0355 -0.4841 -0.2868
  115OSM   H18S12051   6.644   4.061   8.181  0.0819 -0.7979 -0.7778
  115OSM   H18T12052   6.796   3.993   8.138 -1.8024 -1.4248 -0.0827
  115OSM   H18U12053   6.741   4.170   8.101 -0.2424 -2.0886 -2.0668
  115OSM    C1F12054   6.403   3.725   9.578 -0.6057  0.3448  0.3567
  115OSM     OF12055   6.450   3.771   9.683  0.7303 -0.6216 -0.1299
  115OSM    C2F12056   6.371   3.809   9.459 -0.3675 -0.2534 -0.3389
  115OSM    H2F12057   6.373   3.910   9.506  2.1235 -0.1440 -0.6217
  115OSM    H2G12058   6.273   3.793   9.410 -0.4383 -0.4781 -0.1226
  115OSM    C3F12059   6.476   3.799   9.345 -0.0804  0.9603  0.3517
  115OSM    H3F12060   6.457   3.698   9.302  0.1649  0.9323  0.3127
  115OSM    H3G12061   6.580   3.793   9.381 -0.0914 -0.8756  0.1485
  115OSM    C4F12062   6.449   3.908   9.237 -0.1787  0.5911  0.1589
  115OSM    H4F12063   6.471   4.009   9.278  1.5658  1.2610 -2.3328
  115OSM    H4G12064   6.342   3.911   9.209 -0.1364  1.7376  0.1007
  115OSM    C5F12065   6.537   3.871   9.113  0.4808 -0.0343  0.0627
  115OSM    H5F12066   6.518   3.767   9.078 -0.6379  0.1339  0.1410
  115OSM    H5G12067   6.645   3.879   9.135  0.8183  2.5025 -2.2958
  115OSM    C6F12068   6.509   3.963   8.994  0.2592  0.3152 -0.1898
  115OSM    H6F12069   6.533   4.069   9.016 -2.0955  1.2763 -2.0056
  115OSM    H6G12070   6.398   3.962   8.979  0.0573  0.4948  1.2267
  115OSM    C7F12071   6.572   3.931   8.856  0.1472 -0.2421 -0.3832
  115OSM    H7F12072   6.558   3.825   8.824 -0.4937 -0.0811 -0.6536
  115OSM    H7G12073   6.679   3.934   8.883  0.0825  2.5353 -0.3386
  115OSM    C8F12074   6.527   4.024   8.738  0.0623 -0.2776 -0.3535
  115OSM    H8F12075   6.599   4.003   8.656 -1.1661  0.2553 -1.5791
  115OSM    H8G12076   6.539   4.128   8.775  3.5417 -1.0894  1.0291
  115OSM    C9F12077   6.384   4.003   8.699 -0.2303  0.1985 -0.3723
  115OSM    H9F12078   6.315   4.083   8.730 -0.5989  0.4565 -1.8266
  115OSM   C10F12079   6.328   3.912   8.623  0.4178  0.0232 -0.4804
  115OSM   H10F12080   6.219   3.915   8.605 -0.0220 -0.8598  1.8728
  115OSM   C11F12081   6.391   3.790   8.554  0.4669  0.1564 -0.8965
  115OSM   H11F12082   6.314   3.710   8.547  0.2680  0.3470 -0.9153
  115OSM   H11G12083   6.483   3.752   8.603  0.0579  1.3242  0.8259
  115OSM   C12F12084   6.437   3.835   8.414  0.2936  0.2782 -0.5361
  115OSM   H12F12085   6.525   3.898   8.437  0.2236  0.4498 -0.7443
  115OSM   H12G12086   6.352   3.888   8.365 -0.9438 -0.5769  0.6417
  115OSM   C13F12087   6.488   3.720   8.330 -1.0181 -0.1544  0.1067
  115OSM   H13F12088   6.403   3.649   8.320 -1.3362  0.1103  0.9357
  115OSM   H13G12089   6.579   3.684   8.382 -0.3805 -0.6376 -1.2984
  115OSM   C14F12090   6.526   3.769   8.190 -0.5000 -0.0475  0.0653
  115OSM   H14F12091   6.569   3.681   8.138  0.4335 -0.4852  1.5527
  115OSM   H14G12092   6.603   3.848   8.199 -0.0185 -0.2685 -1.8132
  115OSM   C15F12093   6.406   3.830   8.110 -0.1704  1.0352 -0.4948
  115OSM   H15F12094   6.368   3.921   8.161  0.1952  1.2769 -0.6487
  115OSM   H15G12095   6.319   3.761   8.102 -0.5028  1.5501 -1.5038
  115OSM   C16F12096   6.433   3.875   7.965  0.4432 -0.1330 -0.0010
  115OSM   H16F12097   6.529   3.931   7.963  0.0201  0.6226  0.8717
  115OSM   H16G12098   6.352   3.945   7.936  0.9100  0.9061  1.1574
  115OSM   C17F12099   6.431   3.768   7.855  0.1682  0.2915 -0.0453
  115OSM   H17F12100   6.338   3.708   7.866  0.3540 -0.5900 -2.7887
  115OSM   H17G12101   6.516   3.698   7.869 -0.2943  0.0262  1.5119
  115OSM   C18F12102   6.454   3.826   7.715  0.0203 -0.0748  0.1917
  115OSM   H18F12103   6.477   3.750   7.638  0.5263  2.0001 -1.7732
  115OSM   H18G12104   6.547   3.887   7.715 -0.6114  1.0246 -3.8424
  115OSM   H18H12105   6.367   3.890   7.689 -0.3822  0.2590  2.2411
  116OSM      N12106   2.262   0.348  10.601 -0.2065  0.1015 -0.1144
  116OSM    C1512107   2.292   0.461  10.697  0.5290 -0.1350  0.6360
  116OSM   H15A12108   2.364   0.440  10.774 -0.1828  0.8401  1.5780
  116OSM   H15B12109   2.201   0.484  10.750 -0.1379 -0.5511 -0.3078
  116OSM   H15C12110   2.336   0.546  10.647  0.9144  0.0841  1.3461
  116OSM    C1412111   2.222   0.224  10.680 -0.1195 -0.2573  0.4282
  116OSM   H14A12112   2.206   0.141  10.613  2.5793 -0.0477 -0.5311
  116OSM   H14B12113   2.122   0.233  10.719  0.3086 -1.9218  1.9502
  116OSM   H14C12114   2.300   0.205  10.752  1.6415  1.3348 -0.9822
  116OSM    C1312115   2.155   0.392  10.507  0.3086 -0.1042 -0.0172
  116OSM   H13A12116   2.074   0.446  10.553 -0.4545 -0.3753 -1.0083
  116OSM   H13B12117   2.110   0.301  10.469  0.3757  0.1913 -0.8146
  116OSM   H13C12118   2.184   0.449  10.420 -0.9972  1.8697  0.8007
  116OSM    C1212119   2.387   0.309  10.523 -0.2586  0.2185  0.7394
  116OSM   H12A12120   2.372   0.217  10.469  2.5633  1.9864 -3.3400
  116OSM   H12B12121   2.465   0.292  10.596  1.3897  0.3323 -0.9609
  116OSM    C1112122   2.439   0.413  10.419 -0.0606 -0.3320  0.2994
  116OSM   H11A12123   2.547   0.389  10.413 -0.4114 -2.0486  0.6651
  116OSM   H11B12124   2.430   0.513  10.468  0.3551 -0.3842  0.4817
  116OSM      P12125   2.391   0.302  10.179 -0.0405 -0.1077  0.3832
  116OSM    O1312126   2.516   0.224  10.213  0.5276 -0.6047  0.2894
  116OSM    O1412127   2.266   0.229  10.158 -0.0632  0.0354  0.0269
  116OSM    O1112128   2.432   0.395  10.059  0.1890  0.3386 -0.0452
  116OSM    O1212129   2.369   0.408  10.293  0.5211  0.0252 -0.3281
  116OSM    C1S12130   2.552   0.477  10.076  0.3946 -0.0816 -0.1484
  116OSM    H1S12131   2.605   0.461  10.173 -2.3466 -1.2951  1.1922
  116OSM    H1T12132   2.508   0.578  10.080 -2.2111 -1.0408 -3.0902
  116OSM     NF12133   2.757   0.564   9.997 -0.7163  0.0613 -0.0236
  116OSM    HNF12134   2.760   0.661   9.975 -0.8223 -0.8553 -4.6388
  116OSM    C2S12135   2.645   0.480   9.958  0.1739  0.3146 -0.0455
  116OSM    H2S12136   2.680   0.378   9.933 -0.6783 -0.1661  0.7069
  116OSM    C3S12137   2.579   0.536   9.831 -0.0874 -1.2275  0.4202
  116OSM    H3S12138   2.544   0.641   9.839  0.3779 -0.9184 -1.4071
  116OSM     O312139   2.451   0.475   9.803 -0.2676  0.4108 -0.1047
  116OSM    HO312140   2.431   0.424   9.882 -0.8998  0.6629 -0.0947
  116OSM    C4S12141   2.677   0.529   9.708  0.6681  0.1958  0.3558
  116OSM    H4S12142   2.764   0.597   9.712  1.6741 -1.0338  0.0115
  116OSM    C5S12143   2.664   0.449   9.598 -0.4320 -0.5845 -0.2711
  116OSM    H5S12144   2.580   0.379   9.591 -1.5798  0.8060 -0.6015
  116OSM    C6S12145   2.746   0.454   9.474 -0.4516 -0.3975  0.6415
  116OSM    H6S12146   2.711   0.519   9.391  0.6169  0.4226  0.8282
  116OSM    H6T12147   2.747   0.353   9.428 -0.9476 -0.8353  1.5629
  116OSM    C7S12148   2.887   0.499   9.503  0.0986 -0.8040  0.0385
  116OSM    H7S12149   2.928   0.438   9.585 -2.4638 -1.4361  0.9124
  116OSM    H7T12150   2.885   0.605   9.539 -1.7618 -0.5940 -0.6184
  116OSM    C8S12151   2.969   0.492   9.373  0.5161  0.3956  0.2544
  116OSM    H8S12152   2.969   0.387   9.335 -2.3102  0.3605  0.2780
  116OSM    H8T12153   3.077   0.511   9.395  0.4852  1.5360 -0.5532
  116OSM    C9S12154   2.923   0.573   9.244  0.2624  0.1092  0.0827
  116OSM    H9S12155   2.910   0.680   9.271  0.4997 -0.0501  0.8609
  116OSM    H9T12156   2.819   0.549   9.215  0.5350  0.0715 -0.8733
  116OSM   C10S12157   3.032   0.559   9.129 -0.1214 -0.6317  0.6356
  116OSM   H10S12158   3.055   0.451   9.135 -1.4249 -0.9387  0.2501
  116OSM   H10T12159   3.119   0.622   9.158 -0.4496 -0.0003  0.2583
  116OSM   C11S12160   2.990   0.603   8.995  0.5897  0.5277  0.5697
  116OSM   H11S12161   2.964   0.711   9.000  0.3515  0.4781  0.4354
  116OSM   H11T12162   2.897   0.552   8.963 -0.2915  1.9844  0.7186
  116OSM   C12S12163   3.099   0.579   8.881  0.6320 -0.1758  0.4303
  116OSM   H12S12164   3.189   0.643   8.896 -0.6384  1.3784  1.5705
  116OSM   H12T12165   3.053   0.614   8.786 -0.6766 -1.2157  0.6762
  116OSM   C13S12166   3.138   0.434   8.864 -0.1775  0.6209 -0.6280
  116OSM   H13S12167   3.053   0.367   8.843  1.0171 -1.3817  0.7641
  116OSM   H13T12168   3.182   0.383   8.952 -1.0185  1.1260  0.0860
  116OSM   C14S12169   3.249   0.421   8.759  0.6269  0.6714 -0.6608
  116OSM   H14S12170   3.251   0.310   8.747  2.1327  0.7152 -0.8739
  116OSM   H14T12171   3.344   0.453   8.807 -0.3043  0.0372  1.6949
  116OSM   C15S12172   3.219   0.474   8.629  1.1714 -0.1432  0.1808
  116OSM   H15S12173   3.225   0.585   8.633  2.6969 -0.2568  1.7969
  116OSM   H15T12174   3.117   0.439   8.600 -0.0823  3.3017  0.1922
  116OSM   C16S12175   3.301   0.407   8.522  0.7836  0.1311  1.0284
  116OSM   H16S12176   3.264   0.304   8.501  0.7390  0.7880 -2.2218
  116OSM   H16T12177   3.404   0.397   8.565  0.4899  1.2801  2.0220
  116OSM   C17S12178   3.307   0.486   8.385  0.0893  1.7604 -0.1281
  116OSM   H17S12179   3.374   0.440   8.309 -0.2439  0.8666  0.1180
  116OSM   H17T12180   3.357   0.581   8.413  1.2890  0.7489  1.2043
  116OSM   C18S12181   3.175   0.521   8.321 -0.0303 -1.3394 -0.0364
  116OSM   H18S12182   3.188   0.592   8.236  0.4487 -1.4779 -0.0808
  116OSM   H18T12183   3.110   0.566   8.398  0.1485 -1.6031  0.2675
  116OSM   H18U12184   3.122   0.432   8.278 -1.3837 -0.9451  0.7822
  116OSM    C1F12185   2.847   0.525  10.087 -0.0874 -0.3456  0.1520
  116OSM     OF12186   2.862   0.409  10.122 -0.2965 -0.5579 -0.2257
  116OSM    C2F12187   2.926   0.632  10.153  0.3361 -0.0558  0.4186
  116OSM    H2F12188   2.899   0.635  10.260 -0.6403  2.1382  0.1367
  116OSM    H2G12189   2.909   0.725  10.095  0.6370 -0.8609 -0.9858
  116OSM    C3F12190   3.083   0.610  10.150  0.3958 -0.1258  0.7586
  116OSM    H3F12191   3.113   0.519  10.207  1.4247 -0.0938  0.2815
  116OSM    H3G12192   3.134   0.694  10.201  1.1972  0.5642 -1.1336
  116OSM    C4F12193   3.135   0.616  10.009 -0.5042  0.0650  0.2344
  116OSM    H4F12194   3.106   0.708   9.954 -1.7020 -0.4844 -0.0599
  116OSM    H4G12195   3.091   0.532   9.951 -0.6993 -1.3284  2.3283
  116OSM    C5F12196   3.290   0.611  10.006  0.0141  0.1181 -0.5404
  116OSM    H5F12197   3.316   0.528  10.075 -2.3574  0.3424  0.7055
  116OSM    H5G12198   3.343   0.692  10.059  3.3536 -0.7920 -2.3703
  116OSM    C6F12199   3.349   0.592   9.872  0.2956  0.4248  0.0865
  116OSM    H6F12200   3.361   0.696   9.834 -1.2495 -0.4366 -2.8808
  116OSM    H6G12201   3.267   0.543   9.816 -0.4276  0.3981  1.1519
  116OSM    C7F12202   3.481   0.509   9.883 -0.5348 -0.5712 -0.2400
  116OSM    H7F12203   3.454   0.409   9.923 -1.2305 -0.3819 -0.2226
  116OSM    H7G12204   3.532   0.576   9.955 -1.1712 -0.2373 -0.0902
  116OSM    C8F12205   3.566   0.500   9.754 -0.2922 -0.5228  0.3674
  116OSM    H8F12206   3.513   0.451   9.669 -0.3237  0.0385  0.0588
  116OSM    H8G12207   3.657   0.440   9.775  0.0306  0.1968  1.0238
  116OSM    C9F12208   3.619   0.639   9.706  0.0235  0.6692 -1.0449
  116OSM    H9F12209   3.706   0.673   9.764 -0.1115 -0.2764 -0.2715
  116OSM   C10F12210   3.573   0.718   9.601  0.3953 -0.2878  0.1926
  116OSM   H10F12211   3.612   0.821   9.593  0.6437 -0.3637  0.4035
  116OSM   C11F12212   3.464   0.680   9.510  0.1504 -0.0328 -0.1458
  116OSM   H11F12213   3.375   0.742   9.531 -0.6214 -2.3742  3.9822
  116OSM   H11G12214   3.434   0.574   9.525  1.2968 -0.4835 -0.9500
  116OSM   C12F12215   3.501   0.684   9.362 -0.0959  0.1811  1.1271
  116OSM   H12F12216   3.598   0.634   9.339 -0.5577 -0.6272  0.8814
  116OSM   H12G12217   3.513   0.791   9.335  0.9098  0.0091  0.8714
  116OSM   C13F12218   3.395   0.625   9.262  0.8956  0.1409 -0.3307
  116OSM   H13F12219   3.309   0.695   9.270  2.9000  2.3480  3.1563
  116OSM   H13G12220   3.373   0.523   9.300  0.6067 -0.2703 -1.5943
  116OSM   C14F12221   3.428   0.618   9.116  0.4154 -0.2430 -0.1043
  116OSM   H14F12222   3.335   0.614   9.056 -0.5892  1.6497  1.2615
  116OSM   H14G12223   3.492   0.532   9.086  1.4532  1.4045 -2.7705
  116OSM   C15F12224   3.489   0.750   9.060  0.1501  0.6490 -0.4063
  116OSM   H15F12225   3.590   0.778   9.096  0.7527  0.5481 -1.9673
  116OSM   H15G12226   3.421   0.833   9.089  0.2613  0.9601 -1.0074
  116OSM   C16F12227   3.492   0.748   8.909 -0.2260  0.3267 -0.2705
  116OSM   H16F12228   3.500   0.857   8.887  1.8284  0.2424 -0.0718
  116OSM   H16G12229   3.404   0.705   8.855 -0.2613  0.8543 -0.6359
  116OSM   C17F12230   3.622   0.687   8.854 -0.6220 -0.8515  0.6791
  116OSM   H17F12231   3.620   0.576   8.851 -1.4819 -0.8163 -0.3622
  116OSM   H17G12232   3.714   0.720   8.906  1.1063 -2.8762 -0.9877
  116OSM   C18F12233   3.633   0.712   8.704 -0.3713  0.2610 -0.1056
  116OSM   H18F12234   3.624   0.818   8.672  0.9356  0.4748  0.1929
  116OSM   H18G12235   3.558   0.653   8.648 -0.8779  0.9613 -0.1698
  116OSM   H18H12236   3.735   0.674   8.682 -0.6526 -0.6810  0.2170
  117OSM      N12237   2.232   0.721  10.160 -0.2540 -0.2930 -0.0217
  117OSM    C1512238   2.165   0.856  10.165  0.3621 -0.1568 -0.0249
  117OSM   H15A12239   2.242   0.931  10.155  1.7226 -1.7816 -2.4348
  117OSM   H15B12240   2.126   0.872  10.264  1.5388  1.6833  0.1667
  117OSM   H15C12241   2.090   0.877  10.091 -0.0884  0.8008  0.6990
  117OSM    C1412242   2.300   0.709  10.032 -0.4563 -0.0653 -0.5175
  117OSM   H14A12243   2.391   0.765  10.020 -1.0185  0.9938  0.1355
  117OSM   H14B12244   2.233   0.736   9.952 -1.2735  0.3797  0.3079
  117OSM   H14C12245   2.338   0.608  10.019 -1.0933 -0.3723  0.0100
  117OSM    C1312246   2.329   0.716  10.273  0.0761  0.1398  1.0890
  117OSM   H13A12247   2.289   0.767  10.360  1.1714  0.6555  1.2950
  117OSM   H13B12248   2.421   0.765  10.245 -0.3782  0.8338  0.7827
  117OSM   H13C12249   2.352   0.613  10.291 -1.0229 -0.4719 -0.8953
  117OSM    C1212250   2.119   0.613  10.165  0.0159 -0.5031 -0.9823
  117OSM   H12A12251   2.067   0.618  10.260  1.6036  2.1624 -0.2232
  117OSM   H12B12252   2.165   0.515  10.164 -2.2874 -1.6356 -1.2364
  117OSM    C1112253   2.009   0.602  10.055  0.6438  0.1858 -0.3071
  117OSM   H11A12254   1.934   0.524  10.080 -1.2865  2.2493  0.5315
  117OSM   H11B12255   2.051   0.567   9.958  1.2117 -2.0288  0.6910
  117OSM      P12256   1.806   0.768  10.091 -0.1218  0.3937 -0.6957
  117OSM    O1312257   1.734   0.666  10.173 -0.3041 -0.3160 -0.1785
  117OSM    O1412258   1.837   0.901  10.158  0.3328 -0.1048 -0.6104
  117OSM    O1112259   1.724   0.802   9.970 -0.0892 -0.5450 -0.1924
  117OSM    O1212260   1.944   0.721  10.029  0.3424  0.9889  0.1589
  117OSM    C1S12261   1.773   0.806   9.834  0.0712 -0.0438 -0.3904
  117OSM    H1S12262   1.815   0.707   9.806  1.9372  0.9206 -1.0100
  117OSM    H1T12263   1.852   0.883   9.820 -1.4308  1.3449 -1.4084
  117OSM     NF12264   1.714   0.843   9.591  0.1470  0.0175  0.1900
  117OSM    HNF12265   1.768   0.921   9.562  0.6495 -1.2905 -2.5170
  117OSM    C2S12266   1.662   0.852   9.737  0.2972  0.5966  0.0435
  117OSM    H2S12267   1.575   0.785   9.751 -0.6613  1.8759  0.3068
  117OSM    C3S12268   1.619   0.999   9.777 -0.0760  0.3403  0.2181
  117OSM    H3S12269   1.708   1.065   9.787  1.1299 -0.9797 -1.5575
  117OSM     O312270   1.547   1.006   9.899  0.4098 -0.1913 -0.3578
  117OSM    HO312271   1.538   0.912   9.918 -2.4178 -0.1698 -1.3219
  117OSM    C4S12272   1.539   1.072   9.670  0.8833  0.9510  0.8968
  117OSM    H4S12273   1.597   1.150   9.618  1.5878 -1.3405 -1.8674
  117OSM    C5S12274   1.411   1.052   9.633 -0.6063 -0.4688 -0.0502
  117OSM    H5S12275   1.360   0.965   9.678 -0.9080 -0.1678  0.1971
  117OSM    C6S12276   1.340   1.137   9.529  0.3951  0.4021  0.2303
  117OSM    H6S12277   1.276   1.216   9.573 -0.9006  0.2210 -1.3096
  117OSM    H6T12278   1.286   1.065   9.464  1.8783 -0.3404 -0.2187
  117OSM    C7S12279   1.426   1.218   9.433 -0.0693  0.1036  0.4465
  117OSM    H7S12280   1.512   1.153   9.404 -1.2026 -1.2866  0.1518
  117OSM    H7T12281   1.472   1.304   9.485 -1.7087  1.9182 -1.0128
  117OSM    C8S12282   1.345   1.275   9.307  0.1957  0.2697 -1.0152
  117OSM    H8S12283   1.286   1.358   9.353  2.9454  1.3012  0.7436
  117OSM    H8T12284   1.281   1.202   9.254  2.0187 -1.6740 -0.5973
  117OSM    C9S12285   1.435   1.341   9.201 -0.2382  0.3327 -0.4142
  117OSM    H9S12286   1.520   1.270   9.186  0.2172  0.4876  1.3786
  117OSM    H9T12287   1.482   1.424   9.257 -1.7327 -0.4247  2.0187
  117OSM   C10S12288   1.364   1.400   9.076  0.5722 -0.3471  0.8613
  117OSM   H10S12289   1.286   1.472   9.108  0.9422  0.1630  0.6456
  117OSM   H10T12290   1.316   1.322   9.014 -1.1146 -0.6988  2.5760
  117OSM   C11S12291   1.474   1.463   8.990 -0.1075 -0.2894  0.0549
  117OSM   H11S12292   1.427   1.507   8.900 -1.7586 -2.5396 -0.2462
  117OSM   H11T12293   1.563   1.400   8.967  1.2291  1.8925 -0.8731
  117OSM   C12S12294   1.541   1.589   9.057  1.0457  1.1953  0.3405
  117OSM   H12S12295   1.608   1.557   9.140 -0.7132 -3.6297  0.0181
  117OSM   H12T12296   1.467   1.659   9.102  1.0114  0.4043  1.5304
  117OSM   C13S12297   1.631   1.663   8.956  0.0321  0.3870 -0.4923
  117OSM   H13S12298   1.702   1.583   8.926 -0.4594 -0.3802  0.3680
  117OSM   H13T12299   1.682   1.742   9.015  0.6119 -1.7956  1.9945
  117OSM   C14S12300   1.575   1.723   8.827  0.2627 -0.3596  0.2346
  117OSM   H14S12301   1.524   1.650   8.760  0.8659 -0.1567 -0.4622
  117OSM   H14T12302   1.649   1.773   8.761 -0.1210 -0.8138 -0.5464
  117OSM   C15S12303   1.467   1.825   8.860 -0.4776  0.1773  0.4616
  117OSM   H15S12304   1.517   1.902   8.922  0.4003  0.1505 -0.2020
  117OSM   H15T12305   1.383   1.768   8.906 -0.8347  1.1109  0.9749
  117OSM   C16S12306   1.401   1.901   8.742  0.1154 -0.3990  0.6438
  117OSM   H16S12307   1.473   1.939   8.666  1.7138 -1.6913  1.5008
  117OSM   H16T12308   1.340   1.977   8.795 -1.2222 -2.2193  1.7515
  117OSM   C17S12309   1.303   1.809   8.659  0.8899 -0.3858 -0.0105
  117OSM   H17S12310   1.352   1.726   8.606  1.1198  0.0839 -0.5328
  117OSM   H17T12311   1.261   1.877   8.582 -1.9920 -1.0586  0.8841
  117OSM   C18S12312   1.181   1.756   8.728 -0.0733  0.0561  0.0344
  117OSM   H18S12313   1.222   1.672   8.788  0.3590  0.3040  0.0821
  117OSM   H18T12314   1.121   1.709   8.647  1.3077 -0.2592 -0.8258
  117OSM   H18U12315   1.125   1.822   8.798  0.5794 -2.2687  2.8693
  117OSM    C1F12316   1.719   0.721   9.533 -0.5218  0.8582 -0.2057
  117OSM     OF12317   1.673   0.621   9.589  0.2956  0.5853 -0.3495
  117OSM    C2F12318   1.765   0.710   9.393 -0.3939 -0.6477  0.0771
  117OSM    H2F12319   1.839   0.790   9.372 -1.8541  1.2025  1.8862
  117OSM    H2G12320   1.674   0.734   9.334 -0.9200 -3.3152 -0.2794
  117OSM    C3F12321   1.817   0.571   9.348  0.3367 -0.0282 -0.4006
  117OSM    H3F12322   1.743   0.490   9.368 -0.6375  1.3104  1.5300
  117OSM    H3G12323   1.909   0.542   9.403  1.1426 -0.4586 -1.9418
  117OSM    C4F12324   1.847   0.566   9.200  0.3389  0.3601 -0.5071
  117OSM    H4F12325   1.763   0.584   9.130  0.8695  0.7646 -1.0423
  117OSM    H4G12326   1.877   0.461   9.180 -0.5525  0.2886 -1.4874
  117OSM    C5F12327   1.976   0.636   9.161  1.1454  0.3370  0.0235
  117OSM    H5F12328   2.052   0.580   9.220  3.1373  1.3747 -1.5114
  117OSM    H5G12329   1.985   0.744   9.181  4.2131 -0.6742  5.0626
  117OSM    C6F12330   2.010   0.602   9.013  0.4479 -0.2232  0.3084
  117OSM    H6F12331   1.973   0.501   8.983  2.1742  0.0063 -2.8726
  117OSM    H6G12332   2.120   0.589   9.008  0.6431  1.4706  0.1856
  117OSM    C7F12333   1.966   0.708   8.911 -0.3039  0.1701 -0.0903
  117OSM    H7F12334   2.019   0.805   8.926 -0.4786  0.1685  0.5897
  117OSM    H7G12335   1.860   0.723   8.940  0.0229  0.3713  1.0589
  117OSM    C8F12336   1.972   0.656   8.765  0.2175  0.4964  0.3665
  117OSM    H8F12337   1.887   0.586   8.757  0.6341  0.1232 -1.0374
  117OSM    H8G12338   2.069   0.604   8.750  0.0203  0.4060 -0.6274
  117OSM    C9F12339   1.966   0.770   8.661 -0.3824 -0.2668  0.2037
  117OSM    H9F12340   2.030   0.853   8.694  1.2720 -2.0071  1.4752
  117OSM   C10F12341   1.893   0.778   8.550  0.4346  0.7666 -0.6761
  117OSM   H10F12342   1.902   0.862   8.479  2.8702  3.2075  2.3481
  117OSM   C11F12343   1.802   0.667   8.493  0.0778 -0.2961 -0.7568
  117OSM   H11F12344   1.833   0.568   8.531 -1.6667 -0.2353  0.8927
  117OSM   H11G12345   1.834   0.667   8.386 -1.5087 -2.2039 -1.2627
  117OSM   C12F12346   1.656   0.707   8.514 -0.6576 -0.4487 -0.7611
  117OSM   H12F12347   1.643   0.744   8.618  0.0825  3.0099 -1.8401
  117OSM   H12G12348   1.580   0.628   8.496 -2.5088  1.7218 -2.8961
  117OSM   C13F12349   1.606   0.822   8.412  0.3197  0.5726  0.4159
  117OSM   H13F12350   1.654   0.811   8.313 -2.6915  0.1639 -1.0599
  117OSM   H13G12351   1.638   0.919   8.455  1.9428 -0.3776  1.4076
  117OSM   C14F12352   1.459   0.824   8.390  0.1843  0.2897  0.1715
  117OSM   H14F12353   1.410   0.724   8.395 -1.4728  0.9391 -2.2948
  117OSM   H14G12354   1.453   0.851   8.283 -2.6282  1.2128  0.5077
  117OSM   C15F12355   1.378   0.938   8.460 -0.0018  0.1083  0.2877
  117OSM   H15F12356   1.292   0.961   8.393  1.0679  1.9783 -0.4815
  117OSM   H15G12357   1.438   1.031   8.463  0.7679 -0.3995  0.6944
  117OSM   C16F12358   1.312   0.899   8.602  0.7777  0.9675  0.0465
  117OSM   H16F12359   1.401   0.887   8.667  1.0954  1.3779 -0.3117
  117OSM   H16G12360   1.266   0.799   8.589 -0.2538  1.3379  0.7107
  117OSM   C17F12361   1.210   0.999   8.653  0.7233  1.1512  0.0598
  117OSM   H17F12362   1.128   0.940   8.698  1.2228 -0.1462 -0.6993
  117OSM   H17G12363   1.175   1.052   8.563  0.6188 -1.7989 -1.6949
  117OSM   C18F12364   1.256   1.098   8.752 -0.2607  1.0248  0.0700
  117OSM   H18F12365   1.300   1.068   8.849 -0.9278  0.6503  0.2601
  117OSM   H18G12366   1.175   1.171   8.776 -0.8299 -0.1029  1.7129
  117OSM   H18H12367   1.339   1.153   8.703  0.3353 -1.6380 -1.9951
  118OSM      N12368   0.828   2.225  10.237  0.2448  0.6246  0.9673
  118OSM    C1512369   0.933   2.314  10.182 -0.4579  0.1493  0.0377
  118OSM   H15A12370   0.989   2.261  10.107 -0.8366  1.5562 -1.2664
  118OSM   H15B12371   0.991   2.353  10.265  0.0757  0.5585 -0.5243
  118OSM   H15C12372   0.881   2.400  10.143 -0.3963 -0.8796 -2.4156
  118OSM    C1412373   0.764   2.148  10.122 -0.1443  0.7024  0.2716
  118OSM   H14A12374   0.676   2.097  10.157  0.3260  0.1544  0.6428
  118OSM   H14B12375   0.834   2.076  10.084 -0.7518 -0.1597  0.7605
  118OSM   H14C12376   0.735   2.217  10.044 -0.1850  0.3123 -0.0572
  118OSM    C1312377   0.884   2.126  10.330 -0.4982 -0.1715  0.3680
  118OSM   H13A12378   0.931   2.168  10.418  0.0928  0.2047 -0.1274
  118OSM   H13B12379   0.962   2.064  10.287 -0.6138 -0.1848  0.1751
  118OSM   H13C12380   0.804   2.058  10.353 -1.0229  0.2447 -0.2296
  118OSM    C1212381   0.722   2.312  10.308  0.0236 -0.4710  0.3195
  118OSM   H12A12382   0.674   2.371  10.231  0.4922  0.1192  0.4801
  118OSM   H12B12383   0.772   2.372  10.383 -0.0287  1.2056 -0.9755
  118OSM    C1112384   0.603   2.254  10.381  0.1730 -0.3909 -0.4834
  118OSM   H11A12385   0.552   2.335  10.439 -3.6039 -2.1102 -1.2332
  118OSM   H11B12386   0.636   2.174  10.451 -4.5020 -0.0391  2.3609
  118OSM      P12387   0.358   2.214  10.297 -0.4151 -0.0925 -0.0274
  118OSM    O1312388   0.296   2.152  10.179  0.0201  0.2663 -0.1685
  118OSM    O1412389   0.322   2.170  10.432 -0.5899  0.4270  0.1958
  118OSM    O1112390   0.323   2.367  10.304 -0.8601  0.4071 -0.0401
  118OSM    O1212391   0.513   2.200  10.285  0.0197  0.4748  0.3267
  118OSM    C1S12392   0.389   2.446  10.199  0.0545 -0.5655 -0.5297
  118OSM    H1S12393   0.495   2.415  10.188 -0.3356 -1.8452 -0.7727
  118OSM    H1T12394   0.388   2.552  10.230  0.3427 -0.9592  0.8238
  118OSM     NF12395   0.400   2.526   9.964 -0.4096 -0.5387  0.4692
  118OSM    HNF12396   0.388   2.625   9.961  2.1001 -0.2017  0.5539
  118OSM    C2S12397   0.317   2.447  10.060 -0.3916 -0.2965  0.6440
  118OSM    H2S12398   0.312   2.347  10.014 -0.2765  0.4375 -0.9945
  118OSM    C3S12399   0.175   2.490  10.068  0.2808 -1.1981  0.8374
  118OSM    H3S12400   0.166   2.595  10.103  1.3784 -1.3600  1.6333
  118OSM     O312401   0.102   2.408  10.159  0.0755 -0.2235 -0.1413
  118OSM    HO312402   0.172   2.361  10.206 -0.8279 -1.9469 -0.4894
  118OSM    C4S12403   0.110   2.495   9.932 -0.3375 -0.1207  0.2137
  118OSM    H4S12404   0.152   2.580   9.876  1.2127 -0.8273  0.2728
  118OSM    C5S12405   0.019   2.413   9.873  0.1233  0.1424 -0.7825
  118OSM    H5S12406  -0.007   2.324   9.932 -1.8453  0.7618 -0.6716
  118OSM    C6S12407  -0.051   2.418   9.738  0.0406 -0.1892 -0.5169
  118OSM    H6S12408  -0.159   2.433   9.759  0.4813 -0.1682  1.7943
  118OSM    H6T12409  -0.037   2.317   9.693 -1.4790 -1.1255  1.0774
  118OSM    C7S12410  -0.003   2.539   9.658  0.5624  0.0577  0.7673
  118OSM    H7S12411   0.107   2.545   9.647  0.5601 -1.0987  0.0044
  118OSM    H7T12412  -0.044   2.629   9.709 -2.3290 -1.1091  0.6173
  118OSM    C8S12413  -0.064   2.539   9.513 -0.6079  0.4081 -0.6456
  118OSM    H8S12414  -0.045   2.638   9.466  0.4035 -0.7794 -2.8139
  118OSM    H8T12415  -0.168   2.503   9.530 -0.5957 -0.4076 -2.2424
  118OSM    C9S12416   0.028   2.436   9.430 -0.1404 -0.5545  0.3958
  118OSM    H9S12417   0.025   2.334   9.474  0.1817 -1.3064 -1.2945
  118OSM    H9T12418   0.132   2.472   9.438  0.4193 -2.2061  0.8603
  118OSM   C10S12419  -0.004   2.418   9.279 -0.5242  0.4267  0.7508
  118OSM   H10S12420  -0.026   2.515   9.231  2.2694  1.1938  0.9208
  118OSM   H10T12421  -0.095   2.355   9.288  0.7123 -1.2469  1.8751
  118OSM   C11S12422   0.107   2.360   9.201  0.2959  0.3309  0.5419
  118OSM   H11S12423   0.146   2.262   9.237  0.6331 -0.5597 -2.1212
  118OSM   H11T12424   0.189   2.433   9.214 -0.0569  0.6539  0.9679
  118OSM   C12S12425   0.073   2.339   9.051  0.5693 -0.4297  0.0032
  118OSM   H12S12426   0.032   2.437   9.019 -0.7389 -0.7876  0.5482
  118OSM   H12T12427   0.004   2.253   9.041 -0.3594  0.2622  0.3129
  118OSM   C13S12428   0.200   2.304   8.967 -0.6316 -0.0161  0.3813
  118OSM   H13S12429   0.253   2.213   9.003 -0.6663 -0.3368 -0.3662
  118OSM   H13T12430   0.270   2.388   8.984 -1.4485  0.8267 -0.3331
  118OSM   C14S12431   0.169   2.294   8.814  0.0911  0.3174  0.2015
  118OSM   H14S12432   0.138   2.395   8.778  0.6443 -0.0584 -1.3660
  118OSM   H14T12433   0.079   2.230   8.803  1.2529 -1.3580  0.3476
  118OSM   C15S12434   0.293   2.243   8.735 -0.9585  0.1824  0.4642
  118OSM   H15S12435   0.297   2.132   8.741 -1.6610  0.2214  1.9875
  118OSM   H15T12436   0.390   2.273   8.780 -1.4113 -1.5657  2.7221
  118OSM   C16S12437   0.297   2.290   8.592  0.8402  0.2317 -0.3707
  118OSM   H16S12438   0.397   2.278   8.543  0.7880 -2.8246  0.2057
  118OSM   H16T12439   0.273   2.398   8.584 -1.2741 -0.1358  0.7818
  118OSM   C17S12440   0.199   2.207   8.500 -0.4022  0.1029  0.1095
  118OSM   H17S12441   0.092   2.218   8.529  0.1529  3.5577  1.0730
  118OSM   H17T12442   0.225   2.102   8.526 -1.6141  0.4833  2.9691
  118OSM   C18S12443   0.212   2.231   8.351 -0.2088  0.3729 -0.0555
  118OSM   H18S12444   0.316   2.219   8.313 -0.7185 -1.2844 -0.9820
  118OSM   H18T12445   0.173   2.331   8.324  3.3913  1.4944 -1.4073
  118OSM   H18U12446   0.152   2.161   8.289  0.3129  0.9338 -1.2274
  118OSM    C1F12447   0.508   2.471   9.915  0.5257  0.3126 -0.7795
  118OSM     OF12448   0.523   2.350   9.933 -0.2309  0.8036  0.2580
  118OSM    C2F12449   0.619   2.565   9.865  0.2056  0.2963 -0.2837
  118OSM    H2F12450   0.602   2.667   9.907 -2.6700  0.2804 -1.2880
  118OSM    H2G12451   0.622   2.583   9.756  1.4412  0.4733 -0.2172
  118OSM    C3F12452   0.759   2.512   9.905 -0.0300 -0.7585  0.0526
  118OSM    H3F12453   0.760   2.497  10.016 -0.5891  4.5508  0.8895
  118OSM    H3G12454   0.822   2.600   9.883  1.3241 -1.9310 -0.8127
  118OSM    C4F12455   0.816   2.388   9.835  0.0367 -0.3127 -0.2658
  118OSM    H4F12456   0.749   2.303   9.862  0.4996 -0.7299 -0.4120
  118OSM    H4G12457   0.911   2.359   9.884 -0.0441  1.0911  0.7622
  118OSM    C5F12458   0.827   2.413   9.684  0.2754 -0.3790  0.2260
  118OSM    H5F12459   0.869   2.516   9.678  0.9906 -0.7397 -1.0700
  118OSM    H5G12460   0.732   2.427   9.627  0.0553  0.4582  0.7791
  118OSM    C6F12461   0.904   2.308   9.607 -0.4103 -0.1634 -0.3751
  118OSM    H6F12462   1.007   2.304   9.649 -1.1390  0.6766  1.5534
  118OSM    H6G12463   0.912   2.340   9.501 -0.9654  1.2355 -0.0064
  118OSM    C7F12464   0.851   2.162   9.611  0.3330 -0.5170 -0.7306
  118OSM    H7F12465   0.747   2.149   9.576 -0.0922 -0.0576  0.3456
  118OSM    H7G12466   0.858   2.115   9.712  2.0052 -0.8030 -0.9667
  118OSM    C8F12467   0.941   2.075   9.517 -0.3316  0.0760  0.7050
  118OSM    H8F12468   1.046   2.084   9.552 -0.1603  0.3774  0.1125
  118OSM    H8G12469   0.941   2.106   9.410  1.5965 -0.2324  0.5992
  118OSM    C9F12470   0.897   1.934   9.534  0.0189  0.6089  1.0637
  118OSM    H9F12471   0.907   1.885   9.632 -0.3299 -2.0713 -0.2034
  118OSM   C10F12472   0.842   1.861   9.433  0.3428  0.0574  0.5372
  118OSM   H10F12473   0.799   1.763   9.459 -1.1193  0.1109 -1.5471
  118OSM   C11F12474   0.814   1.902   9.291  0.2802 -0.0253 -0.4558
  118OSM   H11F12475   0.890   1.849   9.229  2.1251  2.6807 -0.5882
  118OSM   H11G12476   0.812   2.008   9.259  0.3808 -0.2996 -1.3939
  118OSM   C12F12477   0.670   1.848   9.226 -0.0923  0.2581 -0.3531
  118OSM   H12F12478   0.675   1.738   9.214  1.1168  0.4095 -1.2720
  118OSM   H12G12479   0.669   1.884   9.121 -0.4126 -0.3198 -0.5476
  118OSM   C13F12480   0.544   1.911   9.290 -0.1976  0.6173 -0.4523
  118OSM   H13F12481   0.554   2.022   9.290 -1.0392  0.6977 -1.2207
  118OSM   H13G12482   0.526   1.883   9.396  0.7740  1.3460 -0.0746
  118OSM   C14F12483   0.422   1.860   9.217 -0.8496 -0.0404 -0.1274
  118OSM   H14F12484   0.420   1.749   9.209 -0.3449 -0.0533 -0.0389
  118OSM   H14G12485   0.436   1.891   9.111  0.8331 -2.2959 -0.5940
  118OSM   C15F12486   0.294   1.905   9.293 -0.2619  0.0610 -0.0636
  118OSM   H15F12487   0.306   2.016   9.301  1.3974 -0.1462  0.5859
  118OSM   H15G12488   0.308   1.861   9.394  4.0929  0.7047 -0.2752
  118OSM   C16F12489   0.162   1.876   9.222  0.0807 -0.0775  0.1951
  118OSM   H16F12490   0.176   1.777   9.175  0.7719 -0.9291  2.1591
  118OSM   H16G12491   0.145   1.947   9.137  0.5126  1.9041  1.7227
  118OSM   C17F12492   0.046   1.882   9.326 -0.0167  0.5555  0.9065
  118OSM   H17F12493   0.058   1.980   9.376  3.6406  0.6898 -0.1292
  118OSM   H17G12494   0.066   1.801   9.399  0.7276  0.5326  0.6788
  118OSM   C18F12495  -0.096   1.853   9.275 -0.2258  0.4557  0.4027
  118OSM   H18F12496  -0.174   1.861   9.353 -1.0054  2.9982 -0.5768
  118OSM   H18G12497  -0.088   1.754   9.226  1.9988  0.9326 -0.2812
  118OSM   H18H12498  -0.118   1.934   9.202 -0.0483 -0.1182 -0.2878
  119OSM      N12499   1.567   0.406   9.865  0.1590 -0.1610 -0.6224
  119OSM    C1512500   1.596   0.545   9.913  0.1118 -0.6539 -0.4699
  119OSM   H15A12501   1.600   0.601   9.820 -0.0796  2.8444  1.5549
  119OSM   H15B12502   1.694   0.544   9.957  0.5142  1.4148 -1.2232
  119OSM   H15C12503   1.525   0.585   9.984  0.3865  1.5576 -1.3871
  119OSM    C1412504   1.435   0.406   9.808 -0.4481 -0.1548 -0.3944
  119OSM   H14A12505   1.432   0.453   9.711 -0.4402  0.3919 -0.1278
  119OSM   H14B12506   1.366   0.443   9.882 -1.9749 -2.6279 -0.4960
  119OSM   H14C12507   1.403   0.307   9.779 -0.2396 -0.3551  0.0603
  119OSM    C1312508   1.670   0.363   9.763 -0.2623  0.3110  0.3266
  119OSM   H13A12509   1.674   0.426   9.675 -1.2504 -0.1898 -0.0875
  119OSM   H13B12510   1.648   0.265   9.723 -0.8509  0.2592  0.7854
  119OSM   H13C12511   1.765   0.355   9.814 -1.3650 -2.5220  2.0439
  119OSM    C1212512   1.573   0.317   9.987  0.9697 -0.5390  0.5944
  119OSM   H12A12513   1.572   0.217   9.944 -0.0042  0.6720 -2.3511
  119OSM   H12B12514   1.486   0.328  10.049 -1.1071  0.8947 -2.4739
  119OSM    C1112515   1.701   0.320  10.079  0.3422  0.4620  0.4834
  119OSM   H11A12516   1.679   0.244  10.158  1.9493 -0.0051  0.4933
  119OSM   H11B12517   1.721   0.418  10.126  1.6925  0.2334  0.4029
  119OSM      P12518   1.847   0.129   9.973  0.0015 -0.7784  0.3021
  119OSM    O1312519   1.900   0.067  10.096  0.1434 -0.3321  0.1522
  119OSM    O1412520   1.728   0.069   9.916 -0.1151 -0.5249 -0.2891
  119OSM    O1112521   1.958   0.126   9.860  0.0661 -0.2804 -0.7826
  119OSM    O1212522   1.815   0.278  10.000  0.1391  0.0345 -0.2466
  119OSM    C1S12523   2.095   0.155   9.883  0.4067 -0.8194 -0.1276
  119OSM    H1S12524   2.142   0.068   9.934  2.4150  0.7250  0.6995
  119OSM    H1T12525   2.097   0.246   9.945 -3.0287 -1.5515  1.1873
  119OSM     NF12526   2.314   0.205   9.766 -0.1048  0.0343  0.0757
  119OSM    HNF12527   2.349   0.299   9.769 -0.2487  0.0797  0.2931
  119OSM    C2S12528   2.169   0.200   9.749  0.5801 -0.2283 -0.0053
  119OSM    H2S12529   2.147   0.120   9.676  2.0563  0.1422 -0.8905
  119OSM    C3S12530   2.115   0.334   9.683 -0.4536  0.0558  0.5439
  119OSM    H3S12531   2.152   0.416   9.748  1.0472 -1.0093  1.0436
  119OSM     O312532   1.975   0.331   9.670 -0.8317  0.9194 -0.4661
  119OSM    HO312533   1.956   0.261   9.733 -2.2674  1.2749 -0.4823
  119OSM    C4S12534   2.173   0.368   9.546 -0.5641  0.3105  0.4662
  119OSM    H4S12535   2.153   0.290   9.471  1.4879  0.6476 -0.4650
  119OSM    C5S12536   2.261   0.466   9.515  0.1814 -0.4567  0.1268
  119OSM    H5S12537   2.295   0.540   9.589 -1.6856  0.0529  0.5073
  119OSM    C6S12538   2.319   0.501   9.381 -0.1583  0.5297 -0.6492
  119OSM    H6S12539   2.421   0.544   9.391 -0.4794  2.0354 -3.3089
  119OSM    H6T12540   2.254   0.581   9.339  1.1099  1.2270 -1.2878
  119OSM    C7S12541   2.348   0.381   9.277 -0.0266  0.7057 -0.7109
  119OSM    H7S12542   2.255   0.321   9.275  0.7718 -0.6212  0.6093
  119OSM    H7T12543   2.420   0.313   9.327 -0.1954  0.8688 -0.2419
  119OSM    C8S12544   2.385   0.437   9.140  0.2614 -0.2198  0.3075
  119OSM    H8S12545   2.492   0.467   9.137  0.7185 -1.9341 -2.3342
  119OSM    H8T12546   2.311   0.518   9.126 -0.3852 -1.0742 -1.3336
  119OSM    C9S12547   2.343   0.343   9.023 -1.1354  0.0186  0.2387
  119OSM    H9S12548   2.235   0.318   9.035 -1.1298 -0.8907 -1.4257
  119OSM    H9T12549   2.411   0.257   9.042  0.3022  1.2586  0.7793
  119OSM   C10S12550   2.368   0.406   8.886 -0.2105 -0.2463  0.5894
  119OSM   H10S12551   2.476   0.432   8.883 -0.9270  2.9536  0.7071
  119OSM   H10T12552   2.309   0.500   8.881  0.5845  0.3213  1.6030
  119OSM   C11S12553   2.331   0.324   8.758  0.1573  0.3558 -0.0278
  119OSM   H11S12554   2.251   0.251   8.780  1.6488 -0.7252  1.9717
  119OSM   H11T12555   2.413   0.254   8.733  0.7910  0.5953  1.3130
  119OSM   C12S12556   2.273   0.397   8.633 -0.8706  0.1096  0.1302
  119OSM   H12S12557   2.357   0.459   8.595 -1.4814  0.8396 -0.0220
  119OSM   H12T12558   2.186   0.457   8.665  0.0969  2.2306 -1.1069
  119OSM   C13S12559   2.215   0.302   8.520 -0.1613  0.3680  0.0574
  119OSM   H13S12560   2.128   0.252   8.567  0.4141 -1.8443 -1.1192
  119OSM   H13T12561   2.293   0.225   8.498  0.0306  0.5432  0.1264
  119OSM   C14S12562   2.170   0.382   8.388 -0.1502  0.4064  0.2433
  119OSM   H14S12563   2.245   0.459   8.362 -1.0425  0.4590 -2.2855
  119OSM   H14T12564   2.075   0.428   8.424 -0.2770  0.4931 -0.2020
  119OSM   C15S12565   2.130   0.284   8.270  0.6052 -0.5474  0.2684
  119OSM   H15S12566   2.036   0.226   8.278 -0.7910  1.2579 -2.4277
  119OSM   H15T12567   2.209   0.206   8.279  0.9561 -0.5948 -2.8689
  119OSM   C16S12568   2.116   0.361   8.142 -0.1798  0.5983  0.4308
  119OSM   H16S12569   2.197   0.433   8.119  0.3254  0.4016  1.5753
  119OSM   H16T12570   2.028   0.428   8.144  0.0728  0.9920 -1.0156
  119OSM   C17S12571   2.125   0.259   8.027  0.0071 -0.0085 -0.4360
  119OSM   H17S12572   2.210   0.195   8.059  1.1656  0.7615 -1.9238
  119OSM   H17T12573   2.136   0.315   7.932 -3.5594 -0.6672 -1.3150
  119OSM   C18S12574   1.995   0.173   8.015 -0.8325 -0.2831  0.5340
  119OSM   H18S12575   1.993   0.107   7.926  2.6591 -1.9592  1.6117
  119OSM   H18T12576   1.910   0.244   8.013 -0.6867 -0.1235 -4.5346
  119OSM   H18U12577   1.994   0.119   8.113 -1.3973 -1.4469 -0.1028
  119OSM    C1F12578   2.392   0.103   9.787  0.4388 -1.1186  0.2230
  119OSM     OF12579   2.341  -0.009   9.791  0.3483 -0.0922  0.5259
  119OSM    C2F12580   2.543   0.127   9.805 -0.1430  0.0286  0.6981
  119OSM    H2F12581   2.582   0.095   9.904  0.4074  0.7303  0.7080
  119OSM    H2G12582   2.569   0.234   9.794 -1.6706  0.4275  0.8201
  119OSM    C3F12583   2.618   0.037   9.708 -0.5807  0.0334 -0.5799
  119OSM    H3F12584   2.604   0.055   9.600 -4.1732  1.5458  0.0710
  119OSM    H3G12585   2.588  -0.066   9.735 -0.4149  0.1872  0.2370
  119OSM    C4F12586   2.773   0.046   9.719 -0.9277 -0.4100  0.1992
  119OSM    H4F12587   2.805  -0.005   9.812 -1.4383 -0.4884  0.3346
  119OSM    H4G12588   2.813   0.150   9.721 -1.5629 -0.1757  3.4019
  119OSM    C5F12589   2.849  -0.005   9.594  0.0473 -0.0119  0.3951
  119OSM    H5F12590   2.957  -0.019   9.617  0.3284 -1.7874 -1.8318
  119OSM    H5G12591   2.842   0.065   9.508  3.2874 -1.8602 -1.5195
  119OSM    C6F12592   2.805  -0.152   9.562 -0.4604  0.2920 -0.0681
  119OSM    H6F12593   2.695  -0.148   9.545 -1.0414 -0.2362  3.2686
  119OSM    H6G12594   2.828  -0.214   9.651 -1.2398  0.1308  0.0208
  119OSM    C7F12595   2.886  -0.213   9.445  0.6995  0.5580  0.2143
  119OSM    H7F12596   2.995  -0.196   9.458  0.9364 -0.5490 -0.2390
  119OSM    H7G12597   2.847  -0.171   9.349  1.1711 -1.0538 -0.7073
  119OSM    C8F12598   2.870  -0.370   9.439  0.2752  0.1999  0.0174
  119OSM    H8F12599   2.927  -0.409   9.527 -0.1779  1.0316  0.6889
  119OSM    H8G12600   2.934  -0.394   9.351  1.7824 -0.2732  1.2116
  119OSM    C9F12601   2.728  -0.424   9.433  0.0918 -0.1049 -0.6868
  119OSM    H9F12602   2.676  -0.403   9.527  1.9815  0.4695  0.2561
  119OSM   C10F12603   2.672  -0.486   9.327  0.6579  0.2961 -0.9147
  119OSM   H10F12604   2.569  -0.525   9.330 -0.3881  3.0066  1.9227
  119OSM   C11F12605   2.749  -0.516   9.200 -0.2429  0.6906 -0.7575
  119OSM   H11F12606   2.739  -0.624   9.174 -1.0676  0.4163  0.6449
  119OSM   H11G12607   2.858  -0.493   9.205  0.1431 -1.4570  1.7316
  119OSM   C12F12608   2.681  -0.448   9.079  0.8095 -0.2591  0.4105
  119OSM   H12F12609   2.630  -0.351   9.098 -1.4333 -0.9583 -1.7399
  119OSM   H12G12610   2.596  -0.512   9.046  1.2999 -0.8694  0.3263
  119OSM   C13F12611   2.774  -0.447   8.961  0.8417 -0.8617  0.8151
  119OSM   H13F12612   2.811  -0.551   8.956 -0.2641 -1.4196  3.5394
  119OSM   H13G12613   2.852  -0.369   8.978 -0.6779  0.8252  0.2948
  119OSM   C14F12614   2.700  -0.408   8.823  0.2645  0.2724  0.5454
  119OSM   H14F12615   2.687  -0.299   8.843  1.6794  0.2856  1.5317
  119OSM   H14G12616   2.604  -0.463   8.817 -0.3836  1.3166  1.1577
  119OSM   C15F12617   2.790  -0.424   8.699 -0.4484 -0.2093  1.3878
  119OSM   H15F12618   2.824  -0.530   8.694  0.4256  0.1075  0.5813
  119OSM   H15G12619   2.880  -0.361   8.714 -1.3265  1.7128 -1.1995
  119OSM   C16F12620   2.727  -0.373   8.569  0.0646 -0.3054  0.2296
  119OSM   H16F12621   2.810  -0.356   8.498 -1.4124  0.3984 -1.3591
  119OSM   H16G12622   2.680  -0.275   8.587  1.4523  0.5877 -0.9128
  119OSM   C17F12623   2.622  -0.469   8.512  0.1968  0.5606  0.2334
  119OSM   H17F12624   2.544  -0.483   8.589  1.2112 -0.0726  1.1681
  119OSM   H17G12625   2.669  -0.564   8.477 -0.9456  0.6526 -1.6494
  119OSM   C18F12626   2.544  -0.409   8.393 -0.0824 -0.3299 -0.1098
  119OSM   H18F12627   2.488  -0.320   8.428  3.5441  1.5787  1.2097
  119OSM   H18G12628   2.468  -0.480   8.354 -2.4166  2.7585 -1.4326
  119OSM   H18H12629   2.611  -0.380   8.309 -1.5015  2.5745 -0.3086
  120OSM      N12630   0.984   5.661  10.327  0.3243 -0.1180  0.4808
  120OSM    C1512631   0.866   5.580  10.298 -0.2043  0.3408  0.5742
  120OSM   H15A12632   0.876   5.481  10.341 -1.0279 -1.7181 -3.7010
  120OSM   H15B12633   0.867   5.555  10.193  0.3340 -0.0573  0.6673
  120OSM   H15C12634   0.775   5.633  10.320 -0.6894 -0.5419  0.7025
  120OSM    C1412635   1.012   5.640  10.471 -0.1399 -0.3713  0.9865
  120OSM   H14A12636   1.102   5.693  10.502  0.1824 -1.2994  1.6453
  120OSM   H14B12637   1.029   5.535  10.490  0.5414 -0.3730  0.3854
  120OSM   H14C12638   0.936   5.673  10.540  1.4986 -2.3132  3.8313
  120OSM    C1312639   1.100   5.602  10.247  0.3661  0.4430  0.5675
  120OSM   H13A12640   1.121   5.499  10.271  1.4320  0.6908  0.6988
  120OSM   H13B12641   1.192   5.653  10.269  1.6046 -0.7272 -1.7144
  120OSM   H13C12642   1.076   5.618  10.143  1.4870  2.3905  0.5846
  120OSM    C1212643   0.965   5.812  10.301 -0.2331  0.7613 -0.4256
  120OSM   H12A12644   1.053   5.869  10.325 -1.3176  1.8926  1.0265
  120OSM   H12B12645   0.887   5.849  10.366 -0.1769  1.5736 -0.8073
  120OSM    C1112646   0.939   5.848  10.154 -0.7893  0.3812  0.0744
  120OSM   H11A12647   0.845   5.801  10.120 -0.5164 -1.1718  1.4410
  120OSM   H11B12648   1.012   5.808  10.080 -2.0087 -3.4450  0.8717
  120OSM      P12649   0.813   6.080  10.154 -0.0146 -0.3549 -0.0216
  120OSM    O1312650   0.710   6.013  10.233 -0.1957 -0.0026  0.1411
  120OSM    O1412651   0.855   6.218  10.191  0.7819 -0.1040 -0.5715
  120OSM    O1112652   0.766   6.087  10.004  0.0755  0.2859  0.1572
  120OSM    O1212653   0.940   5.987  10.146  0.0160  0.3773 -0.1970
  120OSM    C1S12654   0.845   6.101   9.891  0.1652 -0.4878  0.0510
  120OSM    H1S12655   0.904   6.010   9.865  1.1307  0.3402 -0.6834
  120OSM    H1T12656   0.915   6.184   9.913 -2.2509  1.3039  1.2037
  120OSM     NF12657   0.863   6.111   9.641 -0.3806 -0.2866  0.0376
  120OSM    HNF12658   0.898   6.197   9.604  1.4571  0.6414  3.7266
  120OSM    C2S12659   0.771   6.121   9.760 -0.3723  0.0262 -0.0813
  120OSM    H2S12660   0.696   6.039   9.760 -0.6788  0.3088  0.7367
  120OSM    C3S12661   0.697   6.259   9.765  0.1132 -0.4830 -0.1226
  120OSM    H3S12662   0.776   6.336   9.751  0.3869 -1.2266 -3.1471
  120OSM     O312663   0.624   6.290   9.888  0.0217  0.0969  0.6167
  120OSM    HO312664   0.654   6.216   9.941  1.0368 -1.1480 -1.6344
  120OSM    C4S12665   0.605   6.273   9.649  0.5882  0.5538 -0.0799
  120OSM    H4S12666   0.527   6.195   9.652 -0.6245  1.6791 -1.6861
  120OSM    C5S12667   0.613   6.360   9.550  0.7100 -0.0884  0.0971
  120OSM    H5S12668   0.703   6.422   9.531 -0.1646  1.3022  0.4073
  120OSM    C6S12669   0.520   6.378   9.431 -0.0279  0.3479 -0.3477
  120OSM    H6S12670   0.576   6.393   9.336 -1.1463  1.0631 -0.8957
  120OSM    H6T12671   0.459   6.470   9.440 -0.8904 -0.3554  1.0975
  120OSM    C7S12672   0.432   6.254   9.390  0.0601  0.0330  0.1998
  120OSM    H7S12673   0.386   6.216   9.483 -3.2455 -0.6797 -1.6207
  120OSM    H7T12674   0.500   6.180   9.344  0.5303  0.4036  0.2942
  120OSM    C8S12675   0.317   6.288   9.295  0.2784 -0.0758  0.0638
  120OSM    H8S12676   0.245   6.362   9.334  0.9638  0.8405 -0.3919
  120OSM    H8T12677   0.270   6.191   9.266 -0.8745  0.2089  0.9121
  120OSM    C9S12678   0.371   6.347   9.152 -0.8092  0.0195 -0.1489
  120OSM    H9S12679   0.448   6.277   9.113  0.1101 -0.7649  2.8608
  120OSM    H9T12680   0.428   6.441   9.165 -1.5576  0.4962 -0.2447
  120OSM   C10S12681   0.255   6.349   9.056  0.6604 -0.2452 -0.0081
  120OSM   H10S12682   0.194   6.438   9.083 -0.3287 -1.3546  1.5049
  120OSM   H10T12683   0.197   6.258   9.084 -0.7868  1.1648  1.7306
  120OSM   C11S12684   0.288   6.361   8.909 -0.5698 -0.1764 -0.2257
  120OSM   H11S12685   0.329   6.263   8.877 -2.6148 -1.5563  1.3150
  120OSM   H11T12686   0.366   6.438   8.893  0.2832 -1.2242 -1.1717
  120OSM   C12S12687   0.170   6.398   8.821  0.4430  0.1156  0.2091
  120OSM   H12S12688   0.116   6.490   8.855  2.6707  1.1967  0.8912
  120OSM   H12T12689   0.092   6.319   8.824 -0.4243  0.9277 -0.5079
  120OSM   C13S12690   0.204   6.419   8.675  0.2208 -0.1634  0.5317
  120OSM   H13S12691   0.113   6.445   8.617  1.5141 -1.1370 -1.9846
  120OSM   H13T12692   0.238   6.321   8.637  1.1627 -0.0625  1.0975
  120OSM   C14S12693   0.317   6.516   8.652  0.1554  0.0374 -0.1672
  120OSM   H14S12694   0.418   6.471   8.661  1.0710  2.1801  0.5867
  120OSM   H14T12695   0.324   6.597   8.729  2.5492  1.9636 -2.3140
  120OSM   C15S12696   0.299   6.587   8.511  0.0661 -0.0390 -0.2278
  120OSM   H15S12697   0.199   6.634   8.499  0.1057 -0.2533 -1.3871
  120OSM   H15T12698   0.298   6.502   8.440 -0.0927  0.0552 -0.3380
  120OSM   C16S12699   0.419   6.683   8.466 -0.0599  0.6324  0.2827
  120OSM   H16S12700   0.433   6.756   8.549  3.0121 -0.2079  0.5866
  120OSM   H16T12701   0.383   6.741   8.379  0.8375  0.4424 -0.2281
  120OSM   C17S12702   0.558   6.614   8.456  0.5448  0.0101  0.5400
  120OSM   H17S12703   0.556   6.553   8.363  1.8432  2.0599 -0.8546
  120OSM   H17T12704   0.573   6.545   8.542 -3.4176  0.5123  1.7605
  120OSM   C18S12705   0.670   6.718   8.456 -0.3769  0.3249  0.3711
  120OSM   H18S12706   0.672   6.777   8.362  0.9854  0.3613  0.4089
  120OSM   H18T12707   0.769   6.668   8.462 -0.2404  0.5514  0.0287
  120OSM   H18U12708   0.651   6.788   8.541  0.4057 -0.1702  0.9606
  120OSM    C1F12709   0.910   5.996   9.603 -0.4248 -0.4191 -0.2360
  120OSM     OF12710   0.878   5.887   9.660  0.2306  0.0355 -0.4680
  120OSM    C2F12711   1.026   5.999   9.500  0.4963 -0.4714 -0.0328
  120OSM    H2F12712   1.091   5.914   9.528 -1.7031 -1.5586  2.0117
  120OSM    H2G12713   1.086   6.092   9.500  0.6427 -0.5447 -1.7240
  120OSM    C3F12714   0.971   5.957   9.362  0.5238 -1.1953 -0.2972
  120OSM    H3F12715   0.883   5.890   9.361  0.0870 -0.8230  3.8816
  120OSM    H3G12716   1.052   5.910   9.302  1.4030  0.2580 -0.2638
  120OSM    C4F12717   0.921   6.078   9.277 -1.4715  0.8695  0.4608
  120OSM    H4F12718   0.967   6.176   9.303 -2.5961  1.5668 -0.1354
  120OSM    H4G12719   0.812   6.088   9.298 -1.4806 -0.2346  0.9619
  120OSM    C5F12720   0.948   6.041   9.137 -0.0463 -0.6046 -0.6301
  120OSM    H5F12721   0.914   5.938   9.114  3.3779 -1.6185 -1.5235
  120OSM    H5G12722   1.059   6.039   9.129 -0.0154  0.8801 -0.6981
  120OSM    C6F12723   0.897   6.144   9.035  0.5469  0.2110  0.0124
  120OSM    H6F12724   0.939   6.243   9.064  2.4287  0.1929 -2.4927
  120OSM    H6G12725   0.787   6.150   9.043  0.3975  0.3883 -2.0361
  120OSM    C7F12726   0.930   6.101   8.889  0.2656 -0.9927 -0.5462
  120OSM    H7F12727   0.856   6.148   8.820 -0.2360 -2.6235 -1.1248
  120OSM    H7G12728   0.905   5.994   8.878 -2.2626 -0.3551 -1.4930
  120OSM    C8F12729   1.062   6.135   8.839 -0.5640  0.1426  0.4262
  120OSM    H8F12730   1.087   6.066   8.756 -1.8951  0.7052 -0.4626
  120OSM    H8G12731   1.142   6.108   8.911  0.6256 -1.0780 -1.3158
  120OSM    C9F12732   1.083   6.280   8.821  0.1463 -0.1267 -0.2330
  120OSM    H9F12733   1.056   6.346   8.904 -3.2074 -0.7921 -0.7258
  120OSM   C10F12734   1.114   6.334   8.700 -0.4490  0.0209 -0.2793
  120OSM   H10F12735   1.120   6.444   8.699 -0.8342  0.0433 -0.2719
  120OSM   C11F12736   1.140   6.269   8.565  0.6466  0.0916 -0.0666
  120OSM   H11F12737   1.097   6.166   8.565 -0.2839  0.4646 -1.1473
  120OSM   H11G12738   1.247   6.264   8.536  0.4882 -1.2665 -0.4563
  120OSM   C12F12739   1.061   6.346   8.458  0.1309  0.4003 -0.0676
  120OSM   H12F12740   1.127   6.341   8.369  1.0597  2.0888  0.4924
  120OSM   H12G12741   1.046   6.453   8.482 -2.1698  0.1132 -0.0878
  120OSM   C13F12742   0.932   6.283   8.432  0.1468  0.0995 -0.6211
  120OSM   H13F12743   0.896   6.272   8.537  1.9140 -0.9309 -0.0979
  120OSM   H13G12744   0.950   6.175   8.411  1.1341  0.0486  0.4289
  120OSM   C14F12745   0.833   6.359   8.334 -0.2959  0.0368  0.4938
  120OSM   H14F12746   0.897   6.402   8.254  1.0967  0.3979  1.7771
  120OSM   H14G12747   0.791   6.443   8.393 -1.5029 -1.1049  1.2898
  120OSM   C15F12748   0.707   6.276   8.291 -0.2678  0.2828 -0.9807
  120OSM   H15F12749   0.740   6.201   8.215 -1.2951 -1.3458  0.1659
  120OSM   H15G12750   0.643   6.349   8.236 -1.5202  0.5488  0.8099
  120OSM   C16F12751   0.625   6.208   8.399  0.3133  0.8005 -0.0193
  120OSM   H16F12752   0.602   6.272   8.487 -1.2485  0.6683 -0.3303
  120OSM   H16G12753   0.692   6.127   8.436 -1.6059 -0.6019  0.4232
  120OSM   C17F12754   0.499   6.152   8.343  0.1365  0.0913 -0.5099
  120OSM   H17F12755   0.531   6.069   8.276 -0.8401  0.5223 -1.5251
  120OSM   H17G12756   0.452   6.227   8.275 -0.9126 -0.5335 -0.4993
  120OSM   C18F12757   0.397   6.096   8.440 -0.3980  0.0525  0.3271
  120OSM   H18F12758   0.440   6.032   8.520 -1.0218 -1.1895 -0.3102
  120OSM   H18G12759   0.313   6.049   8.384 -0.0152 -2.0821  1.4965
  120OSM   H18H12760   0.355   6.181   8.498  0.0079 -0.2173  1.0251
  121OSM      N12761   7.287   2.029  10.230  0.4949  1.4692 -0.2867
  121OSM    C1512762   7.295   2.109  10.104  0.0025 -0.6244 -0.0408
  121OSM   H15A12763   7.334   2.055  10.020  2.1408  0.5943  0.1132
  121OSM   H15B12764   7.368   2.187  10.124 -1.1467  0.7038 -0.8863
  121OSM   H15C12765   7.199   2.157  10.089 -0.0207 -0.4438  0.6781
  121OSM    C1412766   7.296   2.109  10.353  0.2445  0.7850 -0.0194
  121OSM   H14A12767   7.298   2.057  10.447  2.6655 -0.6402 -0.8216
  121OSM   H14B12768   7.212   2.177  10.346 -0.2851  0.0783 -0.5668
  121OSM   H14C12769   7.383   2.173  10.356 -1.0619  2.6145  0.2351
  121OSM    C1312770   7.160   1.949  10.243  0.1405 -0.2934  0.1216
  121OSM   H13A12771   7.169   1.883  10.158  1.6312  0.0340  0.0073
  121OSM   H13B12772   7.067   2.002  10.249 -0.2811 -0.7500 -1.9014
  121OSM   H13C12773   7.176   1.886  10.329 -2.3335 -0.4895  0.4634
  121OSM    C1212774   7.398   1.931  10.225  0.0312 -0.4976 -0.1994
  121OSM   H12A12775   7.396   1.879  10.319  0.6513 -0.7359 -0.3124
  121OSM   H12B12776   7.496   1.978  10.226 -0.4857  0.6134 -0.2940
  121OSM    C1112777   7.405   1.821  10.118 -0.0206  0.2294 -0.3800
  121OSM   H11A12778   7.509   1.782  10.128 -0.1349  0.1463  0.4921
  121OSM   H11B12779   7.395   1.869  10.018 -1.1163 -1.1330 -0.9467
  121OSM      P12780   7.282   1.612  10.022  0.1099 -0.2291 -0.0351
  121OSM    O1312781   7.382   1.512  10.041 -0.3385  0.0282 -0.6624
  121OSM    O1412782   7.141   1.564  10.026 -0.2352 -0.1271 -0.0555
  121OSM    O1112783   7.314   1.675   9.880 -1.0628  0.1597  0.0219
  121OSM    O1212784   7.304   1.725  10.130  0.1358  0.0890  0.2353
  121OSM    C1S12785   7.234   1.651   9.768  0.5990 -0.0807 -0.6977
  121OSM    H1S12786   7.186   1.552   9.778  0.4432  0.2412  2.0821
  121OSM    H1T12787   7.290   1.648   9.671 -0.4735 -0.6465 -1.3090
  121OSM     NF12788   7.041   1.710   9.633 -1.1522  0.1578 -0.2594
  121OSM    HNF12789   7.052   1.774   9.558  0.8425  0.8031  0.5416
  121OSM    C2S12790   7.120   1.754   9.749 -0.1172 -0.7823 -0.3661
  121OSM    H2S12791   7.047   1.763   9.833  0.9498  3.2736  0.2280
  121OSM    C3S12792   7.166   1.902   9.728 -0.0503 -0.3322 -0.1678
  121OSM    H3S12793   7.223   1.909   9.632  2.0412 -1.7186  0.9208
  121OSM     O312794   7.269   1.938   9.817 -0.0540 -0.1831 -0.4164
  121OSM    HO312795   7.287   1.860   9.869 -1.2443 -0.3237 -0.2084
  121OSM    C4S12796   7.064   1.999   9.729  0.1950 -0.7958  0.8868
  121OSM    H4S12797   6.977   1.992   9.795  0.2361  2.1814  1.3200
  121OSM    C5S12798   7.054   2.102   9.637  0.8093  0.0823 -0.7793
  121OSM    H5S12799   7.122   2.120   9.553 -1.1495  1.1115 -2.2030
  121OSM    C6S12800   6.940   2.210   9.644  0.0982  0.0278  0.4464
  121OSM    H6S12801   6.979   2.314   9.638 -2.9045  1.1814  0.3159
  121OSM    H6T12802   6.891   2.201   9.743  1.4467 -0.8436  1.0493
  121OSM    C7S12803   6.823   2.193   9.542  0.0990 -0.9254 -0.4624
  121OSM    H7S12804   6.871   2.205   9.443 -2.2530 -1.7780 -1.7122
  121OSM    H7T12805   6.740   2.264   9.560  0.6419 -0.9931  2.6203
  121OSM    C8S12806   6.771   2.048   9.551 -1.1389  0.4966 -0.0497
  121OSM    H8S12807   6.736   2.031   9.655  1.6297  0.1451  0.8776
  121OSM    H8T12808   6.852   1.974   9.535  0.8334  1.7736  3.2611
  121OSM    C9S12809   6.656   2.022   9.456  0.0519 -0.0881 -0.3052
  121OSM    H9S12810   6.577   2.096   9.481 -0.1927 -0.8692  1.3402
  121OSM    H9T12811   6.617   1.919   9.471  0.5331 -0.3436 -0.7759
  121OSM   C10S12812   6.682   2.031   9.307  0.2544  0.3049 -0.7871
  121OSM   H10S12813   6.724   2.133   9.294 -0.9625  1.0221  0.8560
  121OSM   H10T12814   6.580   2.036   9.262 -0.1204 -0.0139  0.0280
  121OSM   C11S12815   6.757   1.914   9.248 -0.6906  0.4763 -0.3550
  121OSM   H11S12816   6.695   1.822   9.253  0.4125 -0.1593  1.9021
  121OSM   H11T12817   6.856   1.898   9.295 -1.3805 -2.2067  0.2854
  121OSM   C12S12818   6.790   1.941   9.099 -0.5562  0.8598 -0.2161
  121OSM   H12S12819   6.869   1.870   9.067 -1.2541  0.7950 -1.8691
  121OSM   H12T12820   6.825   2.046   9.083 -1.4828  1.7102  3.0504
  121OSM   C13S12821   6.667   1.933   9.004 -0.1416  0.1703  0.4536
  121OSM   H13S12822   6.588   2.003   9.039 -2.0466 -0.5663 -2.1860
  121OSM   H13T12823   6.621   1.831   9.007  0.7957 -0.2762  0.0054
  121OSM   C14S12824   6.723   1.965   8.864 -0.5074  0.3077  0.0045
  121OSM   H14S12825   6.807   1.895   8.844  0.3791  1.7673 -1.5553
  121OSM   H14T12826   6.756   2.072   8.864 -0.6817  0.3702  1.4638
  121OSM   C15S12827   6.634   1.949   8.741 -0.3501 -0.1465  0.0914
  121OSM   H15S12828   6.577   2.043   8.726 -0.0068  0.3375  1.7655
  121OSM   H15T12829   6.556   1.871   8.755  0.6199 -1.3396 -0.9055
  121OSM   C16S12830   6.712   1.936   8.605 -0.1694  0.8067  0.1785
  121OSM   H16S12831   6.633   1.944   8.526  0.0635 -0.1840 -0.1626
  121OSM   H16T12832   6.773   1.844   8.599 -1.3208 -0.0366  1.1379
  121OSM   C17S12833   6.814   2.050   8.581  0.6755  0.0469  0.1304
  121OSM   H17S12834   6.902   2.027   8.645 -0.0157  1.4773  1.6389
  121OSM   H17T12835   6.773   2.148   8.614 -0.5760 -0.7214  0.9326
  121OSM   C18S12836   6.871   2.061   8.438 -0.4645 -0.4891  0.5011
  121OSM   H18S12837   6.906   1.959   8.414  0.6372 -0.2949  1.2401
  121OSM   H18T12838   6.954   2.135   8.429  0.7485 -1.7547  1.1433
  121OSM   H18U12839   6.798   2.072   8.355  0.8320  0.3949 -0.5536
  121OSM    C1F12840   6.967   1.599   9.626  0.2388 -0.5663 -0.6271
  121OSM     OF12841   6.983   1.496   9.686 -0.3013  0.1964  0.2188
  121OSM    C2F12842   6.848   1.620   9.544  0.1407  0.2350  0.0445
  121OSM    H2F12843   6.817   1.725   9.522  0.2721  0.0820 -0.8949
  121OSM    H2G12844   6.766   1.594   9.614 -0.7235  4.5258  0.7882
  121OSM    C3F12845   6.829   1.528   9.429 -0.0569  0.2009 -0.0993
  121OSM    H3F12846   6.719   1.542   9.417 -0.1600  0.3955  1.0591
  121OSM    H3G12847   6.826   1.423   9.465  1.1414  1.7329  4.8269
  121OSM    C4F12848   6.899   1.548   9.288  0.1149  0.1348  1.4246
  121OSM    H4F12849   7.008   1.547   9.307  0.2344 -0.4425  0.7105
  121OSM    H4G12850   6.887   1.651   9.248 -0.4590  0.0288  1.3205
  121OSM    C5F12851   6.853   1.446   9.184 -0.1462  0.0715  0.5104
  121OSM    H5F12852   6.745   1.458   9.158  0.5314 -2.1063 -3.6309
  121OSM    H5G12853   6.870   1.339   9.206 -1.1657 -0.1136  0.4094
  121OSM    C6F12854   6.942   1.459   9.062 -0.4343 -0.3089 -0.5149
  121OSM    H6F12855   6.899   1.395   8.982  1.2936 -0.8018 -1.0814
  121OSM    H6G12856   7.046   1.432   9.091 -0.0197  0.7620 -0.9740
  121OSM    C7F12857   6.937   1.601   9.003 -0.4983  0.1225 -0.3498
  121OSM    H7F12858   6.990   1.668   9.074  0.1013 -1.2554  0.5144
  121OSM    H7G12859   6.834   1.634   8.977 -0.8901  0.6085  1.7780
  121OSM    C8F12860   7.026   1.607   8.874 -0.5432 -0.3774  0.5774
  121OSM    H8F12861   6.991   1.695   8.816  1.3755  0.9393  1.3410
  121OSM    H8G12862   7.021   1.524   8.801  1.6761  0.7410 -0.9344
  121OSM    C9F12863   7.179   1.623   8.898  0.1238 -0.2809  0.7762
  121OSM    H9F12864   7.224   1.534   8.944 -0.6145 -0.6335  0.8207
  121OSM   C10F12865   7.255   1.733   8.876 -1.2273  0.0904  0.4198
  121OSM   H10F12866   7.360   1.725   8.909 -0.9119  1.3875 -0.2551
  121OSM   C11F12867   7.224   1.868   8.821 -0.3212  0.6902  0.0921
  121OSM   H11F12868   7.312   1.935   8.832  1.3460 -1.1235 -1.7955
  121OSM   H11G12869   7.148   1.913   8.889  0.1667  0.6390  0.6708
  121OSM   C12F12870   7.171   1.893   8.681  0.1187 -0.4371  0.2607
  121OSM   H12F12871   7.153   2.000   8.657 -0.9971 -0.7419 -0.3421
  121OSM   H12G12872   7.065   1.859   8.689 -1.0155  2.6054 -1.0783
  121OSM   C13F12873   7.242   1.817   8.567 -0.4405 -0.2244  0.1338
  121OSM   H13F12874   7.247   1.721   8.624  0.0056 -1.4543 -1.9302
  121OSM   H13G12875   7.339   1.869   8.552  0.3023 -1.1758  1.4528
  121OSM   C14F12876   7.166   1.784   8.440  0.1730  0.5228  0.0040
  121OSM   H14F12877   7.237   1.751   8.362  0.6787  1.3594  0.1104
  121OSM   H14G12878   7.126   1.879   8.398 -2.2795 -0.1699  0.6606
  121OSM   C15F12879   7.054   1.682   8.446 -0.6625 -0.3956 -0.3062
  121OSM   H15F12880   6.988   1.698   8.358  1.3893  1.1284 -1.6136
  121OSM   H15G12881   6.999   1.705   8.539 -1.5601  0.7279 -1.1101
  121OSM   C16F12882   7.091   1.540   8.462 -0.5209 -0.3904  0.7032
  121OSM   H16F12883   6.999   1.490   8.500 -0.5666  0.2915  1.5030
  121OSM   H16G12884   7.169   1.508   8.534  1.1867 -1.7212 -1.6834
  121OSM   C17F12885   7.124   1.476   8.326 -1.3179 -0.3001  0.6122
  121OSM   H17F12886   7.177   1.380   8.341  1.0476  0.8260 -0.2497
  121OSM   H17G12887   7.203   1.545   8.289 -0.4536 -2.0311 -0.8644
  121OSM   C18F12888   7.012   1.458   8.226  0.8312 -0.0455  0.3616
  121OSM   H18F12889   6.942   1.373   8.243  0.8744 -0.2259 -0.3419
  121OSM   H18G12890   7.052   1.428   8.127 -3.0907  2.4591 -2.1431
  121OSM   H18H12891   6.956   1.553   8.212 -0.4949 -0.7522  0.7698
  122OSM      N12892   7.142   7.067  10.307 -0.8038  0.1384  0.7227
  122OSM    C1512893   7.288   7.059  10.340 -0.3668 -0.8794 -0.2977
  122OSM   H15A12894   7.349   7.143  10.310 -1.4842  0.7896  1.9644
  122OSM   H15B12895   7.341   6.976  10.296  1.8490  0.0681  0.4666
  122OSM   H15C12896   7.310   7.045  10.445 -1.5896 -0.1405  0.0606
  122OSM    C1412897   7.121   7.073  10.165  0.5350  0.4963 -0.1817
  122OSM   H14A12898   7.173   7.156  10.120  1.5573  0.1071  0.2671
  122OSM   H14B12899   7.024   7.106  10.132  0.7753  1.0463 -0.3328
  122OSM   H14C12900   7.152   6.982  10.115  0.7326  0.8310 -0.6657
  122OSM    C1312901   7.074   6.940  10.354  0.2336  0.6165  0.4463
  122OSM   H13A12902   7.128   6.852  10.322 -0.0498  0.3831  0.6135
  122OSM   H13B12903   6.975   6.924  10.314  0.3218  2.1280 -0.4586
  122OSM   H13C12904   7.062   6.925  10.460 -0.7333  1.4307  0.4587
  122OSM    C1212905   7.082   7.189  10.376  0.2198 -0.3092 -0.0131
  122OSM   H12A12906   7.139   7.280  10.358 -0.3346  0.2391  0.9490
  122OSM   H12B12907   7.097   7.177  10.482 -2.7495  2.1191  0.7801
  122OSM    C1112908   6.935   7.228  10.352  0.1070 -0.2342  1.4149
  122OSM   H11A12909   6.918   7.308  10.427 -1.0825 -0.5440  1.4919
  122OSM   H11B12910   6.866   7.146  10.381  1.4731 -1.3636  1.5296
  122OSM      P12911   6.869   7.404  10.180  0.3061 -0.0686 -0.0662
  122OSM    O1312912   6.843   7.424  10.033  0.1610 -0.1734  0.1174
  122OSM    O1412913   6.757   7.445  10.267 -0.3794  0.0223 -0.0096
  122OSM    O1112914   6.998   7.487  10.230  0.0991 -0.4006 -0.9685
  122OSM    O1212915   6.913   7.260  10.210  0.6089 -0.3700  0.0431
  122OSM    C1S12916   7.127   7.456  10.187  0.1950 -0.8955 -0.3138
  122OSM    H1S12917   7.148   7.350  10.159 -0.7779 -1.8152  2.2449
  122OSM    H1T12918   7.195   7.491  10.267  1.7384 -1.0833 -1.5367
  122OSM     NF12919   7.295   7.480   9.991  0.3532  0.2642 -0.7201
  122OSM    HNF12920   7.377   7.536   9.999 -0.4104  1.3236 -0.2217
  122OSM    C2S12921   7.171   7.526  10.048  0.7075 -1.0502 -0.8311
  122OSM    H2S12922   7.096   7.497   9.971  1.4612 -4.9860 -0.2107
  122OSM    C3S12923   7.166   7.678  10.063 -0.4733 -0.1085 -0.3167
  122OSM    H3S12924   7.258   7.714  10.114 -0.1147  1.2953 -1.9180
  122OSM     O312925   7.065   7.733  10.148  0.3694  0.2482 -0.3426
  122OSM    HO312926   7.010   7.659  10.176 -0.8093  0.1676 -2.6974
  122OSM    C4S12927   7.162   7.750   9.930  0.0188 -0.2573  0.5984
  122OSM    H4S12928   7.263   7.775   9.894 -1.3127  1.5966 -2.0050
  122OSM    C5S12929   7.057   7.769   9.849  0.0544 -0.6071 -0.1543
  122OSM    H5S12930   6.962   7.720   9.875 -0.3372  0.8490  1.2367
  122OSM    C6S12931   7.062   7.826   9.708 -0.5490  0.2546  0.6205
  122OSM    H6S12932   7.014   7.751   9.642 -1.2670  1.4484 -0.2477
  122OSM    H6T12933   7.170   7.845   9.690 -0.0977 -1.6703  1.1903
  122OSM    C7S12934   7.007   7.964   9.689  0.3047  0.5273 -0.2862
  122OSM    H7S12935   7.055   8.030   9.765 -1.6498 -0.9084  2.2552
  122OSM    H7T12936   6.898   7.952   9.698  0.2939  1.8706  1.6149
  122OSM    C8S12937   7.031   8.027   9.549  0.7953 -0.1595  0.2656
  122OSM    H8S12938   7.133   8.013   9.507  0.5251  1.5954 -0.9970
  122OSM    H8T12939   7.012   8.136   9.553 -0.4139 -0.3611  0.1406
  122OSM    C9S12940   6.927   7.971   9.445  0.2093 -0.6849 -0.0875
  122OSM    H9S12941   6.826   8.003   9.480 -0.2507 -1.3230 -0.8128
  122OSM    H9T12942   6.949   7.863   9.454  3.0778 -0.0423  0.9766
  122OSM   C10S12943   6.965   8.001   9.300 -0.3646 -0.2187  0.1351
  122OSM   H10S12944   7.066   7.961   9.280 -0.0789  0.2158  0.6952
  122OSM   H10T12945   6.975   8.110   9.278  0.6716 -0.1736  0.7919
  122OSM   C11S12946   6.873   7.947   9.189 -0.1576 -0.2103 -0.1505
  122OSM   H11S12947   6.792   8.019   9.166 -0.0050  1.0813  3.0691
  122OSM   H11T12948   6.826   7.855   9.231 -3.1226 -0.1716 -3.2114
  122OSM   C12S12949   6.942   7.920   9.047  0.3560 -0.3744 -0.1607
  122OSM   H12S12950   7.015   7.837   9.050 -1.5935 -2.1007  2.2418
  122OSM   H12T12951   6.992   8.017   9.025  4.6047 -1.7635  2.6798
  122OSM   C13S12952   6.843   7.878   8.943  0.3714 -0.2167  0.4738
  122OSM   H13S12953   6.764   7.956   8.936  1.6167  0.8405 -2.4889
  122OSM   H13T12954   6.801   7.780   8.973  0.6208  0.2414  2.4153
  122OSM   C14S12955   6.896   7.851   8.797  0.1392  0.3997 -0.4354
  122OSM   H14S12956   6.807   7.845   8.731  0.0048 -0.4413 -0.1843
  122OSM   H14T12957   6.948   7.752   8.796 -0.2681  0.1409  1.9330
  122OSM   C15S12958   6.991   7.950   8.738 -0.6315 -0.3794 -0.0166
  122OSM   H15S12959   7.084   7.926   8.794 -0.2955 -1.8835 -1.1746
  122OSM   H15T12960   6.964   8.053   8.769 -0.3908 -0.6205  1.0229
  122OSM   C16S12961   7.013   7.930   8.591  0.1185 -0.0817 -0.4018
  122OSM   H16S12962   7.014   7.823   8.564 -0.5348  0.2345 -1.7641
  122OSM   H16T12963   7.116   7.968   8.580  0.3086  0.2106  2.0957
  122OSM   C17S12964   6.913   8.012   8.510 -0.1032 -0.5427  0.1951
  122OSM   H17S12965   6.920   8.121   8.528 -0.3004 -0.3639 -0.7718
  122OSM   H17T12966   6.812   7.973   8.536  0.2703 -1.3429  0.4858
  122OSM   C18S12967   6.950   7.993   8.358 -0.4120  0.1376  0.2169
  122OSM   H18S12968   6.869   8.029   8.291  0.0613  1.6366  0.4364
  122OSM   H18T12969   6.949   7.883   8.341  0.2194  0.1926 -0.1755
  122OSM   H18U12970   7.052   8.029   8.332 -0.2803  0.1194  0.7076
  122OSM    C1F12971   7.315   7.354   9.950 -0.1871  0.0759 -0.0447
  122OSM     OF12972   7.221   7.275   9.940 -0.3236 -0.2452  0.3172
  122OSM    C2F12973   7.447   7.303   9.910 -0.7071  0.4195  0.6116
  122OSM    H2F12974   7.479   7.227   9.985  0.7675 -0.9919 -1.3799
  122OSM    H2G12975   7.521   7.385   9.911 -0.2530  0.1677 -3.3193
  122OSM    C3F12976   7.410   7.230   9.778  0.6002  0.2672  0.0265
  122OSM    H3F12977   7.344   7.285   9.708  1.2339  3.4990  1.8256
  122OSM    H3G12978   7.362   7.138   9.817 -0.6032  0.0463 -1.9449
  122OSM    C4F12979   7.532   7.180   9.702 -0.0309 -0.6325  0.5966
  122OSM    H4F12980   7.494   7.096   9.640  0.2787  0.0746 -0.5699
  122OSM    H4G12981   7.612   7.151   9.774 -0.1458 -0.2927  0.8623
  122OSM    C5F12982   7.593   7.278   9.605 -1.4611 -0.5845 -0.1852
  122OSM    H5F12983   7.621   7.371   9.659 -2.3536  1.3820 -3.0044
  122OSM    H5G12984   7.518   7.319   9.534 -0.4984  0.1057 -0.8073
  122OSM    C6F12985   7.710   7.216   9.535 -0.1515  0.1379 -0.5066
  122OSM    H6F12986   7.682   7.137   9.462 -0.8993  0.9457 -1.0933
  122OSM    H6G12987   7.773   7.145   9.593  1.5169  1.6240 -0.4569
  122OSM    C7F12988   7.801   7.319   9.475  0.9202 -0.0274 -0.6930
  122OSM    H7F12989   7.901   7.274   9.454  1.0935 -0.7658  1.6357
  122OSM    H7G12990   7.823   7.409   9.537 -2.5576 -0.2366  0.9191
  122OSM    C8F12991   7.736   7.364   9.340 -0.8008 -0.8485  0.1670
  122OSM    H8F12992   7.637   7.415   9.350 -0.8486 -0.7086 -0.9325
  122OSM    H8G12993   7.713   7.273   9.281 -0.5289 -0.4939 -0.4923
  122OSM    C9F12994   7.826   7.463   9.259 -0.5226 -0.6416  0.1921
  122OSM    H9F12995   7.809   7.572   9.253  1.7540 -0.3979 -3.6031
  122OSM   C10F12996   7.929   7.419   9.180 -0.2040 -0.1076  0.2322
  122OSM   H10F12997   7.988   7.491   9.123  1.2235  0.6686  2.6129
  122OSM   C11F12998   7.971   7.277   9.163 -0.4747  0.3911 -0.2377
  122OSM   H11F12999   7.931   7.191   9.221  1.5076  0.5603  1.4310
  122OSM   H11G13000   8.080   7.271   9.183 -0.6927 -0.3096  0.7873
  122OSM   C12F13001   7.971   7.225   9.008 -0.1368 -0.3463  1.0884
  122OSM   H12F13002   8.042   7.140   9.018  1.0019  0.4387 -0.1979
  122OSM   H12G13003   8.026   7.305   8.954 -2.1647 -0.5599 -1.3411
  122OSM   C13F13004   7.833   7.193   8.949  0.5774  0.2951 -0.5611
  122OSM   H13F13005   7.769   7.282   8.961  1.7743  1.2478 -1.1013
  122OSM   H13G13006   7.792   7.121   9.024 -2.0658  1.7534 -0.5872
  122OSM   C14F13007   7.847   7.145   8.802 -0.1030  0.6562 -0.4336
  122OSM   H14F13008   7.914   7.056   8.797  1.6400  2.0090 -2.3327
  122OSM   H14G13009   7.902   7.217   8.737 -0.5153 -0.6807 -2.3265
  122OSM   C15F13010   7.709   7.102   8.735  0.2046  0.1028  0.3406
  122OSM   H15F13011   7.651   7.196   8.747 -3.1145 -1.7218 -0.6290
  122OSM   H15G13012   7.664   7.026   8.802  0.6878 -2.6183 -2.3242
  122OSM   C16F13013   7.708   7.066   8.583  0.1571 -0.6814 -0.0362
  122OSM   H16F13014   7.611   7.099   8.539  0.7505  0.5679 -0.4375
  122OSM   H16G13015   7.715   6.957   8.566  0.6381 -0.8587  1.2902
  122OSM   C17F13016   7.812   7.137   8.500  0.3679  0.3736  0.5102
  122OSM   H17F13017   7.907   7.094   8.540 -0.1848 -0.8571  0.5115
  122OSM   H17G13018   7.819   7.246   8.522 -0.9986  0.9467 -1.7417
  122OSM   C18F13019   7.805   7.119   8.347 -0.0969 -0.2516 -0.2906
  122OSM   H18F13020   7.709   7.163   8.311  0.6177  0.3731 -1.4529
  122OSM   H18G13021   7.804   7.010   8.323  1.0789 -0.6265  1.2931
  122OSM   H18H13022   7.886   7.176   8.298  0.5499 -0.9766 -0.0799
  123OSM      N13023   3.468   4.870   5.767  0.6872  0.1030  0.8782
  123OSM    C1513024   3.558   4.785   5.853  0.7921 -0.8976 -0.0911
  123OSM   H15A13025   3.661   4.816   5.859  0.2006  1.3207 -1.0821
  123OSM   H15B13026   3.555   4.686   5.809 -1.8546 -1.8358  2.0506
  123OSM   H15C13027   3.515   4.775   5.952 -0.7072 -1.8828 -0.8265
  123OSM    C1413028   3.462   5.005   5.825  0.1401  0.7224 -0.3789
  123OSM   H14A13029   3.422   4.992   5.924  0.9760 -0.1453 -0.1557
  123OSM   H14B13030   3.404   5.078   5.769  1.1039  1.0610 -0.9506
  123OSM   H14C13031   3.557   5.049   5.851  0.3778  0.5004 -0.8577
  123OSM    C1313032   3.526   4.887   5.635 -0.6012  0.1071  0.4051
  123OSM   H13A13033   3.552   4.797   5.582  2.7350  0.6914  0.9729
  123OSM   H13B13034   3.616   4.946   5.641 -0.1345 -0.5985  0.3805
  123OSM   H13C13035   3.467   4.945   5.566 -0.6656 -0.4431 -0.0086
  123OSM    C1213036   3.326   4.802   5.757 -0.2238  0.4447  0.4137
  123OSM   H12A13037   3.257   4.867   5.705 -0.1053 -0.3466 -0.7662
  123OSM   H12B13038   3.295   4.780   5.858  1.9123  3.5779  1.8295
  123OSM    C1113039   3.305   4.664   5.677 -0.1661 -0.5038  0.3236
  123OSM   H11A13040   3.351   4.680   5.577 -3.1111 -1.7600 -1.2960
  123OSM   H11B13041   3.198   4.644   5.655 -0.4923  0.4422  0.9741
  123OSM      P13042   3.316   4.484   5.867 -0.1996  0.0475 -0.2386
  123OSM    O1313043   3.222   4.375   5.835 -0.4961  0.1192  0.4025
  123OSM    O1413044   3.430   4.446   5.951  0.4781 -0.0464 -0.0822
  123OSM    O1113045   3.236   4.607   5.929  0.2187  0.2249 -0.0957
  123OSM    O1213046   3.375   4.554   5.741 -0.1545  0.1619  0.1533
  123OSM    C1S13047   3.139   4.587   6.023 -0.4435 -0.2673  0.3913
  123OSM    H1S13048   3.067   4.508   5.993 -0.1360 -1.1232  1.8608
  123OSM    H1T13049   3.071   4.675   6.034 -0.6042 -0.3601  0.1228
  123OSM     NF13050   3.079   4.537   6.250  0.5679 -0.1622  0.2103
  123OSM    HNF13051   3.062   4.594   6.331 -0.3628  2.6267 -1.8477
  123OSM    C2S13052   3.197   4.562   6.169  0.3655  0.9061  0.0904
  123OSM    H2S13053   3.257   4.469   6.165  0.4489  1.0131 -1.3043
  123OSM    C3S13054   3.285   4.677   6.218 -0.5477  0.4322  0.2240
  123OSM    H3S13055   3.225   4.770   6.208  0.1409  0.9143  0.4886
  123OSM     O313056   3.416   4.700   6.150  0.6782  0.3131 -0.0927
  123OSM    HO313057   3.413   4.649   6.069  0.4022 -1.6903  1.1457
  123OSM    C4S13058   3.320   4.666   6.368 -0.2350 -0.5429  0.4157
  123OSM    H4S13059   3.401   4.595   6.388  1.0460  0.0680 -2.3687
  123OSM    C5S13060   3.259   4.727   6.473 -0.3960  0.2958  0.5719
  123OSM    H5S13061   3.181   4.803   6.453  0.3101  1.1205  0.9631
  123OSM    C6S13062   3.295   4.710   6.619  0.1267 -0.6761 -0.3234
  123OSM    H6S13063   3.202   4.664   6.660 -0.4956  0.0874 -0.8591
  123OSM    H6T13064   3.305   4.807   6.671 -0.3512 -1.5268  1.4096
  123OSM    C7S13065   3.417   4.614   6.648  0.6905  0.2164  0.3520
  123OSM    H7S13066   3.505   4.662   6.601  1.1971 -2.6175 -1.7306
  123OSM    H7T13067   3.421   4.520   6.588  0.8221  2.5235 -3.4226
  123OSM    C8S13068   3.443   4.591   6.798 -0.6621 -0.7244 -0.1944
  123OSM    H8S13069   3.533   4.528   6.809 -0.4430 -0.1889  1.1795
  123OSM    H8T13070   3.358   4.529   6.832 -1.2258  0.4111  0.4853
  123OSM    C9S13071   3.479   4.718   6.886 -0.1769  0.5341  0.4928
  123OSM    H9S13072   3.414   4.804   6.858 -0.6220 -0.5014 -1.7222
  123OSM    H9T13073   3.585   4.741   6.859 -0.2544  0.0541 -0.2159
  123OSM   C10S13074   3.473   4.684   7.036 -0.1103 -0.2363 -0.3263
  123OSM   H10S13075   3.525   4.586   7.043 -0.4254 -0.3413  0.6561
  123OSM   H10T13076   3.369   4.672   7.074 -0.1566  2.2546  0.4304
  123OSM   C11S13077   3.548   4.776   7.134  0.5132  0.0908 -0.0282
  123OSM   H11S13078   3.490   4.871   7.129 -0.0402 -0.0818  2.4019
  123OSM   H11T13079   3.645   4.797   7.084  0.7871  0.8161  0.7961
  123OSM   C12S13080   3.546   4.728   7.281  0.4005 -0.2455  0.1157
  123OSM   H12S13081   3.599   4.631   7.293 -1.3299 -1.2257 -0.1400
  123OSM   H12T13082   3.438   4.705   7.295  0.5001 -0.9416 -0.2606
  123OSM   C13S13083   3.588   4.833   7.381 -0.2835 -0.1568 -0.1323
  123OSM   H13S13084   3.532   4.926   7.357  3.8158  2.8274  1.2448
  123OSM   H13T13085   3.697   4.855   7.372 -0.2784  0.4018  1.2073
  123OSM   C14S13086   3.553   4.804   7.532  0.0155  0.0298  0.0455
  123OSM   H14S13087   3.596   4.705   7.558 -0.1848 -0.0667  0.0062
  123OSM   H14T13088   3.442   4.799   7.538  0.0259 -0.2057  0.0685
  123OSM   C15S13089   3.587   4.922   7.621  0.3738  0.4446 -0.1270
  123OSM   H15S13090   3.543   4.912   7.722  1.4406 -0.0286  0.2943
  123OSM   H15T13091   3.549   5.013   7.571 -1.5635 -0.8241 -1.0281
  123OSM   C16S13092   3.736   4.921   7.648  0.5398 -0.5608  0.1445
  123OSM   H16S13093   3.781   4.939   7.548  0.6161  0.0088  0.2792
  123OSM   H16T13094   3.760   4.818   7.683 -0.1596 -0.5865  0.5736
  123OSM   C17S13095   3.773   5.038   7.742  0.5572 -0.2645 -0.3382
  123OSM   H17S13096   3.710   5.128   7.723 -0.7670 -1.4078 -1.4746
  123OSM   H17T13097   3.882   5.059   7.733  0.9460 -2.3352 -0.6886
  123OSM   C18S13098   3.759   5.005   7.890  0.8448  0.2198  0.1259
  123OSM   H18S13099   3.826   4.919   7.913  0.1535 -0.0416  1.2179
  123OSM   H18T13100   3.654   4.985   7.920  0.7085 -0.0216 -0.5016
  123OSM   H18U13101   3.792   5.099   7.940  0.2298  1.6076 -2.0439
  123OSM    C1F13102   3.006   4.423   6.234 -0.5537 -0.7497  0.3575
  123OSM     OF13103   3.056   4.344   6.155  0.3730 -0.5837 -0.4154
  123OSM    C2F13104   2.892   4.392   6.327  0.0253 -0.2601  0.0678
  123OSM    H2F13105   2.868   4.283   6.321  0.0294 -0.1963 -1.3876
  123OSM    H2G13106   2.803   4.452   6.297  0.2695  0.4726  0.7999
  123OSM    C3F13107   2.930   4.418   6.472  0.2634  0.3644 -0.3682
  123OSM    H3F13108   2.932   4.523   6.508 -0.0123 -0.1130  1.1077
  123OSM    H3G13109   3.034   4.379   6.477  0.8311  1.7419 -1.1327
  123OSM    C4F13110   2.841   4.347   6.578 -0.0792 -0.1448 -0.6972
  123OSM    H4F13111   2.840   4.241   6.544  1.8283 -0.0828 -1.0234
  123OSM    H4G13112   2.740   4.391   6.571  0.6011  1.5546  0.0392
  123OSM    C5F13113   2.891   4.342   6.723 -1.1878 -0.1063  0.3976
  123OSM    H5F13114   2.838   4.263   6.779  1.1005 -1.6020  0.5047
  123OSM    H5G13115   2.860   4.440   6.765 -0.3689  0.1954  0.3137
  123OSM    C6F13116   3.049   4.335   6.729  0.0269  0.1531  0.0127
  123OSM    H6F13117   3.099   4.420   6.679 -0.4494  0.0209 -0.6880
  123OSM    H6G13118   3.083   4.240   6.684 -0.2948 -0.4236  0.9838
  123OSM    C7F13119   3.105   4.323   6.879 -1.2888  0.0347 -0.2765
  123OSM    H7F13120   3.210   4.286   6.876 -0.8845  1.1798 -0.5431
  123OSM    H7G13121   3.036   4.249   6.923  0.8386 -0.8511  1.6660
  123OSM    C8F13122   3.090   4.454   6.954  0.1235 -0.0068  0.0865
  123OSM    H8F13123   2.983   4.472   6.980 -0.1455 -1.2800 -0.0966
  123OSM    H8G13124   3.117   4.540   6.889 -0.7534  0.7996  0.7581
  123OSM    C9F13125   3.183   4.455   7.074  0.0344  0.8881  0.3288
  123OSM    H9F13126   3.289   4.440   7.047 -0.4064 -0.6688 -0.6286
  123OSM   C10F13127   3.153   4.448   7.203 -0.0572  0.0050 -0.0123
  123OSM   H10F13128   3.229   4.424   7.279  0.9366 -0.5527 -1.1505
  123OSM   C11F13129   3.008   4.455   7.255  0.0330  0.2438  1.0529
  123OSM   H11F13130   2.936   4.419   7.178  1.2022 -1.1727  0.5920
  123OSM   H11G13131   2.970   4.557   7.276 -0.4816  0.7725 -2.2015
  123OSM   C12F13132   2.991   4.375   7.379  0.3483 -0.8617  0.0806
  123OSM   H12F13133   2.980   4.268   7.351  2.2123 -0.5288 -2.0788
  123OSM   H12G13134   2.890   4.381   7.423  0.5197 -1.4404  0.5582
  123OSM   C13F13135   3.081   4.404   7.497  0.2468 -1.1285  0.0193
  123OSM   H13F13136   3.188   4.406   7.467  0.1796  0.4881 -0.1905
  123OSM   H13G13137   3.075   4.313   7.560 -1.4462 -1.5698 -0.7370
  123OSM   C14F13138   3.041   4.528   7.578  0.1485 -0.6724  0.7224
  123OSM   H14F13139   2.933   4.521   7.600 -0.2658  1.3723 -0.5568
  123OSM   H14G13140   3.053   4.615   7.509  2.3311 -1.8900 -0.5168
  123OSM   C15F13141   3.123   4.547   7.705  0.0355  0.0628 -0.9257
  123OSM   H15F13142   3.088   4.642   7.751  0.8380 -1.2099  2.5270
  123OSM   H15G13143   3.232   4.561   7.689  0.5612 -1.8588  0.7060
  123OSM   C16F13144   3.109   4.428   7.811 -0.2457  0.2874 -0.2052
  123OSM   H16F13145   3.158   4.338   7.769  0.7101  0.2270  1.0035
  123OSM   H16G13146   3.002   4.401   7.826 -0.3946  0.3840 -1.0911
  123OSM   C17F13147   3.183   4.467   7.939 -0.1570 -0.0650  0.2470
  123OSM   H17F13148   3.139   4.412   8.026  0.4393 -1.7960 -0.5316
  123OSM   H17G13149   3.160   4.575   7.949  0.3374  0.0464  0.1611
  123OSM   C18F13150   3.332   4.442   7.938  0.0652 -0.2859  0.0811
  123OSM   H18F13151   3.381   4.497   7.855  1.8581  2.3832  2.7572
  123OSM   H18G13152   3.360   4.335   7.931  2.2375  0.0139  2.8639
  123OSM   H18H13153   3.368   4.477   8.038  1.3729 -0.2043 -0.4026
  124OSM      N13154   5.208   2.472   5.363  0.5637 -0.3888  0.1212
  124OSM    C1513155   5.144   2.338   5.400 -0.5780  0.1182  1.2016
  124OSM   H15A13156   5.209   2.255   5.422 -1.7324 -1.5677 -1.5031
  124OSM   H15B13157   5.077   2.307   5.321 -0.9284  0.5924  1.3038
  124OSM   H15C13158   5.074   2.362   5.479 -1.2189 -1.1645  1.0297
  124OSM    C1413159   5.304   2.457   5.249 -0.5730  0.6201  0.5934
  124OSM   H14A13160   5.359   2.549   5.234 -0.7884  0.3452 -2.1959
  124OSM   H14B13161   5.267   2.417   5.156  0.5365  1.0548 -0.0464
  124OSM   H14C13162   5.385   2.394   5.282 -1.2638  0.1357  1.3880
  124OSM    C1313163   5.094   2.557   5.317 -0.7225 -0.5433 -0.3895
  124OSM   H13A13164   5.048   2.519   5.227 -2.3148  0.5025 -0.0552
  124OSM   H13B13165   5.131   2.653   5.282 -2.4663  0.7696  1.2290
  124OSM   H13C13166   5.014   2.550   5.389 -1.0902  0.8008 -0.6559
  124OSM    C1213167   5.274   2.523   5.492 -0.5588  0.0249  0.7158
  124OSM   H12A13168   5.191   2.564   5.548 -0.8601  1.0243 -0.4320
  124OSM   H12B13169   5.323   2.617   5.470  0.0124 -0.4489 -0.0700
  124OSM    C1113170   5.367   2.437   5.586  0.4054 -0.6138  0.8404
  124OSM   H11A13171   5.302   2.357   5.629 -0.9430 -0.1502 -0.3017
  124OSM   H11B13172   5.408   2.500   5.667  0.2645  2.8985 -1.7213
  124OSM      P13173   5.554   2.259   5.586 -0.1893  0.4344  0.3646
  124OSM    O1313174   5.456   2.150   5.629 -0.7545  0.1476  0.2189
  124OSM    O1413175   5.668   2.223   5.498 -0.2359 -0.4591  0.3868
  124OSM    O1113176   5.619   2.332   5.709  0.2883 -0.4656  0.4484
  124OSM    O1213177   5.479   2.379   5.515  0.3995 -0.5968 -0.3045
  124OSM    C1S13178   5.730   2.420   5.692 -0.0138  0.2727 -0.0363
  124OSM    H1S13179   5.711   2.470   5.594 -1.9392 -2.3374 -1.0651
  124OSM    H1T13180   5.826   2.368   5.672 -1.4398 -2.9291  1.1653
  124OSM     NF13181   5.820   2.635   5.784 -0.2867  0.7420 -0.3138
  124OSM    HNF13182   5.897   2.643   5.846 -0.2985 -0.2655 -0.1553
  124OSM    C2S13183   5.741   2.516   5.813 -0.0623  0.1638  0.7893
  124OSM    H2S13184   5.637   2.546   5.840 -0.9736 -1.5517 -0.7185
  124OSM    C3S13185   5.789   2.435   5.944  0.6813 -0.9675  0.0855
  124OSM    H3S13186   5.884   2.381   5.922  0.1674 -0.7446 -2.9068
  124OSM     O313187   5.692   2.334   5.983 -0.4383  0.7936 -0.0721
  124OSM    HO313188   5.635   2.327   5.906  0.5036  0.4367 -0.7398
  124OSM    C4S13189   5.827   2.530   6.059  0.5864 -0.2811 -0.1903
  124OSM    H4S13190   5.934   2.553   6.069  0.5450  0.2160 -0.8824
  124OSM    C5S13191   5.739   2.602   6.140  0.0808 -0.2770 -0.3654
  124OSM    H5S13192   5.634   2.593   6.106  0.1206 -1.5273 -0.1630
  124OSM    C6S13193   5.781   2.713   6.235  0.5196  0.2114 -0.1658
  124OSM    H6S13194   5.777   2.812   6.184  2.2725  0.3295 -0.1221
  124OSM    H6T13195   5.883   2.688   6.273  0.0140 -1.2363  0.2478
  124OSM    C7S13196   5.697   2.735   6.368 -0.2548  0.2313  0.3483
  124OSM    H7S13197   5.751   2.818   6.419  0.1390  0.2845 -0.1481
  124OSM    H7T13198   5.696   2.640   6.424  0.5468 -1.7149 -2.8276
  124OSM    C8S13199   5.544   2.757   6.352 -0.0418  0.3693  0.0224
  124OSM    H8S13200   5.497   2.692   6.276  0.8885  0.1964 -0.4131
  124OSM    H8T13201   5.536   2.855   6.300  0.2716 -0.7292 -2.1617
  124OSM    C9S13202   5.470   2.766   6.482  0.0567 -0.2454  0.1501
  124OSM    H9S13203   5.462   2.663   6.523  0.9884 -1.0679 -1.6588
  124OSM    H9T13204   5.370   2.795   6.443  0.6445  1.0521 -0.4343
  124OSM   C10S13205   5.528   2.865   6.585  1.2608 -0.1488  0.0632
  124OSM   H10S13206   5.524   2.971   6.552  1.3883 -0.8271 -2.2216
  124OSM   H10T13207   5.634   2.833   6.594  0.3331 -3.6825 -0.8738
  124OSM   C11S13208   5.460   2.874   6.724  0.4412 -0.2074 -0.1849
  124OSM   H11S13209   5.353   2.901   6.714  0.5441  0.8223  1.3117
  124OSM   H11T13210   5.507   2.954   6.785  0.0408  0.3933 -0.6694
  124OSM   C12S13211   5.471   2.746   6.802  0.5152 -0.8053 -0.5820
  124OSM   H12S13212   5.449   2.660   6.735 -0.0143  1.0428 -2.8422
  124OSM   H12T13213   5.404   2.759   6.889 -0.3785 -1.1461 -1.2140
  124OSM   C13S13214   5.609   2.721   6.868  0.4466 -0.5606 -0.2739
  124OSM   H13S13215   5.687   2.704   6.791  2.0336  1.1658  0.9228
  124OSM   H13T13216   5.590   2.633   6.933  1.0381 -1.3155 -1.0933
  124OSM   C14S13217   5.668   2.835   6.960  0.3281  0.8545  0.0823
  124OSM   H14S13218   5.695   2.923   6.899 -0.4551  0.8040 -0.3411
  124OSM   H14T13219   5.762   2.786   6.993 -0.0779  0.3473  0.5119
  124OSM   C15S13220   5.587   2.869   7.082  0.7527 -0.4446  0.0538
  124OSM   H15S13221   5.583   2.786   7.155  0.8655 -0.2921  0.2334
  124OSM   H15T13222   5.488   2.885   7.034  1.4223 -1.3535 -1.6862
  124OSM   C16S13223   5.630   3.002   7.159  0.0586 -0.3893  0.8528
  124OSM   H16S13224   5.552   3.082   7.157 -0.1918 -0.6488 -0.2410
  124OSM   H16T13225   5.719   3.046   7.109  0.0901 -2.2758 -0.7825
  124OSM   C17S13226   5.684   2.975   7.305 -0.0153  0.5789  0.2359
  124OSM   H17S13227   5.605   2.928   7.367 -0.1323 -1.2652 -1.2489
  124OSM   H17T13228   5.704   3.074   7.351 -1.4116  0.2772  1.5050
  124OSM   C18S13229   5.805   2.875   7.311 -0.0966  0.3508  1.2685
  124OSM   H18S13230   5.860   2.893   7.216 -1.7388  0.2730  0.2909
  124OSM   H18T13231   5.772   2.769   7.317 -2.1840  1.0274  2.1967
  124OSM   H18U13232   5.868   2.910   7.395  0.9388  0.6390  0.3958
  124OSM    C1F13233   5.785   2.726   5.691 -0.1967  0.1661 -0.2600
  124OSM     OF13234   5.672   2.717   5.641 -0.2317 -0.4037 -0.3888
  124OSM    C2F13235   5.884   2.830   5.645 -0.5174 -0.2840  0.4894
  124OSM    H2F13236   5.843   2.877   5.553 -1.0185 -0.7893  0.4569
  124OSM    H2G13237   5.978   2.778   5.621 -0.3974 -0.5414  1.4825
  124OSM    C3F13238   5.918   2.938   5.752  0.6271 -0.1282  0.0172
  124OSM    H3F13239   5.989   3.013   5.710 -1.1004  1.2182 -0.5829
  124OSM    H3G13240   5.948   2.885   5.845  1.2246  1.2805  0.6473
  124OSM    C4F13241   5.804   3.039   5.794 -0.3232  0.0965  0.7749
  124OSM    H4F13242   5.736   3.043   5.707 -2.0136  0.9547  2.1137
  124OSM    H4G13243   5.845   3.140   5.812 -1.8765  0.8808 -0.0110
  124OSM    C5F13244   5.730   2.990   5.925 -0.2815 -0.5238 -0.4959
  124OSM    H5F13245   5.811   3.004   6.000  0.9067  1.4332 -2.1063
  124OSM    H5G13246   5.697   2.884   5.912  1.3469 -0.8492 -2.2261
  124OSM    C6F13247   5.609   3.073   5.952 -0.2441  0.2747 -0.2715
  124OSM    H6F13248   5.541   3.045   5.869  1.8871  1.8475 -2.6057
  124OSM    H6G13249   5.651   3.176   5.945  0.7205 -0.1962 -1.3884
  124OSM    C7F13250   5.547   3.044   6.091 -0.0143  0.8645  1.1198
  124OSM    H7F13251   5.627   3.054   6.168  0.6638 -1.9676  0.8167
  124OSM    H7G13252   5.523   2.936   6.091 -1.2161  1.1177  1.2151
  124OSM    C8F13253   5.418   3.121   6.117  1.1557  0.3602  0.1749
  124OSM    H8F13254   5.443   3.228   6.097  1.4855 -0.1282 -2.1005
  124OSM    H8G13255   5.412   3.116   6.228 -3.0434 -1.5283 -0.0553
  124OSM    C9F13256   5.304   3.064   6.032 -0.1950  0.3584 -0.4990
  124OSM    H9F13257   5.282   3.116   5.938 -1.1132  0.9316  0.0242
  124OSM   C10F13258   5.216   2.966   6.061 -0.4781 -0.6382 -0.5015
  124OSM   H10F13259   5.127   2.947   5.999 -0.6461 -0.3352 -0.3548
  124OSM   C11F13260   5.207   2.895   6.196  0.1213 -0.6488 -0.4422
  124OSM   H11F13261   5.160   2.956   6.276  2.0912 -0.4339  0.5823
  124OSM   H11G13262   5.309   2.863   6.225  0.2232 -1.1611 -1.3411
  124OSM   C12F13263   5.109   2.774   6.176  0.2599 -0.9023  0.9299
  124OSM   H12F13264   5.141   2.721   6.084  0.9043  1.1328 -0.0525
  124OSM   H12G13265   5.011   2.825   6.161  2.7236  4.6053  2.3590
  124OSM   C13F13266   5.102   2.680   6.292 -0.0819  0.4912 -0.0151
  124OSM   H13F13267   5.199   2.626   6.304  0.3331  1.3020  0.2784
  124OSM   H13G13268   5.020   2.606   6.277  0.0038  0.3374  0.2729
  124OSM   C14F13269   5.087   2.747   6.430 -0.6170 -0.4760  0.4880
  124OSM   H14F13270   4.985   2.788   6.446  0.3122  2.1440 -0.1173
  124OSM   H14G13271   5.163   2.827   6.433 -0.3182 -0.7441  0.0310
  124OSM   C15F13272   5.107   2.662   6.562  0.4925  0.3168  0.1844
  124OSM   H15F13273   5.213   2.658   6.594  0.7594  0.9327 -0.6110
  124OSM   H15G13274   5.078   2.557   6.538 -0.7108  0.4676  0.9310
  124OSM   C16F13275   5.017   2.716   6.679  0.7580 -0.4479  0.1849
  124OSM   H16F13276   4.910   2.712   6.651  0.7609  0.0240  0.0959
  124OSM   H16G13277   5.050   2.821   6.696 -0.6477  0.1818 -0.8552
  124OSM   C17F13278   5.028   2.634   6.812  0.6109  0.1126 -0.2442
  124OSM   H17F13279   5.131   2.631   6.853  1.2349  2.4574 -1.5621
  124OSM   H17G13280   5.000   2.528   6.793  1.2712  0.1736 -1.5420
  124OSM   C18F13281   4.931   2.706   6.910  0.2120 -0.0218  0.2372
  124OSM   H18F13282   4.833   2.732   6.866  0.8726  0.9149 -0.7015
  124OSM   H18G13283   4.977   2.804   6.934  0.3392  0.0712 -0.3699
  124OSM   H18H13284   4.914   2.658   7.008  1.4518  0.9688  0.9582
  125OSM      N13285   5.358   3.696   5.733 -0.0091 -0.0239 -0.0471
  125OSM    C1513286   5.430   3.791   5.640  0.3964  0.3117  0.6975
  125OSM   H15A13287   5.413   3.891   5.677 -1.2999 -0.6914  2.7744
  125OSM   H15B13288   5.382   3.794   5.543  1.8625  0.2574 -0.0435
  125OSM   H15C13289   5.534   3.764   5.641  0.5472  0.8685  2.8569
  125OSM    C1413290   5.210   3.733   5.710 -0.4502 -0.1346  0.4787
  125OSM   H14A13291   5.185   3.830   5.750 -0.1145  0.2749 -0.2946
  125OSM   H14B13292   5.144   3.663   5.759 -0.4885 -0.8892 -0.6238
  125OSM   H14C13293   5.194   3.717   5.604  0.2057 -1.5939  0.5879
  125OSM    C1313294   5.372   3.558   5.689 -0.1741  0.4259  0.6712
  125OSM   H13A13295   5.473   3.521   5.692  0.0874  1.1931  1.3949
  125OSM   H13B13296   5.343   3.544   5.585 -0.2668  0.0700  0.7455
  125OSM   H13C13297   5.319   3.485   5.748 -0.1595 -0.6371 -0.5910
  125OSM    C1213298   5.399   3.729   5.876  0.3172  0.3302 -0.7930
  125OSM   H12A13299   5.500   3.694   5.888  0.3933  1.3062  1.7858
  125OSM   H12B13300   5.335   3.666   5.935 -0.1398  2.6420  1.2599
  125OSM    C1113301   5.387   3.874   5.929 -0.4391  0.3293  0.2856
  125OSM   H11A13302   5.373   3.881   6.039  3.3454  0.3499  0.8594
  125OSM   H11B13303   5.288   3.907   5.892 -1.2083 -0.4257  1.6112
  125OSM      P13304   5.629   3.945   5.942 -0.4164 -0.2207  0.0687
  125OSM    O1313305   5.671   3.801   5.938 -0.5071 -0.5665 -0.1550
  125OSM    O1413306   5.725   4.040   5.881 -0.4890 -0.0610  0.0637
  125OSM    O1113307   5.598   3.979   6.095  0.3185 -0.1303  0.6656
  125OSM    O1213308   5.488   3.960   5.877  1.0301 -0.1296 -0.0773
  125OSM    C1S13309   5.607   4.119   6.132 -0.2466 -0.0348 -0.2811
  125OSM    H1S13310   5.691   4.164   6.075 -0.5981  1.4653  0.3602
  125OSM    H1T13311   5.640   4.130   6.237 -3.3277 -4.6099  1.2952
  125OSM     NF13312   5.503   4.338   6.182  0.0825 -0.0965  0.3716
  125OSM    HNF13313   5.435   4.372   6.245  0.8001  0.9106  0.6113
  125OSM    C2S13314   5.478   4.203   6.130 -0.1256 -0.2834  0.0513
  125OSM    H2S13315   5.442   4.200   6.025 -0.6147 -0.3960  0.2198
  125OSM    C3S13316   5.370   4.133   6.206  0.5389  0.3423  0.3310
  125OSM    H3S13317   5.349   4.030   6.171 -0.9573  0.3354  1.1672
  125OSM     O313318   5.245   4.209   6.206 -0.2744 -0.6255 -0.1321
  125OSM    HO313319   5.268   4.292   6.163  1.4867 -2.3186 -2.6081
  125OSM    C4S13320   5.410   4.118   6.352  0.5813 -0.0584 -0.6529
  125OSM    H4S13321   5.416   4.214   6.406  0.2190 -0.2639 -0.2439
  125OSM    C5S13322   5.407   4.006   6.428  0.9355  0.9852 -0.3158
  125OSM    H5S13323   5.385   3.913   6.374  2.7005  0.6824 -0.5261
  125OSM    C6S13324   5.431   3.996   6.572  0.3024  0.1610 -0.1976
  125OSM    H6S13325   5.489   3.902   6.585 -0.1631 -0.3272 -1.5915
  125OSM    H6T13326   5.332   3.993   6.623  0.7425 -1.0340  0.5888
  125OSM    C7S13327   5.500   4.112   6.635  0.3039  0.8737  0.4433
  125OSM    H7S13328   5.436   4.200   6.612  1.0075  0.5587 -3.0179
  125OSM    H7T13329   5.602   4.136   6.598  0.6576 -1.1913 -0.0058
  125OSM    C8S13330   5.504   4.107   6.789  0.8971 -0.4597  0.1965
  125OSM    H8S13331   5.565   4.018   6.816  0.9103  0.0865  2.0071
  125OSM    H8T13332   5.399   4.098   6.824  0.8070 -1.4110 -0.3196
  125OSM    C9S13333   5.557   4.240   6.847 -0.2390 -0.1273  0.4054
  125OSM    H9S13334   5.508   4.324   6.792  0.4638 -1.5573 -2.5413
  125OSM    H9T13335   5.663   4.261   6.823 -0.4579 -0.0979 -0.5688
  125OSM   C10S13336   5.523   4.250   6.995  0.5629  0.3623 -0.7286
  125OSM   H10S13337   5.568   4.159   7.039  0.3350  0.6575  0.1255
  125OSM   H10T13338   5.413   4.247   7.013  0.5487  0.5033 -0.7888
  125OSM   C11S13339   5.564   4.372   7.087 -0.2332  0.3286 -0.0184
  125OSM   H11S13340   5.497   4.460   7.072  0.1144  0.5728 -0.1423
  125OSM   H11T13341   5.667   4.397   7.053 -1.0119  2.5136 -0.8944
  125OSM   C12S13342   5.563   4.333   7.236  0.5434  0.4710 -0.0803
  125OSM   H12S13343   5.623   4.241   7.252  2.1229  1.6782  1.0925
  125OSM   H12T13344   5.460   4.322   7.276 -0.0718 -0.6487 -1.8979
  125OSM   C13S13345   5.618   4.440   7.327 -0.8062  0.6659 -0.2335
  125OSM   H13S13346   5.578   4.536   7.288  1.3375  1.5859 -0.2321
  125OSM   H13T13347   5.728   4.448   7.309 -0.4934  0.1576  1.3488
  125OSM   C14S13348   5.595   4.416   7.474 -0.1157 -0.6243  0.2195
  125OSM   H14S13349   5.659   4.329   7.504  1.1556 -0.4292 -1.8416
  125OSM   H14T13350   5.486   4.401   7.490 -0.1543 -1.3381 -0.6310
  125OSM   C15S13351   5.636   4.538   7.556 -0.0769  0.0592 -0.1242
  125OSM   H15S13352   5.588   4.630   7.514 -2.0375 -1.4340 -1.2667
  125OSM   H15T13353   5.746   4.547   7.549 -0.1862  0.8009 -1.1590
  125OSM   C16S13354   5.599   4.514   7.701 -0.6803  0.1062  0.3344
  125OSM   H16S13355   5.656   4.425   7.735  0.6098  0.3976 -0.9780
  125OSM   H16T13356   5.489   4.498   7.711 -0.7040  1.0819  1.7505
  125OSM   C17S13357   5.632   4.631   7.797 -0.4189  0.9166  0.4230
  125OSM   H17S13358   5.589   4.725   7.756 -0.8389  0.9503  0.9400
  125OSM   H17T13359   5.742   4.644   7.807 -0.1964 -0.7094  0.2651
  125OSM   C18S13360   5.592   4.604   7.938  0.5759  0.3155 -0.9249
  125OSM   H18S13361   5.594   4.494   7.952 -0.4551  0.5811  1.4213
  125OSM   H18T13362   5.485   4.631   7.956  0.2012  0.6405 -3.3915
  125OSM   H18U13363   5.660   4.662   8.003 -0.1691  1.1160 -0.8419
  125OSM    C1F13364   5.599   4.422   6.142 -0.5169 -1.0683  0.3088
  125OSM     OF13365   5.654   4.406   6.032  0.2959 -0.2287 -0.1307
  125OSM    C2F13366   5.625   4.543   6.225 -0.2749  0.0643  0.3329
  125OSM    H2F13367   5.533   4.605   6.238  0.1573  0.6164  0.7795
  125OSM    H2G13368   5.706   4.604   6.181 -0.1530 -0.6283 -0.4207
  125OSM    C3F13369   5.670   4.498   6.371  0.4568 -0.7423 -0.5990
  125OSM    H3F13370   5.754   4.426   6.363  1.0115 -0.1006 -0.6135
  125OSM    H3G13371   5.582   4.443   6.412 -0.5334  2.0316  1.1112
  125OSM    C4F13372   5.707   4.627   6.453  0.4812  0.1639  0.7170
  125OSM    H4F13373   5.621   4.697   6.450 -0.5524 -1.1571 -1.0770
  125OSM    H4G13374   5.804   4.670   6.420  1.3871 -4.0472 -2.6208
  125OSM    C5F13375   5.719   4.589   6.602  0.1415  0.1119  0.3485
  125OSM    H5F13376   5.805   4.522   6.621 -0.5221  0.0504  3.3537
  125OSM    H5G13377   5.626   4.540   6.640  0.0398 -1.5141 -1.8628
  125OSM    C6F13378   5.742   4.708   6.694  0.0637 -0.6022  0.2935
  125OSM    H6F13379   5.661   4.777   6.662  0.3117  0.1451  1.2471
  125OSM    H6G13380   5.836   4.766   6.684 -0.7690  1.1544  2.1040
  125OSM    C7F13381   5.734   4.671   6.849  0.3454 -0.6186  0.3500
  125OSM    H7F13382   5.837   4.650   6.885 -0.2964 -1.6524  1.6507
  125OSM    H7G13383   5.669   4.581   6.859 -1.3884  0.5275 -0.2808
  125OSM    C8F13384   5.658   4.778   6.936 -0.4545  0.0694 -0.2957
  125OSM    H8F13385   5.550   4.781   6.911 -0.4187 -2.1787 -0.8045
  125OSM    H8G13386   5.683   4.882   6.903 -2.7654  1.1397  1.2167
  125OSM    C9F13387   5.678   4.743   7.082  0.4186  0.5061 -0.0414
  125OSM    H9F13388   5.752   4.667   7.110  0.0789 -0.6022 -2.0682
  125OSM   C10F13389   5.593   4.785   7.181  0.8422 -0.3224 -0.2681
  125OSM   H10F13390   5.621   4.754   7.283 -0.0638  2.2423  0.7935
  125OSM   C11F13391   5.475   4.876   7.165  0.0899 -0.5273 -0.2198
  125OSM   H11F13392   5.460   4.916   7.062 -0.0309 -0.6027 -0.2312
  125OSM   H11G13393   5.469   4.968   7.226  0.6765  0.3053 -1.3979
  125OSM   C12F13394   5.350   4.792   7.207 -0.6764  0.0176 -0.6260
  125OSM   H12F13395   5.254   4.846   7.191 -0.7960 -0.5750 -2.0017
  125OSM   H12G13396   5.345   4.771   7.317 -0.2954 -1.0692 -0.8015
  125OSM   C13F13397   5.326   4.657   7.129 -1.2786 -0.2895  0.0440
  125OSM   H13F13398   5.375   4.568   7.175  1.0149  1.5187  1.2327
  125OSM   H13G13399   5.352   4.656   7.021 -2.5268  0.0457 -0.2626
  125OSM   C14F13400   5.178   4.627   7.128 -0.4301  0.3846  0.0529
  125OSM   H14F13401   5.159   4.537   7.065 -0.7022  0.4498  0.0388
  125OSM   H14G13402   5.131   4.708   7.068 -0.0572  1.5437  1.2851
  125OSM   C15F13403   5.113   4.613   7.270  0.2500  0.1563 -0.1398
  125OSM   H15F13404   5.012   4.566   7.260  1.1110 -1.6752 -0.5627
  125OSM   H15G13405   5.116   4.718   7.303  0.6611  0.5407 -1.3418
  125OSM   C16F13406   5.189   4.529   7.383  0.1805  0.3431 -0.7829
  125OSM   H16F13407   5.295   4.562   7.388 -0.2211  1.5291  0.0594
  125OSM   H16G13408   5.175   4.423   7.349 -0.5183  0.1112  0.2064
  125OSM   C17F13409   5.131   4.546   7.527 -0.2410  0.0884 -0.6368
  125OSM   H17F13410   5.088   4.447   7.553  1.2219 -0.2806  0.3968
  125OSM   H17G13411   5.046   4.618   7.535 -1.6661 -1.5732 -0.6274
  125OSM   C18F13412   5.233   4.591   7.626  0.2205 -0.2373 -0.0877
  125OSM   H18F13413   5.183   4.575   7.724  0.6051 -0.2995  0.1014
  125OSM   H18G13414   5.268   4.695   7.606 -0.8334 -0.1291 -1.4513
  125OSM   H18H13415   5.321   4.525   7.606  0.9891  0.8711 -0.3926
  126OSM      N13416   2.243   3.702   5.897 -0.1682  0.3150 -0.4143
  126OSM    C1513417   2.136   3.769   5.822  0.1643  0.5510 -0.6270
  126OSM   H15A13418   2.171   3.841   5.750 -0.8238  2.3802  0.6574
  126OSM   H15B13419   2.067   3.830   5.880  0.2228  0.9929 -1.0177
  126OSM   H15C13420   2.076   3.695   5.772  1.0899  0.2279 -1.2669
  126OSM    C1413421   2.321   3.594   5.815  0.4056 -0.1886 -0.1430
  126OSM   H14A13422   2.272   3.498   5.817 -3.6548  1.7643  0.8227
  126OSM   H14B13423   2.423   3.580   5.845 -0.0013  0.1049  1.4271
  126OSM   H14C13424   2.320   3.630   5.713 -1.1015 -3.2687 -1.2819
  126OSM    C1313425   2.340   3.813   5.935 -0.5325  0.2205  0.3283
  126OSM   H13A13426   2.413   3.771   6.003  0.1560  1.2273  0.2144
  126OSM   H13B13427   2.287   3.896   5.979  0.6054  2.4438 -2.3814
  126OSM   H13C13428   2.395   3.848   5.850  0.5053 -0.6393  0.6345
  126OSM    C1213429   2.187   3.641   6.022 -0.4384  0.0850 -0.2930
  126OSM   H12A13430   2.167   3.711   6.101 -1.5706  0.3531 -0.8192
  126OSM   H12B13431   2.268   3.581   6.064 -2.5093 -1.2883  1.8645
  126OSM    C1113432   2.060   3.549   5.999  0.3650 -0.0656  0.7256
  126OSM   H11A13433   1.984   3.618   5.957 -1.0689 -0.9039  1.8982
  126OSM   H11B13434   2.027   3.513   6.099  0.8120 -0.3591  0.7678
  126OSM      P13435   1.978   3.379   5.832  0.3882 -0.1539  0.0670
  126OSM    O1313436   1.915   3.482   5.748 -0.0141 -0.7413  0.5833
  126OSM    O1413437   2.025   3.260   5.760  0.8392 -0.1709 -0.2396
  126OSM    O1113438   1.874   3.332   5.951  0.6004  0.1455 -0.6261
  126OSM    O1213439   2.099   3.450   5.909  0.0245 -0.1329 -0.1639
  126OSM    C1S13440   1.926   3.230   6.045 -0.1991  0.7211 -0.5506
  126OSM    H1S13441   2.030   3.204   6.019 -0.1171 -0.7466  1.1301
  126OSM    H1T13442   1.876   3.133   6.024  2.9140 -1.7502  2.8307
  126OSM     NF13443   1.966   3.181   6.275 -0.2427 -0.1207  0.8409
  126OSM    HNF13444   1.905   3.125   6.331 -2.4744  0.1686 -1.2354
  126OSM    C2S13445   1.889   3.269   6.186  0.0890  0.4786  0.4726
  126OSM    H2S13446   1.929   3.370   6.209  0.0884  0.4827  0.4548
  126OSM    C3S13447   1.731   3.271   6.210  0.5698 -0.5574 -0.3339
  126OSM    H3S13448   1.695   3.182   6.155  1.7138 -0.2056 -1.6751
  126OSM     O313449   1.681   3.382   6.135  0.3560  0.3671 -0.2623
  126OSM    HO313450   1.733   3.395   6.056 -2.8574  0.6336 -2.4301
  126OSM    C4S13451   1.687   3.290   6.345  0.5203 -0.7828 -0.0269
  126OSM    H4S13452   1.732   3.375   6.399  0.4449 -0.7819  0.0331
  126OSM    C5S13453   1.614   3.204   6.416  0.1758  0.3586 -0.9418
  126OSM    H5S13454   1.597   3.107   6.367 -0.3817 -0.7145  1.2950
  126OSM    C6S13455   1.584   3.214   6.557  0.4866 -0.4682 -0.3897
  126OSM    H6S13456   1.477   3.193   6.573  0.1629  2.1751  1.1849
  126OSM    H6T13457   1.594   3.320   6.587  2.0558 -0.5075 -0.6803
  126OSM    C7S13458   1.672   3.131   6.646 -0.5350  0.6562 -0.5204
  126OSM    H7S13459   1.684   3.189   6.740  1.3678  0.9055 -0.8955
  126OSM    H7T13460   1.775   3.137   6.604 -1.2906  2.3372 -2.2327
  126OSM    C8S13461   1.631   2.986   6.652  0.1083  0.0529 -0.1250
  126OSM    H8S13462   1.612   2.943   6.551  0.7556  0.0644 -0.2538
  126OSM    H8T13463   1.534   2.991   6.706  0.5466 -0.2623  0.7021
  126OSM    C9S13464   1.726   2.892   6.731  0.1965  0.2899 -0.0051
  126OSM    H9S13465   1.825   2.879   6.682 -0.9104 -1.5757 -1.8175
  126OSM    H9T13466   1.684   2.789   6.731 -1.4689  0.9385 -2.2419
  126OSM   C10S13467   1.737   2.926   6.879  0.5965 -0.7845 -0.3490
  126OSM   H10S13468   1.634   2.939   6.919  0.9135  0.2984  0.1441
  126OSM   H10T13469   1.788   3.022   6.902  0.2075 -0.4614 -0.8058
  126OSM   C11S13470   1.791   2.813   6.977  0.0532 -0.7040 -0.4360
  126OSM   H11S13471   1.896   2.786   6.951  0.4828  1.9441 -1.7061
  126OSM   H11T13472   1.733   2.719   6.965  0.3765 -0.9048 -0.4292
  126OSM   C12S13473   1.798   2.852   7.124  0.6855  0.0083  0.3522
  126OSM   H12S13474   1.694   2.856   7.164 -0.1165 -0.8422 -1.5641
  126OSM   H12T13475   1.846   2.951   7.140  1.7347 -0.5539  0.7245
  126OSM   C13S13476   1.874   2.745   7.198 -0.5917 -0.1349 -0.0828
  126OSM   H13S13477   1.984   2.744   7.177 -0.3305  0.8911  1.2142
  126OSM   H13T13478   1.837   2.644   7.170 -0.2838 -0.0261 -0.9216
  126OSM   C14S13479   1.863   2.765   7.348 -0.0355  1.0522  0.1114
  126OSM   H14S13480   1.758   2.759   7.381  0.3636  0.7848  1.3431
  126OSM   H14T13481   1.901   2.868   7.370 -0.3784  1.7815 -2.4881
  126OSM   C15S13482   1.951   2.671   7.426 -0.0018  0.0223  0.4179
  126OSM   H15S13483   2.054   2.683   7.385 -0.8285  0.6571 -1.5400
  126OSM   H15T13484   1.932   2.563   7.409 -0.1482  0.0028  0.7073
  126OSM   C16S13485   1.955   2.698   7.578  0.0746 -0.2038  0.2327
  126OSM   H16S13486   1.867   2.665   7.638  0.3426  0.5957  1.0852
  126OSM   H16T13487   1.982   2.804   7.597 -1.6373  0.7279 -2.3831
  126OSM   C17S13488   2.061   2.605   7.639 -0.0366  0.2552  0.2201
  126OSM   H17S13489   2.160   2.635   7.598 -0.1520  2.3257  1.4275
  126OSM   H17T13490   2.041   2.499   7.610  1.4836 -0.3963  1.4496
  126OSM   C18S13491   2.074   2.610   7.794  0.7469 -0.2010  0.0352
  126OSM   H18S13492   2.153   2.546   7.839  0.6417 -0.9845 -0.8639
  126OSM   H18T13493   1.982   2.613   7.856  1.5598 -0.1684  1.2493
  126OSM   H18U13494   2.108   2.713   7.816  2.5494 -0.7657 -0.0447
  126OSM    C1F13495   2.104   3.180   6.278 -0.7068 -0.1148 -0.7929
  126OSM     OF13496   2.165   3.273   6.232 -0.1391  0.1692 -0.8166
  126OSM    C2F13497   2.168   3.064   6.352 -0.6169 -0.0843  0.1314
  126OSM    H2F13498   2.264   3.034   6.304  0.1359 -1.0592  2.1733
  126OSM    H2G13499   2.098   2.979   6.334 -1.6564  0.6913  0.4467
  126OSM    C3F13500   2.168   3.080   6.499  0.3213 -0.6859  0.2862
  126OSM    H3F13501   2.070   3.102   6.546  0.4860 -0.7597  0.6716
  126OSM    H3G13502   2.240   3.160   6.527  0.2756 -0.5134 -0.0983
  126OSM    C4F13503   2.227   2.957   6.569 -0.2098  0.4501  0.2591
  126OSM    H4F13504   2.325   2.922   6.530 -0.4204 -0.6774  0.7182
  126OSM    H4G13505   2.159   2.870   6.554  1.8432 -0.8875 -1.4803
  126OSM    C5F13506   2.244   2.985   6.721 -0.4970  0.4491 -0.2121
  126OSM    H5F13507   2.150   2.997   6.780 -1.0176 -1.2874 -0.6684
  126OSM    H5G13508   2.314   3.071   6.728  1.1245 -0.8434 -0.4119
  126OSM    C6F13509   2.330   2.869   6.775 -0.4686  1.0873 -0.3125
  126OSM    H6F13510   2.419   2.848   6.713  0.0738  1.6751  0.2624
  126OSM    H6G13511   2.262   2.781   6.775 -0.4735  1.0418  2.2387
  126OSM    C7F13512   2.380   2.897   6.916  0.4052  0.0274 -0.0109
  126OSM    H7F13513   2.295   2.929   6.980 -0.0748 -3.0076  0.9558
  126OSM    H7G13514   2.449   2.984   6.918  1.8583 -1.0912 -0.8267
  126OSM    C8F13515   2.452   2.776   6.977  0.5157  0.2671 -0.2312
  126OSM    H8F13516   2.559   2.805   6.968  0.9735 -0.7116  1.9028
  126OSM    H8G13517   2.443   2.678   6.925  0.3980 -0.7262  1.6316
  126OSM    C9F13518   2.420   2.749   7.116 -0.2793  0.5676  0.4762
  126OSM    H9F13519   2.334   2.680   7.119  0.5813 -0.5062  0.8291
  126OSM   C10F13520   2.466   2.811   7.223 -0.6628 -0.1914  0.3813
  126OSM   H10F13521   2.437   2.773   7.322  2.6294 -1.9032  0.7382
  126OSM   C11F13522   2.569   2.930   7.224  0.1347 -0.4893 -0.1233
  126OSM   H11F13523   2.532   3.009   7.293  1.4531 -1.2112  1.4302
  126OSM   H11G13524   2.582   2.972   7.121 -0.4453 -2.2003 -0.9105
  126OSM   C12F13525   2.697   2.896   7.297 -0.4424  0.1798 -0.3825
  126OSM   H12F13526   2.760   2.828   7.236  0.5536  1.5299 -0.8800
  126OSM   H12G13527   2.668   2.834   7.385  2.1739  0.7994  0.9734
  126OSM   C13F13528   2.782   3.007   7.361 -1.6012  0.2769 -0.0162
  126OSM   H13F13529   2.733   3.089   7.417  0.1039  1.4848 -0.2488
  126OSM   H13G13530   2.858   3.045   7.289 -2.6628  1.0087 -0.7638
  126OSM   C14F13531   2.884   2.941   7.460 -0.2636 -0.2437  0.6223
  126OSM   H14F13532   2.933   2.854   7.412 -0.3237 -1.2020  2.2861
  126OSM   H14G13533   2.818   2.900   7.539 -0.0733 -1.3586  0.2149
  126OSM   C15F13534   2.973   3.045   7.520  0.1224  1.0187 -0.3012
  126OSM   H15F13535   2.914   3.137   7.541 -0.2512  0.6725  0.1800
  126OSM   H15G13536   3.040   3.085   7.441  1.2544  1.5225  0.8921
  126OSM   C16F13537   3.057   2.991   7.637  0.1798 -0.2943  0.1639
  126OSM   H16F13538   2.995   2.977   7.729  0.8139  3.4367  1.2658
  126OSM   H16G13539   3.141   3.059   7.662  0.6950 -0.6532 -0.5821
  126OSM   C17F13540   3.135   2.865   7.603 -0.8590  0.4382 -0.4418
  126OSM   H17F13541   3.169   2.880   7.499  2.8398 -0.3319  0.5947
  126OSM   H17G13542   3.073   2.772   7.602  0.3065 -0.3502 -2.4638
  126OSM   C18F13543   3.260   2.841   7.693  0.5038 -0.1983 -0.1762
  126OSM   H18F13544   3.328   2.927   7.674 -2.3429  2.4001  1.0354
  126OSM   H18G13545   3.306   2.742   7.674 -0.6265 -1.0845  1.6965
  126OSM   H18H13546   3.225   2.842   7.798  0.7203 -1.8208 -0.0858
  127OSM      N13547   3.962   1.626   5.847 -0.0343 -0.2910  0.4467
  127OSM    C1513548   3.931   1.537   5.963 -0.3277  0.5616 -0.2628
  127OSM   H15A13549   3.958   1.597   6.049 -1.8752  0.2076  0.4797
  127OSM   H15B13550   3.983   1.443   5.970  0.9670  1.3501  1.3091
  127OSM   H15C13551   3.829   1.503   5.970 -0.1192  0.2116  1.4983
  127OSM    C1413552   3.940   1.550   5.720 -0.6378  0.2686 -0.2881
  127OSM   H14A13553   3.934   1.611   5.631  0.1308 -0.4048 -0.8159
  127OSM   H14B13554   3.845   1.500   5.729  0.0738 -0.9858  0.4458
  127OSM   H14C13555   4.004   1.463   5.722 -1.3169 -0.2609 -1.0222
  127OSM    C1313556   3.875   1.744   5.862 -1.3307  0.0701  0.1527
  127OSM   H13A13557   3.768   1.724   5.860 -1.1870 -0.7727  0.5487
  127OSM   H13B13558   3.889   1.807   5.776 -1.3845  0.9526  0.7772
  127OSM   H13C13559   3.893   1.798   5.954 -0.8640  2.0806 -1.0961
  127OSM    C1213560   4.109   1.667   5.843 -0.1024 -0.6954 -0.7026
  127OSM   H12A13561   4.158   1.571   5.846 -0.7417 -1.0133 -0.4276
  127OSM   H12B13562   4.132   1.728   5.929 -1.0357 -1.7312  0.2933
  127OSM    C1113563   4.166   1.750   5.723 -0.0391 -0.2544 -0.0371
  127OSM   H11A13564   4.128   1.712   5.625 -0.6739 -0.7589  0.3994
  127OSM   H11B13565   4.275   1.729   5.729 -0.0448  0.4183  2.9006
  127OSM      P13566   4.215   1.984   5.824  0.0424 -0.2607 -0.4177
  127OSM    O1313567   4.332   2.018   5.743  0.7704  0.4734  0.4019
  127OSM    O1413568   4.132   2.096   5.881 -0.6390 -0.1453 -0.6057
  127OSM    O1113569   4.269   1.886   5.940 -1.0437 -0.4044 -0.6541
  127OSM    O1213570   4.128   1.889   5.736  0.2679  0.1975  0.4347
  127OSM    C1S13571   4.212   1.897   6.070 -0.4031 -0.2029  0.0222
  127OSM    H1S13572   4.106   1.869   6.054 -0.1775 -0.5539 -0.8328
  127OSM    H1T13573   4.213   2.002   6.107  0.8344 -0.6350  1.2570
  127OSM     NF13574   4.205   1.817   6.300 -0.2974 -0.1869 -0.2348
  127OSM    HNF13575   4.259   1.867   6.367 -2.4734 -1.3127  2.4465
  127OSM    C2S13576   4.275   1.804   6.176 -0.2990  0.3606  0.3976
  127OSM    H2S13577   4.264   1.701   6.135 -0.7131  0.9987 -1.1052
  127OSM    C3S13578   4.434   1.832   6.193  0.6520  0.1251  0.3585
  127OSM    H3S13579   4.442   1.938   6.225 -1.2198  0.7206 -1.0846
  127OSM     O313580   4.503   1.819   6.068 -0.1698  0.1026  0.6337
  127OSM    HO313581   4.439   1.846   6.002 -1.2950  1.1678  2.1189
  127OSM    C4S13582   4.501   1.739   6.292  0.5166 -0.1567  0.3963
  127OSM    H4S13583   4.541   1.647   6.247  0.7523  0.1386  0.0015
  127OSM    C5S13584   4.538   1.777   6.424  0.4589  0.0570  0.7282
  127OSM    H5S13585   4.518   1.883   6.444 -1.9045  0.1444 -1.7038
  127OSM    C6S13586   4.610   1.697   6.530  0.1569  0.2256 -0.1689
  127OSM    H6S13587   4.708   1.742   6.557  1.0965 -0.3453 -2.5677
  127OSM    H6T13588   4.631   1.595   6.493 -0.8822 -0.4608  1.0641
  127OSM    C7S13589   4.530   1.667   6.660 -0.4003  0.3286  0.4003
  127OSM    H7S13590   4.428   1.629   6.636  0.1386 -0.9005  0.0245
  127OSM    H7T13591   4.519   1.769   6.701  1.2105  0.6142  0.1591
  127OSM    C8S13592   4.594   1.587   6.770  0.0832  0.7427 -0.0382
  127OSM    H8S13593   4.696   1.628   6.786 -0.3726  1.6352  0.5694
  127OSM    H8T13594   4.608   1.480   6.743  0.2422  1.2606 -2.0926
  127OSM    C9S13595   4.514   1.588   6.901  0.4587 -0.0348 -0.3167
  127OSM    H9S13596   4.411   1.546   6.889  1.5644 -3.1551  0.5575
  127OSM    H9T13597   4.505   1.687   6.950  4.7073 -0.3734  1.3350
  127OSM   C10S13598   4.581   1.502   7.022 -0.3599  0.7851  0.0016
  127OSM   H10S13599   4.678   1.552   7.044 -1.3504  3.0128 -0.5534
  127OSM   H10T13600   4.602   1.399   6.986  1.4284  1.0706  0.2057
  127OSM   C11S13601   4.487   1.486   7.137  0.2358  0.1486 -0.6850
  127OSM   H11S13602   4.479   1.590   7.174 -1.2059  0.0554 -0.7240
  127OSM   H11T13603   4.541   1.419   7.208 -0.6547  0.2109  0.0531
  127OSM   C12S13604   4.342   1.431   7.109 -0.4086 -0.1767 -0.0544
  127OSM   H12S13605   4.354   1.372   7.016  0.0108 -0.2702  0.0574
  127OSM   H12T13606   4.271   1.510   7.078  0.5731  0.5720 -0.4351
  127OSM   C13S13607   4.277   1.355   7.228 -0.3509  0.3654 -0.0179
  127OSM   H13S13608   4.265   1.427   7.311  2.8229  1.7929 -0.7116
  127OSM   H13T13609   4.349   1.275   7.256  0.0484  0.9002  0.5160
  127OSM   C14S13610   4.142   1.294   7.183 -0.0483  0.4074 -0.7431
  127OSM   H14S13611   4.099   1.243   7.272  1.2770  0.9379  0.2089
  127OSM   H14T13612   4.159   1.210   7.112 -4.0367 -3.3817  2.4684
  127OSM   C15S13613   4.035   1.400   7.139  0.1280  0.0584  0.6250
  127OSM   H15S13614   4.078   1.434   7.042  0.2830  1.9101  1.3193
  127OSM   H15T13615   4.032   1.476   7.220 -0.4758  0.6538  0.0506
  127OSM   C16S13616   3.898   1.356   7.112  0.0626 -0.1948  0.4801
  127OSM   H16S13617   3.872   1.297   7.203 -0.1679 -0.0273  0.5249
  127OSM   H16T13618   3.897   1.296   7.019  3.3242 -2.2360  1.6968
  127OSM   C17S13619   3.816   1.479   7.082  0.2515 -0.2014 -0.4388
  127OSM   H17S13620   3.878   1.547   7.020  0.3196  0.3265  0.2069
  127OSM   H17T13621   3.778   1.529   7.174  1.2792  0.2476 -0.2533
  127OSM   C18S13622   3.694   1.447   6.997  0.5020  0.4206  0.1864
  127OSM   H18S13623   3.620   1.530   6.990  0.3662  0.4920  2.2276
  127OSM   H18T13624   3.652   1.349   7.030  2.7931 -0.3093  0.9731
  127OSM   H18U13625   3.728   1.423   6.894  0.5183 -2.5964  0.8481
  127OSM    C1F13626   4.075   1.775   6.312 -0.4045 -0.1437 -0.1274
  127OSM     OF13627   4.010   1.717   6.223 -0.2124 -0.1845 -0.2973
  127OSM    C2F13628   4.017   1.814   6.449  0.3838  0.4002  0.7991
  127OSM    H2F13629   3.989   1.720   6.501 -0.3843 -0.0395 -0.3889
  127OSM    H2G13630   3.920   1.864   6.429  0.0969  0.5983  2.6324
  127OSM    C3F13631   4.104   1.901   6.541 -0.9129 -0.3757 -0.4369
  127OSM    H3F13632   4.138   1.990   6.483  2.5536 -0.8455  0.7262
  127OSM    H3G13633   4.195   1.847   6.575 -1.1980  0.2918  1.4050
  127OSM    C4F13634   4.039   1.964   6.666  0.8620 -0.6074  0.5763
  127OSM    H4F13635   3.994   1.890   6.735 -0.0438  0.4146  1.0878
  127OSM    H4G13636   3.950   2.022   6.634  1.9622  0.4060 -0.7026
  127OSM    C5F13637   4.129   2.063   6.745  1.2950 -0.0623  0.5733
  127OSM    H5F13638   4.062   2.110   6.820  3.0328  0.5391  1.7694
  127OSM    H5G13639   4.173   2.142   6.681  0.6478  0.0840  0.2983
  127OSM    C6F13640   4.239   1.993   6.824 -0.1563 -0.2574  0.4437
  127OSM    H6F13641   4.312   2.070   6.856  0.3897 -0.5095 -0.1725
  127OSM    H6G13642   4.287   1.916   6.759 -0.8607  1.5842 -2.3359
  127OSM    C7F13643   4.181   1.947   6.958  0.0410  0.4603 -0.5080
  127OSM    H7F13644   4.095   1.880   6.935  1.2585 -1.6236  0.8052
  127OSM    H7G13645   4.146   2.034   7.018 -1.2616 -0.8709  0.7061
  127OSM    C8F13646   4.279   1.860   7.041 -0.6336  0.7074  0.3089
  127OSM    H8F13647   4.375   1.912   7.056  0.0355 -0.0364 -1.3048
  127OSM    H8G13648   4.296   1.765   6.986 -2.0345  0.1673  0.7854
  127OSM    C9F13649   4.210   1.820   7.164  0.6588 -0.5348 -0.9343
  127OSM    H9F13650   4.107   1.784   7.148  0.5513 -0.3401 -0.6949
  127OSM   C10F13651   4.255   1.836   7.290  0.2247 -0.4405  0.3293
  127OSM   H10F13652   4.190   1.803   7.373  0.3497 -2.6685 -0.4347
  127OSM   C11F13653   4.384   1.894   7.330  0.1559 -0.6899  0.4133
  127OSM   H11F13654   4.461   1.880   7.252  0.6367 -0.2581  0.8007
  127OSM   H11G13655   4.418   1.845   7.424 -0.6464 -1.5427  0.2636
  127OSM   C12F13656   4.374   2.051   7.354 -0.9555  0.9444 -0.5099
  127OSM   H12F13657   4.297   2.068   7.433  0.5101 -0.0446  1.1713
  127OSM   H12G13658   4.341   2.101   7.261 -2.5969 -1.1184 -1.0972
  127OSM   C13F13659   4.505   2.120   7.395  1.5591 -0.0846  0.6776
  127OSM   H13F13660   4.482   2.227   7.409 -2.8994 -0.8148 -0.1698
  127OSM   H13G13661   4.576   2.098   7.313  0.7880 -1.0568  0.2539
  127OSM   C14F13662   4.564   2.071   7.528 -0.1010  0.5574  0.7740
  127OSM   H14F13663   4.637   2.147   7.561 -0.0094  0.6438  0.3760
  127OSM   H14G13664   4.600   1.966   7.519  0.4509  0.8598 -0.5430
  127OSM   C15F13665   4.453   2.072   7.634  0.1013  0.1581 -0.7321
  127OSM   H15F13666   4.370   1.999   7.619  0.7270 -0.8125  0.5209
  127OSM   H15G13667   4.411   2.175   7.640 -0.8339 -0.2006 -1.0145
  127OSM   C16F13668   4.515   2.051   7.781 -0.7026  0.2678 -0.0872
  127OSM   H16F13669   4.613   2.102   7.783 -0.7779  0.3943  0.4406
  127OSM   H16G13670   4.542   1.943   7.789  0.1128  0.2608 -2.6743
  127OSM   C17F13671   4.431   2.125   7.890 -0.1443  0.4167 -0.4917
  127OSM   H17F13672   4.324   2.116   7.860 -0.5686  0.9856  0.8600
  127OSM   H17G13673   4.453   2.234   7.892  3.5442 -0.2316 -1.1162
  127OSM   C18F13674   4.447   2.065   8.029  0.1419  0.2329  0.7238
  127OSM   H18F13675   4.434   1.954   8.028 -1.0705  0.3469  2.0073
  127OSM   H18G13676   4.363   2.112   8.084 -0.2522 -1.2400  1.3982
  127OSM   H18H13677   4.538   2.095   8.085  0.9938 -2.1319  0.6565
  128OSM      N13678   4.609   5.574   5.900 -0.6499 -0.0941  0.1656
  128OSM    C1513679   4.689   5.646   5.804  0.0673 -0.9609  0.2223
  128OSM   H15A13680   4.790   5.653   5.841  0.6057 -0.1195 -1.3503
  128OSM   H15B13681   4.648   5.745   5.789 -0.9162 -1.5908 -1.3087
  128OSM   H15C13682   4.688   5.600   5.707 -1.5142  2.2415 -1.3763
  128OSM    C1413683   4.628   5.649   6.027 -0.4003  0.7227  0.2478
  128OSM   H14A13684   4.602   5.752   6.008 -1.1712  0.1899 -1.8003
  128OSM   H14B13685   4.734   5.639   6.042 -0.5543 -0.4520  0.5627
  128OSM   H14C13686   4.575   5.606   6.111  0.9785 -2.6485 -0.5291
  128OSM    C1313687   4.473   5.578   5.858 -0.3561  0.3577  0.1379
  128OSM   H13A13688   4.406   5.557   5.940  0.2315  0.1840  0.5757
  128OSM   H13B13689   4.448   5.503   5.785  0.1767 -0.0008  0.3289
  128OSM   H13C13690   4.449   5.674   5.814 -2.1188  0.4294  1.1830
  128OSM    C1213691   4.661   5.425   5.917 -0.1707 -0.5239  0.5881
  128OSM   H12A13692   4.629   5.378   5.825  1.5983 -0.7426  0.0663
  128OSM   H12B13693   4.602   5.376   5.993 -1.2597 -0.1269  0.0116
  128OSM    C1113694   4.810   5.392   5.923  0.3458  0.1002 -0.3829
  128OSM   H11A13695   4.865   5.401   5.827  1.2252  0.1041  0.1231
  128OSM   H11B13696   4.820   5.283   5.943  0.2737  0.5502  2.3534
  128OSM      P13697   5.006   5.513   6.015 -0.0807  0.5936  0.0032
  128OSM    O1313698   5.083   5.388   5.990 -0.2625  0.4216 -0.5814
  128OSM    O1413699   5.003   5.615   5.907  0.1356 -0.2824  0.2271
  128OSM    O1113700   5.050   5.586   6.143 -0.6821  0.7692  0.0002
  128OSM    O1213701   4.857   5.464   6.045  0.1455 -0.1900 -0.0833
  128OSM    C1S13702   4.989   5.571   6.267 -0.0041  0.1166 -0.9109
  128OSM    H1S13703   5.003   5.470   6.313  2.7790 -1.3399 -4.7381
  128OSM    H1T13704   4.880   5.591   6.269 -0.3483 -1.7175  0.5592
  128OSM     NF13705   5.008   5.642   6.503  0.2082  0.0396  0.8923
  128OSM    HNF13706   4.948   5.716   6.531 -0.9188 -0.4096 -0.3221
  128OSM    C2S13707   5.061   5.665   6.371  0.5797  0.3274  0.5222
  128OSM    H2S13708   5.171   5.651   6.371  0.2977 -2.1263  1.9551
  128OSM    C3S13709   5.038   5.812   6.327 -0.0679  0.4528 -0.8387
  128OSM    H3S13710   4.928   5.828   6.320  0.0094  1.2220 -0.3062
  128OSM     O313711   5.107   5.849   6.204 -0.6711 -0.5574 -0.4351
  128OSM    HO313712   5.124   5.766   6.159  0.1592 -0.3548 -0.5164
  128OSM    C4S13713   5.095   5.905   6.439 -0.9236  0.4679  0.5088
  128OSM    H4S13714   5.205   5.911   6.431 -0.8740 -0.0812  0.6879
  128OSM    C5S13715   5.034   5.985   6.527 -0.2874 -0.3408  0.2367
  128OSM    H5S13716   4.925   5.993   6.525 -0.1965  1.4973  1.2781
  128OSM    C6S13717   5.099   6.076   6.626 -0.0117  0.0981 -0.9967
  128OSM    H6S13718   5.033   6.092   6.714  0.4639  0.2293 -0.6593
  128OSM    H6T13719   5.126   6.177   6.588  0.3799  0.5243  0.3814
  128OSM    C7S13720   5.231   6.024   6.688 -0.2164  0.4337 -0.3649
  128OSM    H7S13721   5.273   6.084   6.771 -1.5181 -0.0927  0.6911
  128OSM    H7T13722   5.306   6.033   6.607 -0.7049  2.1788 -0.6386
  128OSM    C8S13723   5.233   5.880   6.739  0.1653  0.2781  0.4116
  128OSM    H8S13724   5.334   5.854   6.776  0.1316 -0.8549 -0.2799
  128OSM    H8T13725   5.211   5.815   6.652  0.1118  2.2515 -1.1015
  128OSM    C9S13726   5.134   5.857   6.856  0.1255 -0.5249  0.2880
  128OSM    H9S13727   5.038   5.864   6.800 -0.0272  0.9018  0.7021
  128OSM    H9T13728   5.140   5.952   6.914  1.9169 -1.4939  1.7176
  128OSM   C10S13729   5.152   5.734   6.944 -0.1677 -0.0467 -0.6518
  128OSM   H10S13730   5.258   5.743   6.977  0.9694 -1.5862 -3.6613
  128OSM   H10T13731   5.132   5.639   6.890  1.6175 -0.3136 -0.8845
  128OSM   C11S13732   5.052   5.735   7.063 -0.3029  0.0974  0.1010
  128OSM   H11S13733   4.946   5.746   7.032 -0.1234  0.0878 -0.5115
  128OSM   H11T13734   5.074   5.818   7.134 -0.7510  0.0150  0.3399
  128OSM   C12S13735   5.052   5.607   7.149  0.2588 -0.5810  0.1156
  128OSM   H12S13736   5.018   5.522   7.086 -0.1480 -1.5099  1.5700
  128OSM   H12T13737   4.984   5.633   7.233  1.0791 -1.1398  0.9497
  128OSM   C13S13738   5.189   5.563   7.212  0.4606  0.3924 -0.3667
  128OSM   H13S13739   5.222   5.639   7.286  2.3104  0.3894 -1.1444
  128OSM   H13T13740   5.275   5.557   7.142  1.7108  0.6711  1.1196
  128OSM   C14S13741   5.186   5.424   7.287  0.4967 -0.0979  0.0886
  128OSM   H14S13742   5.288   5.406   7.329  0.4560  1.4440  0.9028
  128OSM   H14T13743   5.153   5.355   7.207 -2.1803  2.5247 -1.1641
  128OSM   C15S13744   5.090   5.410   7.399  1.0115  0.9669 -0.7617
  128OSM   H15S13745   5.110   5.311   7.446 -0.3343  2.2578  2.7229
  128OSM   H15T13746   4.985   5.404   7.363  1.6864  0.9887 -2.7704
  128OSM   C16S13747   5.091   5.507   7.512 -0.5129 -0.4242 -0.2568
  128OSM   H16S13748   5.057   5.605   7.472  1.1253 -0.0976 -0.9174
  128OSM   H16T13749   5.195   5.525   7.548 -0.5998  0.2375 -0.3323
  128OSM   C17S13750   5.002   5.468   7.628 -0.1867 -0.3750  0.1894
  128OSM   H17S13751   5.050   5.392   7.693  0.8347  0.3820  0.3372
  128OSM   H17T13752   4.900   5.427   7.615 -0.9909  1.0554  1.8005
  128OSM   C18S13753   4.988   5.589   7.721  0.6767 -0.2620 -0.6385
  128OSM   H18S13754   4.949   5.553   7.819  0.1538  0.6153 -0.5208
  128OSM   H18T13755   4.931   5.676   7.682  0.8944  0.3725  0.4353
  128OSM   H18U13756   5.083   5.639   7.746  1.2207 -1.5077 -0.1859
  128OSM    C1F13757   5.029   5.526   6.569  0.2147 -0.2041  0.1677
  128OSM     OF13758   5.112   5.438   6.531  1.0711  0.3918 -0.1575
  128OSM    C2F13759   4.943   5.513   6.698 -0.5193 -0.7237 -0.0159
  128OSM    H2F13760   4.899   5.611   6.725 -0.9016 -0.5164 -1.3284
  128OSM    H2G13761   5.013   5.488   6.781 -0.0732  2.0232  0.4622
  128OSM    C3F13762   4.832   5.412   6.679 -0.8159 -0.2670  0.1281
  128OSM    H3F13763   4.873   5.325   6.624 -0.2066  1.5008 -2.3411
  128OSM    H3G13764   4.746   5.442   6.614 -0.8161 -0.9324 -0.1775
  128OSM    C4F13765   4.789   5.358   6.822 -0.7598  0.3353  0.7526
  128OSM    H4F13766   4.815   5.427   6.904  2.6711 -0.5671  0.4850
  128OSM    H4G13767   4.851   5.268   6.840  0.4285  1.2252  1.1478
  128OSM    C5F13768   4.639   5.344   6.820 -0.6331  0.0417 -0.2518
  128OSM    H5F13769   4.622   5.276   6.734 -1.6691  0.5256 -0.4414
  128OSM    H5G13770   4.601   5.446   6.796 -1.8858 -0.9082 -2.4898
  128OSM    C6F13771   4.582   5.277   6.944  0.1976  0.0500 -0.4668
  128OSM    H6F13772   4.617   5.337   7.031  0.9972 -2.0111  0.6773
  128OSM    H6G13773   4.627   5.175   6.945  0.1700  0.0365 -0.6863
  128OSM    C7F13774   4.431   5.265   6.940  0.0968  0.0905 -0.2406
  128OSM    H7F13775   4.391   5.227   6.844 -0.1760  1.5147 -0.7029
  128OSM    H7G13776   4.386   5.366   6.957  1.5439  0.9104 -1.2365
  128OSM    C8F13777   4.375   5.164   7.042  0.3318  0.5366  0.4295
  128OSM    H8F13778   4.430   5.069   7.024  0.8739  0.6077  1.7201
  128OSM    H8G13779   4.268   5.140   7.025  0.4907 -0.6897  1.1028
  128OSM    C9F13780   4.395   5.218   7.180 -0.0820 -0.5815  0.2667
  128OSM    H9F13781   4.497   5.249   7.210 -0.0593 -1.0430  0.6720
  128OSM   C10F13782   4.298   5.224   7.274 -0.5070 -0.4247 -0.1306
  128OSM   H10F13783   4.323   5.258   7.375 -2.1816 -2.1348  0.8705
  128OSM   C11F13784   4.161   5.172   7.263  0.6226 -0.2897  0.0234
  128OSM   H11F13785   4.153   5.090   7.189 -4.9516  0.0419  0.0140
  128OSM   H11G13786   4.094   5.253   7.226  0.1624 -1.2579 -1.2809
  128OSM   C12F13787   4.099   5.103   7.390  0.0280  0.1858 -0.3074
  128OSM   H12F13788   3.992   5.078   7.369  0.7442 -2.2644 -1.2906
  128OSM   H12G13789   4.104   5.171   7.477 -1.7956  0.1080 -0.1251
  128OSM   C13F13790   4.172   4.973   7.430 -0.0532  0.1607 -0.8267
  128OSM   H13F13791   4.271   5.009   7.465 -0.2485  0.3373 -0.4588
  128OSM   H13G13792   4.190   4.924   7.332 -1.2082  0.5259 -1.2250
  128OSM   C14F13793   4.118   4.869   7.530 -0.0969 -0.3568 -0.1828
  128OSM   H14F13794   4.189   4.784   7.537  0.8104  0.3612 -0.5275
  128OSM   H14G13795   4.022   4.839   7.483 -0.0652  0.6446 -0.8924
  128OSM   C15F13796   4.116   4.913   7.676 -0.1821  0.6518 -0.1973
  128OSM   H15F13797   4.055   4.844   7.738 -0.6805 -1.8187 -3.2876
  128OSM   H15G13798   4.084   5.019   7.675 -2.3565  0.0141  0.0158
  128OSM   C16F13799   4.260   4.912   7.735 -0.4539 -0.0846 -0.1834
  128OSM   H16F13800   4.340   4.944   7.665  1.8843 -0.3066  2.3069
  128OSM   H16G13801   4.284   4.804   7.745 -1.6234 -0.1541  2.2972
  128OSM   C17F13802   4.282   4.980   7.873  0.9009  0.7171  0.1600
  128OSM   H17F13803   4.378   4.935   7.907 -0.9421 -2.3826  1.4894
  128OSM   H17G13804   4.205   4.954   7.950  1.9163  1.7046  1.5382
  128OSM   C18F13805   4.292   5.133   7.865  0.4098  0.5920 -0.3614
  128OSM   H18F13806   4.334   5.162   7.964 -1.3351 -1.5171  1.0670
  128OSM   H18G13807   4.198   5.185   7.837  0.6206  0.1510 -1.9052
  128OSM   H18H13808   4.365   5.164   7.788  0.6892 -0.8270 -0.6833
  129OSM      N13809   2.364   2.011   5.689  0.6129  0.2834 -0.3075
  129OSM    C1513810   2.410   2.114   5.785  0.1243 -0.9276  0.3602
  129OSM   H15A13811   2.414   2.207   5.730 -0.1482 -0.9121  0.3613
  129OSM   H15B13812   2.508   2.095   5.825  1.0043 -0.2022 -1.4310
  129OSM   H15C13813   2.343   2.121   5.870  0.7592  0.2353  0.7662
  129OSM    C1413814   2.246   2.065   5.622 -0.2841  0.1428 -0.4736
  129OSM   H14A13815   2.273   2.156   5.570 -0.4809 -0.4294 -1.5973
  129OSM   H14B13816   2.173   2.095   5.696 -0.8118 -1.0754 -0.4960
  129OSM   H14C13817   2.202   2.004   5.545 -0.8097 -0.3113  0.1763
  129OSM    C1313818   2.465   1.988   5.579  0.1795  0.1539 -0.0897
  129OSM   H13A13819   2.512   2.081   5.550  2.3982 -0.9399 -0.1167
  129OSM   H13B13820   2.412   1.956   5.490  0.0191  0.1463  0.0093
  129OSM   H13C13821   2.543   1.917   5.600 -0.4065  0.2924  2.7533
  129OSM    C1213822   2.338   1.885   5.778  0.8176 -0.3507 -0.6647
  129OSM   H12A13823   2.358   1.798   5.717  2.1304  0.8815 -2.0304
  129OSM   H12B13824   2.231   1.873   5.788  0.4324  2.5264 -0.8290
  129OSM    C1113825   2.415   1.859   5.903 -0.6759  0.3035 -0.2126
  129OSM   H11A13826   2.393   1.760   5.950  0.4592 -1.7645 -3.8184
  129OSM   H11B13827   2.397   1.940   5.976  0.2618  0.4880 -0.1833
  129OSM      P13828   2.621   1.728   5.810 -0.0971 -0.2616 -0.0953
  129OSM    O1313829   2.517   1.648   5.739 -0.3535  0.3647 -0.3044
  129OSM    O1413830   2.738   1.775   5.730  0.2832 -0.2349 -0.4360
  129OSM    O1113831   2.675   1.651   5.937  0.4941  0.2900  0.2579
  129OSM    O1213832   2.554   1.856   5.869 -1.1362  0.4272 -0.4825
  129OSM    C1S13833   2.784   1.699   6.019  0.2757 -0.5559  0.0804
  129OSM    H1S13834   2.815   1.802   5.990  0.9859 -0.5091  0.9750
  129OSM    H1T13835   2.868   1.631   5.992  1.3078  0.9561 -0.6077
  129OSM     NF13836   2.862   1.766   6.241 -0.6607  0.4289 -0.6248
  129OSM    HNF13837   2.919   1.712   6.304  0.9143  2.0911 -0.5817
  129OSM    C2S13838   2.758   1.694   6.168  0.2109  0.0962  0.1250
  129OSM    H2S13839   2.663   1.750   6.185 -0.0062 -0.3239  0.3168
  129OSM    C3S13840   2.743   1.546   6.211  0.1719 -0.3373  0.5576
  129OSM    H3S13841   2.838   1.490   6.197  0.0109 -0.7735  1.1949
  129OSM     O313842   2.644   1.480   6.126 -0.4232  0.2258  0.4737
  129OSM    HO313843   2.644   1.539   6.051  1.2852 -1.3469 -0.8097
  129OSM    C4S13844   2.708   1.536   6.354 -0.4798  0.0432 -0.1614
  129OSM    H4S13845   2.614   1.587   6.380  0.5158  0.9275  1.8053
  129OSM    C5S13846   2.772   1.482   6.456  0.1817 -0.7037  0.0759
  129OSM    H5S13847   2.863   1.431   6.420  1.2603  1.2023 -0.0135
  129OSM    C6S13848   2.717   1.478   6.598 -0.1369 -0.5499 -0.5653
  129OSM    H6S13849   2.752   1.386   6.650 -0.9005  0.0614  1.0582
  129OSM    H6T13850   2.608   1.462   6.585 -0.4461  2.0429 -1.4078
  129OSM    C7S13851   2.755   1.605   6.678 -0.6543 -0.7595  0.1109
  129OSM    H7S13852   2.717   1.691   6.619 -1.8809 -2.6139 -1.8908
  129OSM    H7T13853   2.866   1.608   6.683 -0.4245 -1.2659 -3.3335
  129OSM    C8S13854   2.702   1.623   6.822 -0.6504  0.2714  0.7892
  129OSM    H8S13855   2.717   1.531   6.882  2.7896  0.1496 -0.1758
  129OSM    H8T13856   2.592   1.643   6.818 -0.7192 -0.3856 -1.5927
  129OSM    C9S13857   2.768   1.750   6.881  0.2523  0.2204  0.7134
  129OSM    H9S13858   2.742   1.842   6.824  3.3476  0.5753 -0.1808
  129OSM    H9T13859   2.878   1.737   6.882  0.2788  0.2337 -0.8388
  129OSM   C10S13860   2.736   1.773   7.032  0.4536  0.8028  0.5444
  129OSM   H10S13861   2.798   1.860   7.063  1.2494  0.3273  0.2852
  129OSM   H10T13862   2.767   1.689   7.098  0.6731 -1.3273 -2.1951
  129OSM   C11S13863   2.586   1.793   7.060  0.5752  0.6497  0.0640
  129OSM   H11S13864   2.538   1.697   7.032 -1.0842  1.1678  1.0256
  129OSM   H11T13865   2.554   1.879   6.998 -1.1391 -1.3788 -1.9332
  129OSM   C12S13866   2.562   1.815   7.204 -0.2712  0.4282 -0.5175
  129OSM   H12S13867   2.575   1.922   7.230  0.4906  0.2835 -0.2814
  129OSM   H12T13868   2.638   1.771   7.273 -0.8510  0.2381  0.0033
  129OSM   C13S13869   2.420   1.761   7.237  0.0013  0.1443  0.6550
  129OSM   H13S13870   2.416   1.663   7.184 -1.9078 -0.1140  1.2132
  129OSM   H13T13871   2.343   1.827   7.191  0.0381  0.1533  0.6073
  129OSM   C14S13872   2.389   1.753   7.387  0.0145 -0.3175 -0.6545
  129OSM   H14S13873   2.378   1.851   7.439  1.6018 -1.0660  1.1593
  129OSM   H14T13874   2.482   1.713   7.433 -0.7988 -2.9510 -1.2196
  129OSM   C15S13875   2.259   1.679   7.413  0.5750  0.5718 -0.4138
  129OSM   H15S13876   2.273   1.581   7.363 -0.0579 -0.1549  0.8030
  129OSM   H15T13877   2.183   1.743   7.363  0.5783  0.0303 -1.1223
  129OSM   C16S13878   2.232   1.675   7.560  0.0482 -0.1990 -0.6785
  129OSM   H16S13879   2.129   1.632   7.569 -0.0963  0.0060 -1.2909
  129OSM   H16T13880   2.230   1.782   7.588  4.8794  0.1654 -1.4267
  129OSM   C17S13881   2.337   1.602   7.646 -0.1867 -0.4700  0.2027
  129OSM   H17S13882   2.435   1.654   7.643  0.0781 -0.9576  0.2080
  129OSM   H17T13883   2.359   1.498   7.611 -1.0686 -0.4775 -0.3389
  129OSM   C18S13884   2.287   1.582   7.787 -0.0391 -0.4690  0.0373
  129OSM   H18S13885   2.358   1.524   7.851  0.4266  0.7316  0.6230
  129OSM   H18T13886   2.189   1.530   7.788 -0.3024  0.0338  0.2480
  129OSM   H18U13887   2.272   1.679   7.838 -0.3071 -0.4236 -0.1294
  129OSM    C1F13888   2.864   1.899   6.243  0.3854 -0.0057 -0.3180
  129OSM     OF13889   2.797   1.955   6.157 -0.1333 -0.3270 -0.2357
  129OSM    C2F13890   2.938   1.979   6.354  0.1246 -0.1032  0.4197
  129OSM    H2F13891   2.861   2.042   6.403 -0.6463 -0.8269  0.1508
  129OSM    H2G13892   3.010   2.043   6.299  0.0194 -0.8596 -0.6129
  129OSM    C3F13893   3.015   1.888   6.448 -0.1552 -0.9376 -0.0904
  129OSM    H3F13894   3.088   1.817   6.403 -1.0777 -2.1093  0.2393
  129OSM    H3G13895   2.935   1.822   6.487 -2.9424  1.7622 -1.0080
  129OSM    C4F13896   3.069   1.967   6.566 -0.3066  0.3092  0.2551
  129OSM    H4F13897   2.987   2.030   6.606  0.0603  1.6694 -1.0918
  129OSM    H4G13898   3.152   2.031   6.527 -0.2811 -1.2656 -2.4201
  129OSM    C5F13899   3.130   1.879   6.670  1.0049  0.2597 -0.4308
  129OSM    H5F13900   3.213   1.825   6.620  0.0084 -0.8411 -0.9324
  129OSM    H5G13901   3.048   1.810   6.702  1.1084  1.1043  1.7380
  129OSM    C6F13902   3.180   1.952   6.787  0.2629  0.2021 -0.4004
  129OSM    H6F13903   3.090   2.009   6.819  0.8416  2.5101 -2.6968
  129OSM    H6G13904   3.251   2.027   6.745  1.1971  0.0140  0.8022
  129OSM    C7F13905   3.243   1.885   6.911  0.4633  0.0319  0.4715
  129OSM    H7F13906   3.343   1.849   6.881 -0.5090 -1.9548 -0.4857
  129OSM    H7G13907   3.169   1.805   6.935  2.5841 -2.3890 -0.8868
  129OSM    C8F13908   3.272   1.974   7.036  0.2426 -0.2637 -0.0807
  129OSM    H8F13909   3.169   1.996   7.073 -0.8136 -2.0527 -1.8386
  129OSM    H8G13910   3.322   2.067   7.002  1.5257 -1.8449 -2.6991
  129OSM    C9F13911   3.351   1.908   7.144 -1.2544 -0.3153  0.1065
  129OSM    H9F13912   3.457   1.936   7.140 -0.6527 -2.4644  0.8522
  129OSM   C10F13913   3.304   1.834   7.243  0.1863 -0.2405 -1.0814
  129OSM   H10F13914   3.368   1.810   7.329  0.1205 -0.0279 -0.9727
  129OSM   C11F13915   3.157   1.801   7.263 -0.6639 -0.2387  0.0437
  129OSM   H11F13916   3.163   1.709   7.325  0.7708  0.2632  0.6817
  129OSM   H11G13917   3.107   1.764   7.171 -0.2862  2.6203 -1.3595
  129OSM   C12F13918   3.081   1.911   7.339 -0.0834  0.5864  0.4758
  129OSM   H12F13919   3.058   1.989   7.264 -0.5306 -0.1900 -0.2062
  129OSM   H12G13920   3.142   1.958   7.419  0.6655 -1.1028  0.9399
  129OSM   C13F13921   2.948   1.848   7.384  0.1125 -1.1412  0.3249
  129OSM   H13F13922   2.984   1.772   7.456 -1.2120 -1.3176  0.8203
  129OSM   H13G13923   2.896   1.798   7.299  1.3104 -2.4723  0.3498
  129OSM   C14F13924   2.863   1.952   7.451 -1.0778  0.3762  0.8364
  129OSM   H14F13925   2.795   2.001   7.378 -0.3248  0.7029  0.3489
  129OSM   H14G13926   2.930   2.037   7.478  0.0621  0.4604 -2.0709
  129OSM   C15F13927   2.778   1.906   7.566 -0.3706  0.6468  0.0414
  129OSM   H15F13928   2.719   1.814   7.544 -2.0761  1.4931  1.0229
  129OSM   H15G13929   2.696   1.976   7.589 -0.1610  1.2096 -0.8918
  129OSM   C16F13930   2.859   1.880   7.701  0.0603 -0.3771 -0.5942
  129OSM   H16F13931   2.927   1.967   7.717  1.0328 -1.3080  0.4337
  129OSM   H16G13932   2.907   1.782   7.681 -0.9832 -0.9523 -0.3001
  129OSM   C17F13933   2.769   1.857   7.823  0.2574 -0.2172  0.5679
  129OSM   H17F13934   2.817   1.787   7.895  1.5584  2.3256  2.2775
  129OSM   H17G13935   2.672   1.817   7.788  0.3899  2.0412 -2.5440
  129OSM   C18F13936   2.733   1.985   7.899 -0.3150 -0.0246 -0.0358
  129OSM   H18F13937   2.726   2.072   7.831 -1.1040 -0.5054 -0.5816
  129OSM   H18G13938   2.809   2.005   7.978  0.5346  2.3659 -1.4198
  129OSM   H18H13939   2.634   1.981   7.949  0.0550 -0.6346  0.6685
  130OSM      N13940   5.404   4.864   5.854  0.4990 -0.3826  0.6566
  130OSM    C1513941   5.325   4.989   5.860  0.0829  0.6757  0.8357
  130OSM   H15A13942   5.220   4.962   5.859  0.1974  0.2061 -1.8495
  130OSM   H15B13943   5.350   5.055   5.778  1.4247  0.0874  0.7660
  130OSM   H15C13944   5.349   5.048   5.947  1.0279  0.8924  0.4332
  130OSM    C1413945   5.353   4.768   5.954 -0.1261 -0.2568 -0.0860
  130OSM   H14A13946   5.395   4.670   5.942 -1.3342 -0.6510 -1.2151
  130OSM   H14B13947   5.246   4.756   5.946 -0.1392 -0.3236  0.1954
  130OSM   H14C13948   5.373   4.799   6.055  1.3868 -0.7467 -0.2175
  130OSM    C1313949   5.381   4.814   5.710 -0.0762  0.4174 -0.2120
  130OSM   H13A13950   5.410   4.712   5.692 -0.4378 -0.3079  3.0621
  130OSM   H13B13951   5.438   4.873   5.640  2.7209  1.0788  2.5396
  130OSM   H13C13952   5.274   4.817   5.693 -0.2752  1.5592  1.1788
  130OSM    C1213953   5.550   4.892   5.882  0.5917 -0.7255  0.7809
  130OSM   H12A13954   5.584   4.965   5.810  1.4512 -0.4003  1.5014
  130OSM   H12B13955   5.605   4.800   5.874 -1.6738 -2.0867  0.5596
  130OSM    C1113956   5.576   4.953   6.018 -0.1662  0.4189  0.0980
  130OSM   H11A13957   5.541   4.888   6.102 -0.3175  1.4572  0.8438
  130OSM   H11B13958   5.524   5.050   6.029 -0.8147  0.2181 -1.1291
  130OSM      P13959   5.787   5.096   5.966  0.2443  0.1491  0.0768
  130OSM    O1313960   5.936   5.095   5.977  0.7186 -0.1587  0.0458
  130OSM    O1413961   5.728   5.111   5.832 -0.1419  0.5515  0.1385
  130OSM    O1113962   5.735   5.218   6.053 -0.0971  0.5728  0.2287
  130OSM    O1213963   5.713   4.970   6.039 -1.0729 -0.1892 -0.4164
  130OSM    C1S13964   5.729   5.201   6.195 -0.1245 -0.4031  0.0626
  130OSM    H1S13965   5.689   5.103   6.229 -0.1081  0.0556  1.4551
  130OSM    H1T13966   5.651   5.270   6.232 -2.0211 -2.1280 -0.6508
  130OSM     NF13967   5.840   5.214   6.418 -0.4242  0.4553 -0.4000
  130OSM    HNF13968   5.810   5.295   6.467 -2.2380 -0.4594  0.0290
  130OSM    C2S13969   5.866   5.224   6.272 -0.0377 -1.1783  0.3831
  130OSM    H2S13970   5.948   5.154   6.247  0.2560 -0.6059 -0.2852
  130OSM    C3S13971   5.925   5.361   6.235  0.0695  0.5848 -0.1323
  130OSM    H3S13972   5.845   5.432   6.265 -1.1805 -0.8553 -0.0012
  130OSM     O313973   5.947   5.388   6.099 -0.2133  0.0830  0.5690
  130OSM    HO313974   5.903   5.317   6.052  2.1872 -1.3917  0.4544
  130OSM    C4S13975   6.053   5.387   6.305 -0.1630  0.2188  0.6382
  130OSM    H4S13976   6.133   5.313   6.294 -0.3030  0.0235  0.9309
  130OSM    C5S13977   6.083   5.501   6.371 -0.0344 -0.7301  0.9507
  130OSM    H5S13978   6.003   5.576   6.380  1.5200  1.5111 -2.8473
  130OSM    C6S13979   6.218   5.514   6.442  0.5375  0.6865  0.5496
  130OSM    H6S13980   6.279   5.604   6.418  1.0814 -0.1885 -1.4364
  130OSM    H6T13981   6.286   5.429   6.420  2.4650  2.2130  0.5335
  130OSM    C7S13982   6.201   5.524   6.595 -0.4303 -0.2148 -0.1787
  130OSM    H7S13983   6.303   5.553   6.628 -0.7978 -0.6090  1.3701
  130OSM    H7T13984   6.153   5.430   6.630  2.1290 -1.2738  0.6220
  130OSM    C8S13985   6.115   5.641   6.644 -0.0034  0.6106 -0.5324
  130OSM    H8S13986   6.006   5.623   6.627 -0.0528 -0.4841  0.8492
  130OSM    H8T13987   6.135   5.731   6.582 -1.9853  2.8458  1.9526
  130OSM    C9S13988   6.138   5.678   6.789  0.1473 -0.7048  0.3099
  130OSM    H9S13989   6.088   5.772   6.819 -1.1429 -1.1631 -0.3872
  130OSM    H9T13990   6.247   5.696   6.802  0.0435 -0.4142  0.8028
  130OSM   C10S13991   6.100   5.566   6.885 -0.2993 -0.1196  0.6421
  130OSM   H10S13992   6.179   5.491   6.865  0.4817  0.9277 -0.3001
  130OSM   H10T13993   6.000   5.526   6.856 -0.9724  0.7391  1.7453
  130OSM   C11S13994   6.095   5.614   7.028  0.1954 -0.0560 -0.1690
  130OSM   H11S13995   6.025   5.700   7.039 -0.0221 -0.2166 -0.2920
  130OSM   H11T13996   6.188   5.674   7.041  1.0989 -1.7694  1.4144
  130OSM   C12S13997   6.079   5.504   7.132 -0.2520 -0.1179 -0.9995
  130OSM   H12S13998   6.167   5.437   7.129 -0.5328 -0.5198 -0.4366
  130OSM   H12T13999   5.986   5.453   7.098  0.5063 -1.4366 -1.1362
  130OSM   C13S14000   6.043   5.548   7.275 -0.0337 -0.5649 -0.0681
  130OSM   H13S14001   5.960   5.622   7.279  1.6586  1.2657  3.0018
  130OSM   H13T14002   6.135   5.597   7.312 -0.3383  1.1381 -1.4863
  130OSM   C14S14003   6.009   5.430   7.366  0.1179  0.2261  0.1983
  130OSM   H14S14004   6.095   5.360   7.373 -0.2154 -0.2632 -0.5709
  130OSM   H14T14005   5.920   5.378   7.322  2.1353 -0.9065 -2.6900
  130OSM   C15S14006   5.977   5.464   7.510  0.1158  0.5125 -0.2671
  130OSM   H15S14007   5.945   5.376   7.570  0.3959  1.6743  1.6338
  130OSM   H15T14008   5.892   5.535   7.517  0.2789  0.7876 -1.0445
  130OSM   C16S14009   6.096   5.522   7.585  0.1317  1.1075  1.6013
  130OSM   H16S14010   6.058   5.533   7.688 -2.1832 -0.4744  0.9716
  130OSM   H16T14011   6.117   5.627   7.554 -2.1134  1.3643  0.8833
  130OSM   C17S14012   6.223   5.427   7.587 -0.3039 -0.6449  0.7617
  130OSM   H17S14013   6.259   5.428   7.483  1.1214  1.6626  1.2706
  130OSM   H17T14014   6.197   5.320   7.603  0.6130 -1.2870 -1.8440
  130OSM   C18S14015   6.329   5.483   7.679  0.5320  0.0132 -0.0531
  130OSM   H18S14016   6.285   5.492   7.781 -1.4926  3.0073 -1.1199
  130OSM   H18T14017   6.344   5.590   7.653 -0.1360  0.6053  1.9445
  130OSM   H18U14018   6.427   5.432   7.682  0.5438 -0.0483 -1.2606
  130OSM    C1F14019   5.814   5.097   6.476  0.5478 -0.5583 -0.7628
  130OSM     OF14020   5.802   4.995   6.410  0.2586 -0.0339  0.1571
  130OSM    C2F14021   5.800   5.086   6.620 -0.6598 -0.0120 -0.2714
  130OSM    H2F14022   5.729   5.009   6.659 -0.3484 -2.0629 -3.5274
  130OSM    H2G14023   5.748   5.177   6.657 -0.5566  0.1927 -0.6331
  130OSM    C3F14024   5.940   5.070   6.691  0.6017  0.6024  0.6421
  130OSM    H3F14025   6.011   5.144   6.647  0.2710 -0.2113 -1.3379
  130OSM    H3G14026   5.996   4.976   6.674 -1.6871 -0.8686  1.1330
  130OSM    C4F14027   5.913   5.089   6.845 -0.1258 -0.3963  0.0097
  130OSM    H4F14028   5.861   5.011   6.905  0.7366 -0.5092  0.6099
  130OSM    H4G14029   5.850   5.180   6.845  1.8246  0.9964 -0.9582
  130OSM    C5F14030   6.043   5.135   6.912 -0.5441 -0.3239 -0.0658
  130OSM    H5F14031   6.101   5.214   6.860  1.4415 -1.2806  0.6605
  130OSM    H5G14032   6.110   5.050   6.888 -2.1156 -0.8135 -2.8755
  130OSM    C6F14033   6.041   5.150   7.063  0.2197  0.2244 -0.2372
  130OSM    H6F14034   5.982   5.241   7.086 -2.3108 -0.8515 -2.2081
  130OSM    H6G14035   6.140   5.179   7.103  1.3134 -2.4318 -0.9032
  130OSM    C7F14036   5.991   5.026   7.150  0.1138 -0.5167  0.5611
  130OSM    H7F14037   6.059   4.939   7.140  0.9764  0.1599  0.4790
  130OSM    H7G14038   5.886   5.008   7.118  0.1280  0.9887 -0.3884
  130OSM    C8F14039   5.990   5.054   7.300  0.4551  0.6175 -0.6975
  130OSM    H8F14040   5.956   5.159   7.314  0.4205  0.6905 -1.2973
  130OSM    H8G14041   6.098   5.046   7.322  0.3266  0.3139 -0.1872
  130OSM    C9F14042   5.904   4.955   7.383 -0.4573 -0.4434  0.8065
  130OSM    H9F14043   5.817   4.912   7.331  0.5311 -0.2250 -1.0647
  130OSM   C10F14044   5.942   4.907   7.499  0.8196  0.3045  0.8396
  130OSM   H10F14045   5.866   4.849   7.553  0.6724  0.6914  1.0453
  130OSM   C11F14046   6.060   4.933   7.584 -0.2865  0.7152 -0.4462
  130OSM   H11F14047   6.139   4.968   7.514  0.6893 -0.0674  0.2561
  130OSM   H11G14048   6.102   4.842   7.631 -0.5918 -0.3150 -2.1405
  130OSM   C12F14049   6.054   5.046   7.701 -0.6656 -0.4565  0.4323
  130OSM   H12F14050   5.994   5.124   7.651 -2.2601 -1.5631  0.5726
  130OSM   H12G14051   6.153   5.079   7.739  0.5508 -3.1023 -0.3087
  130OSM   C13F14052   5.971   4.994   7.818 -0.0093  0.3211  0.3379
  130OSM   H13F14053   6.023   4.908   7.865 -1.4976  0.8593  3.0567
  130OSM   H13G14054   5.880   4.945   7.777  0.9309 -0.8322 -0.4033
  130OSM   C14F14055   5.922   5.101   7.910  0.5630  0.0009 -0.8962
  130OSM   H14F14056   5.833   5.135   7.853 -0.1665 -0.3933  0.0033
  130OSM   H14G14057   5.992   5.186   7.926  0.7230 -0.5074  1.3316
  130OSM   C15F14058   5.869   5.041   8.056 -0.1663 -0.1782 -0.1564
  130OSM   H15F14059   5.963   5.012   8.107  0.6980  0.4451 -1.3529
  130OSM   H15G14060   5.824   4.941   8.039  1.3873 -0.8362 -0.5154
  130OSM   C16F14061   5.785   5.148   8.134  0.1107  0.1024 -0.5918
  130OSM   H16F14062   5.693   5.169   8.075  0.0473 -2.2798 -1.4008
  130OSM   H16G14063   5.847   5.239   8.143  1.5986 -0.8272 -1.2066
  130OSM   C17F14064   5.715   5.097   8.268 -0.5972 -0.1165 -0.3923
  130OSM   H17F14065   5.799   5.058   8.330  0.0138 -0.0215 -1.1480
  130OSM   H17G14066   5.653   5.006   8.250 -0.0792 -0.3450 -1.0482
  130OSM   C18F14067   5.637   5.203   8.334 -0.5797  0.2824  0.0306
  130OSM   H18F14068   5.543   5.214   8.276 -1.2449  2.4876  1.4384
  130OSM   H18G14069   5.696   5.297   8.334  1.7238 -1.0984 -1.9476
  130OSM   H18H14070   5.616   5.182   8.441  0.6357 -0.8728  0.0579
  131OSM      N14071   2.769   1.248   5.755  0.3861  0.6862 -0.4981
  131OSM    C1514072   2.638   1.298   5.705 -0.0728  0.3959 -0.2689
  131OSM   H15A14073   2.549   1.266   5.757  0.0825 -2.4445 -1.6077
  131OSM   H15B14074   2.629   1.264   5.602  2.6662 -1.1554 -0.0626
  131OSM   H15C14075   2.631   1.405   5.694  0.6710  0.6069  1.2022
  131OSM    C1414076   2.761   1.099   5.767  0.4263 -0.2174  0.5859
  131OSM   H14A14077   2.857   1.052   5.786  1.2573 -0.2242 -3.1853
  131OSM   H14B14078   2.732   1.053   5.673  0.2579 -0.6159  0.8301
  131OSM   H14C14079   2.689   1.071   5.842  1.2602 -0.3890  1.3284
  131OSM    C1314080   2.883   1.274   5.657  0.4739  0.6811  0.1090
  131OSM   H13A14081   2.911   1.377   5.639  2.2583  0.4386  1.3178
  131OSM   H13B14082   2.875   1.216   5.566 -1.2777  0.1370  0.5937
  131OSM   H13C14083   2.972   1.230   5.701  0.4156  1.3001  0.8511
  131OSM    C1214084   2.803   1.312   5.889  0.6385 -0.3458  0.0769
  131OSM   H12A14085   2.720   1.281   5.951 -0.2609  1.2648 -0.3071
  131OSM   H12B14086   2.798   1.418   5.873  1.1532 -0.4779 -0.9769
  131OSM    C1114087   2.931   1.272   5.964 -0.0918 -0.1499 -0.9684
  131OSM   H11A14088   2.920   1.164   5.991  1.2449  0.4784  2.3316
  131OSM   H11B14089   2.931   1.323   6.062 -0.9440  0.5085 -1.3064
  131OSM      P14090   3.111   1.424   5.860  0.1414 -0.1874  0.0722
  131OSM    O1314091   3.223   1.405   5.767  0.2531 -0.0520  0.2476
  131OSM    O1414092   3.004   1.514   5.812 -0.2408 -0.8703 -0.2825
  131OSM    O1114093   3.167   1.477   6.001  0.1160  0.1544 -0.2060
  131OSM    O1214094   3.047   1.277   5.883  0.0845  0.4178 -0.3971
  131OSM    C1S14095   3.293   1.433   6.042  0.0897 -0.1847  0.6719
  131OSM    H1S14096   3.360   1.466   5.959 -1.4517  0.7585 -0.2221
  131OSM    H1T14097   3.293   1.322   6.052  2.3656 -0.1158  1.7505
  131OSM     NF14098   3.448   1.434   6.230 -0.3329 -0.3462  0.3747
  131OSM    HNF14099   3.459   1.337   6.251  0.2674 -0.5834 -0.9839
  131OSM    C2S14100   3.321   1.483   6.186 -0.1128  0.0272  0.1839
  131OSM    H2S14101   3.315   1.594   6.180  1.1504  0.1926  1.6407
  131OSM    C3S14102   3.199   1.439   6.275  0.1313 -0.3816 -0.4559
  131OSM    H3S14103   3.194   1.328   6.277 -0.3585 -0.3691 -0.9933
  131OSM     O314104   3.070   1.494   6.244 -0.3694  0.4980  0.3459
  131OSM    HO314105   3.082   1.528   6.155  0.9399 -1.1249 -0.1232
  131OSM    C4S14106   3.230   1.485   6.417 -0.3234 -0.6916  0.7000
  131OSM    H4S14107   3.267   1.588   6.419 -1.1553 -0.4009  1.4767
  131OSM    C5S14108   3.237   1.415   6.526 -0.0263 -0.8160 -0.5634
  131OSM    H5S14109   3.202   1.311   6.531  2.5219 -1.6564  1.0558
  131OSM    C6S14110   3.268   1.498   6.649  0.0394  0.3016  0.8080
  131OSM    H6S14111   3.179   1.538   6.702 -0.6379 -1.3459  0.9487
  131OSM    H6T14112   3.324   1.590   6.620 -0.1056  0.6051  1.4861
  131OSM    C7S14113   3.338   1.421   6.760  0.3528 -0.1683  0.3128
  131OSM    H7S14114   3.439   1.386   6.729  0.3921  2.6795 -3.0226
  131OSM    H7T14115   3.282   1.325   6.769 -0.5069  0.3073  0.0847
  131OSM    C8S14116   3.331   1.491   6.895 -0.0905  0.0148  0.4890
  131OSM    H8S14117   3.234   1.545   6.901  0.2849  0.5738  1.9179
  131OSM    H8T14118   3.410   1.569   6.887 -0.6425  0.4677 -0.6262
  131OSM    C9S14119   3.346   1.408   7.031  0.3918 -0.7709 -0.4056
  131OSM    H9S14120   3.436   1.345   7.016  0.9594 -0.4725  1.5405
  131OSM    H9T14121   3.263   1.335   7.034  0.3296 -0.7939 -2.0803
  131OSM   C10S14122   3.367   1.487   7.159  0.1824  0.5597  0.2589
  131OSM   H10S14123   3.273   1.542   7.178  1.2272  1.6464  2.5552
  131OSM   H10T14124   3.447   1.562   7.141 -0.4271  1.3974  0.9995
  131OSM   C11S14125   3.395   1.393   7.274  0.6241  0.1140 -0.0766
  131OSM   H11S14126   3.476   1.325   7.241  2.2006  1.2492  1.3082
  131OSM   H11T14127   3.300   1.341   7.295  0.4225  0.0326 -1.1567
  131OSM   C12S14128   3.438   1.476   7.400  0.6277 -0.1065  0.9045
  131OSM   H12S14129   3.354   1.535   7.443 -0.1909  1.6098 -2.8707
  131OSM   H12T14130   3.516   1.546   7.364  0.6468 -0.8674 -0.5545
  131OSM   C13S14131   3.505   1.381   7.506 -0.6514  0.0386  0.9290
  131OSM   H13S14132   3.447   1.286   7.505 -1.7984  0.7352  1.0719
  131OSM   H13T14133   3.509   1.415   7.612 -0.0226 -0.5135  1.0892
  131OSM   C14S14134   3.651   1.341   7.474  0.0316  0.3694  0.8997
  131OSM   H14S14135   3.658   1.309   7.368 -0.5658 -1.4495  1.4026
  131OSM   H14T14136   3.678   1.252   7.534  0.8763 -1.2233 -1.7723
  131OSM   C15S14137   3.766   1.452   7.486 -0.1612  0.2737  0.3532
  131OSM   H15S14138   3.755   1.511   7.580  0.2649  2.3437 -0.8813
  131OSM   H15T14139   3.751   1.517   7.397  2.3695  0.0812 -0.2532
  131OSM   C16S14140   3.911   1.392   7.482  0.0514 -0.2712 -0.3122
  131OSM   H16S14141   3.977   1.457   7.420  0.6372 -1.2405 -0.7106
  131OSM   H16T14142   3.902   1.301   7.419 -1.1204 -0.5557  0.2586
  131OSM   C17S14143   3.966   1.363   7.622  0.5772  0.9459 -0.6401
  131OSM   H17S14144   3.880   1.324   7.681  0.8718  2.1897  0.6442
  131OSM   H17T14145   3.985   1.465   7.661 -0.8858  1.2330 -0.6446
  131OSM   C18S14146   4.087   1.273   7.629  0.0133 -0.2504 -0.3710
  131OSM   H18S14147   4.162   1.300   7.552  1.3701  0.2031  1.0879
  131OSM   H18T14148   4.054   1.168   7.613 -1.1033 -0.1698  1.2044
  131OSM   H18U14149   4.129   1.286   7.731 -0.2080  0.7981 -0.4063
  131OSM    C1F14150   3.553   1.508   6.201 -0.4819 -0.3525 -0.8321
  131OSM     OF14151   3.539   1.601   6.125 -0.3417  0.0968 -0.4654
  131OSM    C2F14152   3.684   1.486   6.261 -0.0635  0.3847 -0.0846
  131OSM    H2F14153   3.738   1.583   6.267 -0.6031  0.6376  0.8274
  131OSM    H2G14154   3.728   1.415   6.189 -1.3765  0.5106 -1.0234
  131OSM    C3F14155   3.697   1.405   6.398  0.3388 -0.4532 -0.1641
  131OSM    H3F14156   3.803   1.396   6.430  1.0863 -0.7676 -2.6278
  131OSM    H3G14157   3.666   1.300   6.383  0.6438 -0.7518  1.2089
  131OSM    C4F14158   3.622   1.456   6.529  0.3967 -0.1183  0.1233
  131OSM    H4F14159   3.661   1.389   6.610 -0.1520 -1.2169 -0.5142
  131OSM    H4G14160   3.512   1.439   6.527  0.4347 -0.2946 -0.3356
  131OSM    C5F14161   3.650   1.607   6.545  0.1827 -0.4787 -0.3916
  131OSM    H5F14162   3.601   1.675   6.472  0.9659  0.9183  0.3598
  131OSM    H5G14163   3.759   1.618   6.526  0.4631 -0.7960  0.9941
  131OSM    C6F14164   3.614   1.658   6.683 -0.0561  0.6146 -0.4620
  131OSM    H6F14165   3.620   1.583   6.765 -1.1641  3.4965  2.3620
  131OSM    H6G14166   3.507   1.686   6.683 -1.1812 -3.2319  1.5419
  131OSM    C7F14167   3.691   1.786   6.716  0.8816  0.2881  0.3950
  131OSM    H7F14168   3.696   1.854   6.628 -0.2126  0.9825  0.8606
  131OSM    H7G14169   3.800   1.767   6.731  1.5285  2.7923 -0.8383
  131OSM    C8F14170   3.631   1.838   6.840 -0.0643  0.1246  0.1852
  131OSM    H8F14171   3.619   1.761   6.920 -1.1626  0.6569  0.5382
  131OSM    H8G14172   3.533   1.882   6.814 -0.0159  1.1335  1.6221
  131OSM    C9F14173   3.716   1.950   6.894 -0.1225 -0.4359 -0.7781
  131OSM    H9F14174   3.708   2.042   6.835  1.6166 -0.2554 -0.7591
  131OSM   C10F14175   3.792   1.955   7.008  0.1838 -0.1720  0.1175
  131OSM   H10F14176   3.858   2.037   7.040  0.6899 -0.0655 -1.1408
  131OSM   C11F14177   3.806   1.849   7.108  0.0557 -0.0334  0.3106
  131OSM   H11F14178   3.878   1.778   7.062  0.0044  0.8455 -1.1675
  131OSM   H11G14179   3.718   1.784   7.127  1.2103 -1.5510  0.6285
  131OSM   C12F14180   3.859   1.898   7.242  0.7290 -0.8752 -0.1664
  131OSM   H12F14181   3.804   1.982   7.290 -0.0621 -0.8787 -1.0415
  131OSM   H12G14182   3.961   1.940   7.227  0.2846  0.1762 -0.2858
  131OSM   C13F14183   3.868   1.789   7.350 -0.4728  0.0628  0.2889
  131OSM   H13F14184   3.946   1.713   7.329 -0.4972  0.5829 -1.7613
  131OSM   H13G14185   3.768   1.743   7.364 -1.7841  3.0083  1.1227
  131OSM   C14F14186   3.914   1.849   7.486 -0.3885  0.3830  0.1934
  131OSM   H14F14187   3.842   1.929   7.513  0.7571  0.1534  4.1486
  131OSM   H14G14188   4.018   1.887   7.479 -0.2846  0.2300  0.8791
  131OSM   C15F14189   3.910   1.752   7.606 -0.5667  0.2409  0.8922
  131OSM   H15F14190   3.994   1.683   7.585  0.0507  1.0569  0.6369
  131OSM   H15G14191   3.810   1.705   7.609  0.2986 -1.6071  1.9124
  131OSM   C16F14192   3.952   1.821   7.737  0.6793  1.1831  0.2623
  131OSM   H16F14193   3.850   1.835   7.777  0.4295 -0.1047  0.1125
  131OSM   H16G14194   4.023   1.905   7.725  0.6317  1.4232  1.6031
  131OSM   C17F14195   4.031   1.726   7.840  0.1890  0.1790  0.6395
  131OSM   H17F14196   4.137   1.727   7.805 -1.2469  1.3567 -4.0178
  131OSM   H17G14197   3.988   1.624   7.846 -3.3778  1.6506  1.4646
  131OSM   C18F14198   4.037   1.769   7.982 -0.3513 -0.6128 -0.0898
  131OSM   H18F14199   4.086   1.866   8.006 -0.4838 -1.1875  2.7298
  131OSM   H18G14200   4.101   1.700   8.042 -0.4381  0.9448  1.8491
  131OSM   H18H14201   3.937   1.780   8.030  0.3907 -1.8471  1.8074
  132OSM      N14202   5.120   1.259   5.914 -0.4726 -0.3053 -0.4874
  132OSM    C1514203   5.165   1.180   5.802 -0.4918 -0.7313  0.7437
  132OSM   H15A14204   5.106   1.202   5.714 -0.2130  1.7921  1.1633
  132OSM   H15B14205   5.160   1.075   5.825  0.4770 -0.5889  1.6637
  132OSM   H15C14206   5.271   1.196   5.784 -1.1819  2.3100 -0.9192
  132OSM    C1414207   5.209   1.235   6.033 -0.0233 -0.0836 -0.1680
  132OSM   H14A14208   5.214   1.132   6.065  1.6518 -0.0807 -0.3448
  132OSM   H14B14209   5.183   1.296   6.119  1.8791  2.1026 -1.0745
  132OSM   H14C14210   5.311   1.259   6.005  0.6313 -1.1573  1.2297
  132OSM    C1314211   5.129   1.399   5.867 -0.7207 -0.2363  0.0098
  132OSM   H13A14212   5.093   1.469   5.941 -0.2979 -0.0918  0.0767
  132OSM   H13B14213   5.058   1.419   5.787 -0.6125 -0.0651 -0.0440
  132OSM   H13C14214   5.226   1.428   5.830 -0.8197  1.9943  1.4095
  132OSM    C1214215   4.974   1.233   5.944  0.0643  0.1831  0.7299
  132OSM   H12A14216   4.955   1.292   6.033  0.9244 -0.4974  1.3795
  132OSM   H12B14217   4.972   1.128   5.967  0.8185 -0.3294 -1.3943
  132OSM    C1114218   4.872   1.264   5.833 -0.4718  0.4485  0.2821
  132OSM   H11A14219   4.775   1.210   5.842 -0.8512  0.7816 -1.5841
  132OSM   H11B14220   4.906   1.222   5.736 -2.2753  2.5070 -1.2835
  132OSM      P14221   4.777   1.490   5.933  0.2053  0.2897 -0.0732
  132OSM    O1314222   4.798   1.633   5.902  0.2864  0.1305  0.3541
  132OSM    O1414223   4.640   1.444   5.920  0.2923 -0.2061 -0.2878
  132OSM    O1114224   4.850   1.448   6.080  0.2857 -0.3063 -0.4450
  132OSM    O1214225   4.853   1.405   5.822 -0.3566 -0.0300 -0.2332
  132OSM    C1S14226   4.754   1.446   6.187  0.3341 -0.4597 -0.1073
  132OSM    H1S14227   4.680   1.364   6.171  0.4234 -0.6052  0.2233
  132OSM    H1T14228   4.698   1.542   6.186 -0.2255 -0.7650 -2.7212
  132OSM     NF14229   4.719   1.384   6.422  0.0237  0.1748  0.0508
  132OSM    HNF14230   4.710   1.445   6.500 -2.7582  1.0485 -0.9167
  132OSM    C2S14231   4.821   1.423   6.327 -0.0954  0.7432 -0.2754
  132OSM    H2S14232   4.888   1.335   6.313 -2.1130 -0.7836 -0.7184
  132OSM    C3S14233   4.916   1.539   6.368  0.4042 -0.3796 -0.4060
  132OSM    H3S14234   4.859   1.634   6.376  2.9797  1.1395  0.4633
  132OSM     O314235   5.033   1.568   6.285  0.0217  0.6870 -0.4243
  132OSM    HO314236   5.023   1.521   6.202 -2.9677 -1.4749  1.0609
  132OSM    C4S14237   4.978   1.500   6.503 -0.2124 -0.6949 -0.0087
  132OSM    H4S14238   5.036   1.407   6.500 -0.9003 -1.1752  1.1954
  132OSM    C5S14239   4.966   1.567   6.622  0.1439  0.0769 -0.3624
  132OSM    H5S14240   4.932   1.671   6.621 -1.5701 -0.4193  2.3763
  132OSM    C6S14241   5.041   1.526   6.745 -0.0646 -0.3449  0.4267
  132OSM    H6S14242   5.111   1.608   6.773 -1.8064  1.4043 -0.2154
  132OSM    H6T14243   5.110   1.440   6.730 -0.2398 -0.1721 -1.4178
  132OSM    C7S14244   4.938   1.517   6.861  0.3439  0.0952  0.1070
  132OSM    H7S14245   4.857   1.444   6.837 -0.5544  0.2118  2.6082
  132OSM    H7T14246   4.892   1.617   6.875 -0.2319 -0.1751  0.1953
  132OSM    C8S14247   5.012   1.473   6.992  0.4958  1.0978 -0.3189
  132OSM    H8S14248   5.065   1.380   6.963 -0.6893  0.5955 -0.9257
  132OSM    H8T14249   4.938   1.443   7.069  0.7319  3.1463  0.7240
  132OSM    C9S14250   5.108   1.574   7.039  0.6745  0.2594 -0.2768
  132OSM    H9S14251   5.052   1.670   7.047  2.7457  1.4817 -0.0660
  132OSM    H9T14252   5.194   1.588   6.969  1.0801 -1.0373 -0.0424
  132OSM   C10S14253   5.159   1.540   7.184 -0.2421 -0.7484 -0.4417
  132OSM   H10S14254   5.223   1.450   7.179 -0.1535 -0.6894 -0.3663
  132OSM   H10T14255   5.075   1.523   7.254 -0.3008 -2.3031 -0.8770
  132OSM   C11S14256   5.242   1.650   7.250  0.6788  0.0352  0.0667
  132OSM   H11S14257   5.207   1.750   7.217 -0.2169  0.1003  1.1578
  132OSM   H11T14258   5.346   1.658   7.214  0.6197  2.1737  0.3051
  132OSM   C12S14259   5.254   1.637   7.407 -0.6157  0.2352 -1.0614
  132OSM   H12S14260   5.153   1.646   7.453  0.2440  0.0210  0.9590
  132OSM   H12T14261   5.310   1.727   7.438  0.0010 -0.4955  0.0188
  132OSM   C13S14262   5.336   1.509   7.453  0.2478 -0.4641  0.1810
  132OSM   H13S14263   5.446   1.518   7.443  0.3758 -0.0685  1.7647
  132OSM   H13T14264   5.308   1.423   7.389 -0.9188  0.9923 -1.3342
  132OSM   C14S14265   5.306   1.466   7.597 -0.1488  0.1748  0.1918
  132OSM   H14S14266   5.360   1.370   7.612  1.0459  1.1820  2.5189
  132OSM   H14T14267   5.197   1.447   7.610 -0.0595 -0.0912  0.5472
  132OSM   C15S14268   5.364   1.567   7.699  0.1806  0.2629 -0.2167
  132OSM   H15S14269   5.344   1.668   7.656  0.1660 -0.0141 -0.8755
  132OSM   H15T14270   5.473   1.556   7.715  0.5254  3.1855 -0.2286
  132OSM   C16S14271   5.287   1.567   7.835 -0.6908 -0.5103  0.2570
  132OSM   H16S14272   5.287   1.465   7.881  2.6952 -0.6252  0.1035
  132OSM   H16T14273   5.181   1.598   7.821 -1.0042 -1.1595  1.1207
  132OSM   C17S14274   5.355   1.675   7.927 -0.0929  0.1088 -0.0521
  132OSM   H17S14275   5.393   1.760   7.866 -0.9485  0.2897 -0.3487
  132OSM   H17T14276   5.452   1.637   7.962  0.7473  0.0695 -2.3051
  132OSM   C18S14277   5.264   1.740   8.036 -0.2462  0.0148 -0.0279
  132OSM   H18S14278   5.220   1.673   8.113 -1.1162  0.4820 -0.1056
  132OSM   H18T14279   5.183   1.805   7.997  1.4838  2.1731 -0.1206
  132OSM   H18U14280   5.329   1.818   8.082 -0.0358  1.8052 -3.2631
  132OSM    C1F14281   4.654   1.267   6.417  0.4659 -0.2203 -0.4295
  132OSM     OF14282   4.671   1.175   6.335  0.3509  0.3923  0.1915
  132OSM    C2F14283   4.557   1.250   6.530  0.0626 -0.7552 -0.9214
  132OSM    H2F14284   4.457   1.216   6.495 -0.5726  1.3244 -1.2301
  132OSM    H2G14285   4.533   1.354   6.561 -1.1006 -1.6646  1.3263
  132OSM    C3F14286   4.608   1.160   6.645  0.2777  0.4122  0.2767
  132OSM    H3F14287   4.699   1.204   6.691  1.0524 -0.4582 -0.3935
  132OSM    H3G14288   4.645   1.062   6.607 -1.3921 -0.2091  0.2087
  132OSM    C4F14289   4.503   1.119   6.758  0.4122  0.0043 -0.2072
  132OSM    H4F14290   4.417   1.068   6.711  1.1201 -1.3040 -0.1266
  132OSM    H4G14291   4.472   1.216   6.803  0.4834  0.7864 -1.8210
  132OSM    C5F14292   4.573   1.034   6.863  0.3147  0.7706 -0.7020
  132OSM    H5F14293   4.665   1.077   6.908 -0.4532  0.0002  1.7137
  132OSM    H5G14294   4.615   0.944   6.814  1.4578  0.7965  0.2096
  132OSM    C6F14295   4.475   0.996   6.981  0.5939 -0.1442 -0.1460
  132OSM    H6F14296   4.387   0.942   6.941 -0.3870  1.5150 -0.2781
  132OSM    H6G14297   4.435   1.089   7.027 -0.0208 -1.1752  1.4411
  132OSM    C7F14298   4.537   0.905   7.090  0.2006  1.0312  0.4524
  132OSM    H7F14299   4.636   0.946   7.120  0.5910  0.7595 -0.4592
  132OSM    H7G14300   4.547   0.806   7.041 -0.5343  2.1857 -2.1200
  132OSM    C8F14301   4.453   0.894   7.220  0.3564  0.2551 -0.0158
  132OSM    H8F14302   4.472   0.990   7.273 -0.1644  0.3019  0.0934
  132OSM    H8G14303   4.488   0.804   7.273 -0.3500 -0.5054 -0.8233
  132OSM    C9F14304   4.309   0.860   7.211  0.4645 -0.5527 -1.0125
  132OSM    H9F14305   4.281   0.844   7.105  1.5148 -0.2747 -1.3367
  132OSM   C10F14306   4.212   0.870   7.303  0.4508  0.0224  0.1177
  132OSM   H10F14307   4.114   0.824   7.284  0.6167 -0.2579 -0.0449
  132OSM   C11F14308   4.224   0.913   7.452  0.4772  0.3923 -0.0572
  132OSM   H11F14309   4.139   0.978   7.478 -1.2882 -1.3610 -1.2813
  132OSM   H11G14310   4.314   0.977   7.459 -0.2976  1.3985  0.7465
  132OSM   C12F14311   4.224   0.807   7.569  0.4852 -0.5045  0.1714
  132OSM   H12F14312   4.319   0.751   7.563  1.2465  0.9313 -1.6612
  132OSM   H12G14313   4.137   0.738   7.570  1.8283 -2.2769 -2.2936
  132OSM   C13F14314   4.226   0.874   7.711 -0.2740 -0.5906 -0.4791
  132OSM   H13F14315   4.256   0.801   7.789 -0.5378 -0.1264  0.0692
  132OSM   H13G14316   4.130   0.916   7.750 -0.0521  0.7754 -1.3706
  132OSM   C14F14317   4.329   0.992   7.722  0.3816  0.3262 -1.1218
  132OSM   H14F14318   4.305   1.085   7.666  0.6829  0.9734 -0.1843
  132OSM   H14G14319   4.425   0.960   7.677  2.1346  2.2254  1.1654
  132OSM   C15F14320   4.347   1.016   7.871 -0.3270  0.1875 -0.3657
  132OSM   H15F14321   4.398   0.924   7.909  0.7571  0.6075 -0.7695
  132OSM   H15G14322   4.247   1.022   7.919  1.2980  0.9080  3.0694
  132OSM   C16F14323   4.410   1.151   7.907 -0.2137  0.3678  0.3841
  132OSM   H16F14324   4.375   1.232   7.840 -3.3438  0.7253  2.3841
  132OSM   H16G14325   4.521   1.141   7.896 -0.5481 -1.6838 -1.5803
  132OSM   C17F14326   4.396   1.193   8.054 -0.0782 -0.1005  0.1694
  132OSM   H17F14327   4.291   1.224   8.073  0.2186 -0.1542  2.0278
  132OSM   H17G14328   4.453   1.287   8.072 -1.2320  0.4546  1.0056
  132OSM   C18F14329   4.438   1.088   8.155 -0.7693 -0.1869 -0.3592
  132OSM   H18F14330   4.537   1.044   8.130  0.2733  1.4960  0.6444
  132OSM   H18G14331   4.367   1.004   8.164  1.2917 -1.8419  1.0988
  132OSM   H18H14332   4.445   1.135   8.256  1.7927 -0.1889 -0.4827
  133OSM      N14333   5.059   2.018   5.711  0.4593 -0.6860 -0.1942
  133OSM    C1514334   4.942   1.938   5.670  1.2027  0.7051 -0.7270
  133OSM   H15A14335   4.858   1.961   5.734  0.7112 -0.4144 -0.9447
  133OSM   H15B14336   4.969   1.836   5.693  1.7323  1.0052  0.0070
  133OSM   H15C14337   4.921   1.938   5.564 -0.9379  2.8443 -0.3308
  133OSM    C1414338   5.175   1.978   5.617  0.0508 -0.1752 -0.0956
  133OSM   H14A14339   5.268   2.025   5.648 -0.7032  0.0880  1.8656
  133OSM   H14B14340   5.146   2.011   5.518  1.5695  0.7345 -0.2637
  133OSM   H14C14341   5.188   1.871   5.620  0.2078 -0.2325 -2.1871
  133OSM    C1314342   5.020   2.165   5.693 -0.8025 -0.3631 -0.4007
  133OSM   H13A14343   4.969   2.188   5.601 -0.4976  2.8497  0.1905
  133OSM   H13B14344   5.109   2.226   5.692 -2.3625  1.9691 -2.4225
  133OSM   H13C14345   4.948   2.196   5.767 -0.3656 -0.5846  0.1259
  133OSM    C1214346   5.088   1.985   5.851 -0.2563 -0.1469 -0.0232
  133OSM   H12A14347   5.025   2.047   5.914  0.6443 -0.7989  1.5371
  133OSM   H12B14348   5.185   2.024   5.879  0.1400 -0.2457 -1.2291
  133OSM    C1114349   5.092   1.832   5.893 -0.2659 -0.4943  0.7991
  133OSM   H11A14350   4.994   1.781   5.884 -1.5248  2.1839 -1.4047
  133OSM   H11B14351   5.115   1.832   6.002 -1.6003  1.7747  1.1182
  133OSM      P14352   5.336   1.755   5.863 -0.1344  0.3598  0.2487
  133OSM    O1314353   5.349   1.669   5.982 -0.0857  0.4213 -0.0573
  133OSM    O1414354   5.417   1.719   5.747 -0.3371  0.4564  0.6173
  133OSM    O1114355   5.378   1.906   5.890  0.1158 -0.3246 -0.3448
  133OSM    O1214356   5.182   1.758   5.814  0.0758  0.1759  0.0068
  133OSM    C1S14357   5.508   1.952   5.911  0.1843  0.1931 -0.0795
  133OSM    H1S14358   5.521   2.021   5.825  0.0646  1.5044  0.9457
  133OSM    H1T14359   5.586   1.873   5.903  0.0225 -0.0034  0.2982
  133OSM     NF14360   5.548   1.923   6.152  0.0630 -0.4933 -0.5048
  133OSM    HNF14361   5.472   1.891   6.208  0.2965 -1.5820 -0.8001
  133OSM    C2S14362   5.519   2.021   6.047  0.2217  0.8074 -0.8440
  133OSM    H2S14363   5.605   2.090   6.045  2.4510 -1.8742 -0.0990
  133OSM    C3S14364   5.387   2.107   6.074 -0.0701 -0.2963 -0.8677
  133OSM    H3S14365   5.294   2.047   6.064 -0.0135 -0.6015  0.3547
  133OSM     O314366   5.374   2.214   5.983 -0.3370  0.0151  0.2541
  133OSM    HO314367   5.442   2.196   5.918 -0.5141 -0.6096  0.2350
  133OSM    C4S14368   5.400   2.158   6.218  0.4003 -0.2641 -0.1794
  133OSM    H4S14369   5.348   2.104   6.298  0.7157  0.0479  0.2346
  133OSM    C5S14370   5.452   2.278   6.258 -0.7722 -0.7068 -0.4999
  133OSM    H5S14371   5.492   2.343   6.179 -0.9415 -1.4976 -1.2412
  133OSM    C6S14372   5.460   2.325   6.400 -0.2742  0.0124 -0.1692
  133OSM    H6S14373   5.376   2.395   6.421 -0.7091 -0.0334 -1.7321
  133OSM    H6T14374   5.558   2.376   6.403 -0.3299  0.1402 -0.5502
  133OSM    C7S14375   5.463   2.215   6.505  0.0596  0.3638  0.0748
  133OSM    H7S14376   5.366   2.163   6.494 -0.8457  1.7427  1.3352
  133OSM    H7T14377   5.463   2.259   6.607  1.3314  0.4039  0.0712
  133OSM    C8S14378   5.568   2.103   6.492  0.3039  0.5189 -0.1860
  133OSM    H8S14379   5.671   2.142   6.477 -0.1865  0.7943 -2.9739
  133OSM    H8T14380   5.540   2.030   6.414  1.1634  0.5003 -0.4785
  133OSM    C9S14381   5.583   2.021   6.626 -0.4728 -0.1244  0.0396
  133OSM    H9S14382   5.584   2.098   6.706  2.0208 -1.2848  1.1920
  133OSM    H9T14383   5.677   1.964   6.641 -0.4268 -0.0939 -0.1273
  133OSM   C10S14384   5.465   1.926   6.639  0.7107  0.7017 -0.4218
  133OSM   H10S14385   5.467   1.857   6.552 -0.3540  1.2846 -0.8999
  133OSM   H10T14386   5.374   1.989   6.643  0.1101 -0.2190  0.8997
  133OSM   C11S14387   5.465   1.845   6.772 -0.1331 -0.0351 -0.3424
  133OSM   H11S14388   5.557   1.783   6.772 -0.0101  0.1232 -1.6185
  133OSM   H11T14389   5.383   1.771   6.778  1.1154 -1.5241 -1.3577
  133OSM   C12S14390   5.460   1.933   6.897 -0.3307  0.0528 -0.4074
  133OSM   H12S14391   5.371   2.000   6.902 -1.1486 -1.1380  1.6080
  133OSM   H12T14392   5.553   1.993   6.894  0.8712 -1.6925  0.9230
  133OSM   C13S14393   5.466   1.854   7.029 -0.3820  0.1527  0.4815
  133OSM   H13S14394   5.540   1.773   7.018 -1.0597 -0.3936 -0.0918
  133OSM   H13T14395   5.365   1.809   7.044 -0.0734 -0.2036  1.5458
  133OSM   C14S14396   5.498   1.945   7.156  0.2565 -0.2536  0.2662
  133OSM   H14S14397   5.600   1.986   7.142  0.0751 -0.3740 -1.5628
  133OSM   H14T14398   5.520   1.875   7.239 -0.3914 -1.0709 -0.2361
  133OSM   C15S14399   5.384   2.055   7.190 -0.4205  0.4010  0.5405
  133OSM   H15S14400   5.290   2.008   7.154  0.1648 -0.7148  0.4659
  133OSM   H15T14401   5.417   2.143   7.131 -1.2801 -0.1481 -0.7965
  133OSM   C16S14402   5.398   2.072   7.341 -0.7204  0.3292 -0.4288
  133OSM   H16S14403   5.506   2.099   7.351 -0.4653 -0.2461 -1.6351
  133OSM   H16T14404   5.368   1.974   7.383  1.9611  0.2005  1.3272
  133OSM   C17S14405   5.304   2.174   7.404  0.3033 -0.1441  0.6200
  133OSM   H17S14406   5.201   2.135   7.403  0.3615 -0.2843 -1.0392
  133OSM   H17T14407   5.321   2.270   7.350 -2.0781  1.3012  2.3688
  133OSM   C18S14408   5.349   2.188   7.547  0.4426  0.0736  0.3335
  133OSM   H18S14409   5.303   2.269   7.607 -1.2715 -0.0366 -0.7985
  133OSM   H18T14410   5.457   2.214   7.558  0.6230 -1.0901  1.4088
  133OSM   H18U14411   5.340   2.095   7.606  0.6528  0.3939  0.8714
  133OSM    C1F14412   5.669   1.860   6.173 -0.0278  0.0714  0.5513
  133OSM     OF14413   5.769   1.896   6.108 -0.1453  0.3178  0.3251
  133OSM    C2F14414   5.674   1.761   6.292 -0.0506  0.0140 -0.2973
  133OSM    H2F14415   5.644   1.665   6.245 -0.6274  0.5301 -0.9982
  133OSM    H2G14416   5.598   1.797   6.365 -0.1117 -0.7591  0.0222
  133OSM    C3F14417   5.814   1.754   6.350  1.3355 -0.3106 -0.7505
  133OSM    H3F14418   5.844   1.859   6.368 -0.9185  0.0110  1.3819
  133OSM    H3G14419   5.890   1.722   6.275  1.2975  0.8274 -1.2829
  133OSM    C4F14420   5.822   1.671   6.480  0.1975  0.0104 -0.1106
  133OSM    H4F14421   5.808   1.563   6.458 -2.2085 -0.3558  2.8569
  133OSM    H4G14422   5.731   1.685   6.542  0.5331  0.6936  0.2282
  133OSM    C5F14423   5.950   1.710   6.567 -0.0464 -0.2236 -0.4502
  133OSM    H5F14424   5.943   1.817   6.596  0.2214 -0.6715  1.2929
  133OSM    H5G14425   6.038   1.697   6.500 -0.4096  0.2118 -1.0251
  133OSM    C6F14426   5.969   1.618   6.684 -0.0194  0.6128  0.6527
  133OSM    H6F14427   6.069   1.641   6.728  0.1181 -2.3478  2.0212
  133OSM    H6G14428   5.993   1.513   6.658 -0.4795  0.1234  2.1577
  133OSM    C7F14429   5.855   1.618   6.789 -0.1288 -0.1197  0.3530
  133OSM    H7F14430   5.877   1.529   6.852 -0.3623 -0.5284 -0.1379
  133OSM    H7G14431   5.761   1.599   6.732  0.2983 -0.0251 -0.3823
  133OSM    C8F14432   5.833   1.743   6.874  0.0617 -0.2480 -1.0823
  133OSM    H8F14433   5.741   1.719   6.932 -0.7505  0.9924 -1.8525
  133OSM    H8G14434   5.812   1.840   6.825  0.3548 -0.1617 -1.0423
  133OSM    C9F14435   5.956   1.764   6.958  0.1264 -0.4950 -0.1833
  133OSM    H9F14436   6.039   1.800   6.896  0.5051 -1.2538 -0.1274
  133OSM   C10F14437   5.973   1.745   7.091 -0.7614  0.0952  0.7846
  133OSM   H10F14438   6.069   1.770   7.138 -0.0313 -1.2525  0.0410
  133OSM   C11F14439   5.868   1.695   7.183 -0.5919  0.0269  0.7984
  133OSM   H11F14440   5.853   1.585   7.177  1.4288 -0.1203 -4.4654
  133OSM   H11G14441   5.772   1.743   7.154 -0.8016 -0.2426  1.0424
  133OSM   C12F14442   5.905   1.739   7.324  0.5831  0.2072 -0.6097
  133OSM   H12F14443   5.928   1.847   7.326  2.3585 -0.1476 -0.7772
  133OSM   H12G14444   6.005   1.699   7.351  1.2473  0.7293 -2.2447
  133OSM   C13F14445   5.797   1.707   7.423 -0.1987 -0.0047  0.4551
  133OSM   H13F14446   5.772   1.599   7.413  0.3834 -0.0048 -1.1351
  133OSM   H13G14447   5.709   1.773   7.408  0.8385  1.1205 -0.7784
  133OSM   C14F14448   5.841   1.725   7.567 -0.5516  0.4405 -0.2694
  133OSM   H14F14449   5.788   1.816   7.602 -0.8129 -0.5838  2.0873
  133OSM   H14G14450   5.948   1.753   7.574 -0.6369  0.7401 -0.1479
  133OSM   C15F14451   5.816   1.602   7.656 -0.4570 -0.2050  0.9286
  133OSM   H15F14452   5.869   1.516   7.609  1.6212  1.5719 -0.0834
  133OSM   H15G14453   5.711   1.566   7.660 -0.0426 -1.3781  1.3982
  133OSM   C16F14454   5.867   1.630   7.796 -0.0634 -0.0277  0.0018
  133OSM   H16F14455   5.966   1.679   7.803 -0.2599  0.6394 -1.5550
  133OSM   H16G14456   5.872   1.526   7.835 -1.7187  0.7831  2.4762
  133OSM   C17F14457   5.767   1.714   7.876  0.2489 -0.4580 -0.3164
  133OSM   H17F14458   5.665   1.670   7.876 -0.0926  0.3003  1.9017
  133OSM   H17G14459   5.743   1.811   7.827  1.4452 -0.7811 -1.5729
  133OSM   C18F14460   5.807   1.746   8.017 -0.2118 -0.4276  0.6462
  133OSM   H18F14461   5.710   1.760   8.068 -0.9001 -0.1851 -0.7091
  133OSM   H18G14462   5.862   1.843   8.020  0.8111 -0.9987  0.5002
  133OSM   H18H14463   5.864   1.667   8.069 -1.0054 -1.5261 -0.1458
  134OSM      N14464   6.429   5.453   6.041  0.0596 -0.6389  0.5960
  134OSM    C1514465   6.423   5.574   5.948  1.0279  0.0608 -0.1071
  134OSM   H15A14466   6.406   5.529   5.851 -0.9566 -2.8339  1.5452
  134OSM   H15B14467   6.518   5.627   5.945  1.0006  0.2252  1.7928
  134OSM   H15C14468   6.346   5.645   5.973 -0.4367 -1.7521  0.5452
  134OSM    C1414469   6.478   5.500   6.172 -0.1589  0.5921 -0.6308
  134OSM   H14A14470   6.480   5.418   6.242 -0.2970  1.7943  0.8124
  134OSM   H14B14471   6.422   5.583   6.213  1.2502  1.8777 -1.2210
  134OSM   H14C14472   6.581   5.533   6.177  0.4115 -1.2977  0.1595
  134OSM    C1314473   6.296   5.386   6.055  0.2319  0.1955  0.7893
  134OSM   H13A14474   6.230   5.462   6.092  0.5168  0.6578  0.3664
  134OSM   H13B14475   6.302   5.294   6.111  1.7127 -1.0961 -1.3784
  134OSM   H13C14476   6.257   5.352   5.960  0.4391 -2.6274  1.6710
  134OSM    C1214477   6.535   5.362   5.983 -0.0251  0.3418  0.2967
  134OSM   H12A14478   6.613   5.432   5.956 -1.4593  1.7765 -0.2164
  134OSM   H12B14479   6.496   5.322   5.891 -0.7778  0.2691  0.6412
  134OSM    C1114480   6.582   5.236   6.057 -0.2959 -0.8105  0.0578
  134OSM   H11A14481   6.628   5.269   6.153  1.8717  1.9369 -1.8219
  134OSM   H11B14482   6.673   5.193   6.010  0.1209  2.0318 -1.9150
  134OSM      P14483   6.446   5.039   5.983 -0.6585 -0.0266  0.1219
  134OSM    O1314484   6.362   5.099   5.872  0.0750  0.0863  0.2387
  134OSM    O1414485   6.575   4.970   5.941 -0.0621 -0.0217  0.1440
  134OSM    O1114486   6.354   4.928   6.055 -0.2855 -0.7706 -0.3415
  134OSM    O1214487   6.475   5.150   6.086  0.6611  0.4380 -0.0452
  134OSM    C1S14488   6.236   4.961   6.138 -0.1294 -0.6005 -0.5325
  134OSM    H1S14489   6.137   4.935   6.094 -0.6857  1.5226 -0.5952
  134OSM    H1T14490   6.226   5.070   6.159 -1.2681 -0.7419 -0.2762
  134OSM     NF14491   6.362   4.970   6.343  0.2358  0.2479 -0.3391
  134OSM    HNF14492   6.450   4.924   6.344  0.2013  0.1612 -1.0639
  134OSM    C2S14493   6.251   4.899   6.280 -0.7799 -0.2260 -0.8450
  134OSM    H2S14494   6.157   4.919   6.336 -1.9261 -0.8393 -2.4799
  134OSM    C3S14495   6.265   4.742   6.283 -0.0031 -0.5681  0.7954
  134OSM    H3S14496   6.357   4.701   6.235 -1.2645 -1.6105 -0.7976
  134OSM     O314497   6.159   4.669   6.218 -0.0614 -0.2528 -0.1610
  134OSM    HO314498   6.106   4.734   6.171  3.3614  0.9747 -2.5506
  134OSM    C4S14499   6.285   4.688   6.421 -0.4139  0.0161 -0.5697
  134OSM    H4S14500   6.385   4.704   6.465 -1.4359  1.2175  1.3521
  134OSM    C5S14501   6.189   4.629   6.492  0.1726 -0.4662 -0.3184
  134OSM    H5S14502   6.082   4.624   6.464  0.4000 -2.2872 -0.9202
  134OSM    C6S14503   6.214   4.589   6.635 -0.0326 -0.2300  0.4006
  134OSM    H6S14504   6.322   4.581   6.660  0.1375 -2.1708 -0.8985
  134OSM    H6T14505   6.178   4.487   6.660 -1.0222  0.8526  3.6951
  134OSM    C7S14506   6.148   4.686   6.729 -0.6315  0.5519 -0.6992
  134OSM    H7S14507   6.038   4.670   6.733 -0.6245  0.2963 -1.3854
  134OSM    H7T14508   6.171   4.791   6.704 -0.8895  0.8722  0.3770
  134OSM    C8S14509   6.203   4.671   6.876 -0.1679 -0.1615 -0.3892
  134OSM    H8S14510   6.162   4.760   6.928  0.4762 -0.5234  0.7634
  134OSM    H8T14511   6.313   4.689   6.876 -0.4262  1.5117 -1.0912
  134OSM    C9S14512   6.164   4.534   6.940 -0.2562 -0.1128  0.2202
  134OSM    H9S14513   6.223   4.464   6.877  1.0879  2.4798 -1.5071
  134OSM    H9T14514   6.057   4.508   6.928 -0.0470 -1.0470  0.3162
  134OSM   C10S14515   6.197   4.512   7.089  0.8226  0.3066 -0.2362
  134OSM   H10S14516   6.298   4.531   7.130  0.6448 -0.6941  0.7052
  134OSM   H10T14517   6.180   4.403   7.101  0.0635  0.5349  0.8452
  134OSM   C11S14518   6.096   4.582   7.190  0.3319 -0.2855 -0.4309
  134OSM   H11S14519   5.991   4.553   7.166  0.1888  0.5419 -0.7985
  134OSM   H11T14520   6.105   4.692   7.178  1.6566 -0.2472  0.7431
  134OSM   C12S14521   6.133   4.540   7.333  0.4721 -0.0488  0.5781
  134OSM   H12S14522   6.180   4.441   7.314  0.9798  0.4428 -0.8508
  134OSM   H12T14523   6.050   4.545   7.406 -0.0745 -2.4382  0.1574
  134OSM   C13S14524   6.242   4.635   7.388 -0.9195 -0.3815 -0.1454
  134OSM   H13S14525   6.209   4.741   7.387 -0.3931 -0.2203 -1.0067
  134OSM   H13T14526   6.324   4.621   7.314 -0.1312 -0.7044  0.7629
  134OSM   C14S14527   6.309   4.584   7.528  0.8001  0.5200 -0.1261
  134OSM   H14S14528   6.353   4.483   7.517 -2.4771 -1.0424  0.4428
  134OSM   H14T14529   6.240   4.571   7.614  0.4950 -0.4173 -0.5040
  134OSM   C15S14530   6.425   4.679   7.556 -0.6893 -0.0099  0.2094
  134OSM   H15S14531   6.389   4.779   7.589  1.4023  0.7767  0.1460
  134OSM   H15T14532   6.477   4.710   7.463 -0.1103  0.7982  0.8064
  134OSM   C16S14533   6.535   4.616   7.654  0.5665 -0.2787 -0.2356
  134OSM   H16S14534   6.622   4.684   7.660  0.8357 -0.7456  1.3221
  134OSM   H16T14535   6.578   4.523   7.613  1.2983 -0.6953  1.4516
  134OSM   C17S14536   6.477   4.594   7.789  0.7494  0.3445  0.2367
  134OSM   H17S14537   6.424   4.496   7.791 -1.7254  1.6622  0.3425
  134OSM   H17T14538   6.404   4.673   7.816  0.2701 -0.0536  0.1218
  134OSM   C18S14539   6.589   4.587   7.897  0.2296 -0.4446  0.4455
  134OSM   H18S14540   6.656   4.676   7.902 -1.0431  0.4588  1.5587
  134OSM   H18T14541   6.656   4.500   7.878 -1.1642 -1.5423  0.4950
  134OSM   H18U14542   6.549   4.565   7.999 -2.4904  0.2631 -0.4388
  134OSM    C1F14543   6.356   5.093   6.387 -0.1599  0.7176  0.2442
  134OSM     OF14544   6.249   5.146   6.399  0.2222  0.4130  0.3317
  134OSM    C2F14545   6.475   5.178   6.405  0.5346 -0.8592  0.2914
  134OSM    H2F14546   6.468   5.257   6.328  1.0330  1.2562  2.3496
  134OSM    H2G14547   6.568   5.124   6.379  0.1049 -1.1497 -0.6732
  134OSM    C3F14548   6.490   5.230   6.548  0.8754 -0.4328 -0.2344
  134OSM    H3F14549   6.395   5.278   6.583 -0.2643 -2.1847 -0.8461
  134OSM    H3G14550   6.568   5.308   6.545 -0.0359  0.5012 -0.0028
  134OSM    C4F14551   6.527   5.125   6.646  0.2565 -0.1123 -0.8216
  134OSM    H4F14552   6.619   5.072   6.613 -0.2178 -1.8262  0.5373
  134OSM    H4G14553   6.453   5.042   6.650 -0.9598  0.8582 -2.7707
  134OSM    C5F14554   6.565   5.187   6.782  0.8789  0.1094  0.4300
  134OSM    H5F14555   6.482   5.248   6.825 -0.0014  1.3210 -2.8209
  134OSM    H5G14556   6.651   5.255   6.767  0.8290  0.0868  0.0353
  134OSM    C6F14557   6.595   5.073   6.884 -0.0965  0.9305  0.2942
  134OSM    H6F14558   6.648   5.120   6.970  1.6009  0.9972 -0.7771
  134OSM    H6G14559   6.656   4.998   6.830 -0.2233 -0.0489  1.5069
  134OSM    C7F14560   6.479   5.003   6.959 -0.4358  0.0853 -0.3017
  134OSM    H7F14561   6.410   4.971   6.878 -1.0476 -0.8656  0.5925
  134OSM    H7G14562   6.422   5.074   7.022  0.4454  1.7230 -1.3214
  134OSM    C8F14563   6.521   4.874   7.031  0.0825 -0.0905 -0.3158
  134OSM    H8F14564   6.558   4.798   6.959  0.4158  1.7998 -2.1623
  134OSM    H8G14565   6.426   4.836   7.075 -0.3226  0.1306 -1.0096
  134OSM    C9F14566   6.625   4.898   7.134 -0.1555 -0.4129 -0.3620
  134OSM    H9F14567   6.585   4.938   7.228  2.8608 -1.4649  1.4364
  134OSM   C10F14568   6.758   4.864   7.128  0.1786 -0.2557 -0.1000
  134OSM   H10F14569   6.820   4.896   7.213 -2.0867 -1.5780  2.1230
  134OSM   C11F14570   6.833   4.792   7.026  0.0137  0.1367 -0.5408
  134OSM   H11F14571   6.763   4.741   6.956  0.9189 -3.0234  0.7597
  134OSM   H11G14572   6.888   4.715   7.083  1.4110  1.9623  0.6250
  134OSM   C12F14573   6.932   4.871   6.946 -0.1963  0.6354 -0.3394
  134OSM   H12F14574   7.003   4.913   7.021 -2.0563  0.4271  1.5716
  134OSM   H12G14575   6.886   4.960   6.897 -1.6712  0.3006  0.4179
  134OSM   C13F14576   7.021   4.790   6.848  0.4157 -0.9500 -0.7774
  134OSM   H13F14577   7.068   4.700   6.893 -0.8835 -0.8506  0.7985
  134OSM   H13G14578   7.106   4.860   6.836  0.7798 -0.6845  2.7723
  134OSM   C14F14579   6.952   4.764   6.717  0.5036 -0.0007  0.1889
  134OSM   H14F14580   6.873   4.839   6.697 -2.8048 -2.2387  4.0203
  134OSM   H14G14581   6.899   4.667   6.714  1.5663 -0.5443 -3.0374
  134OSM   C15F14582   7.048   4.751   6.597 -0.3069 -0.5540  0.5046
  134OSM   H15F14583   7.110   4.663   6.628 -1.0999 -1.1677  0.3524
  134OSM   H15G14584   7.115   4.838   6.579 -0.9978 -0.1182  0.0543
  134OSM   C16F14585   6.981   4.713   6.460 -1.1180 -0.1248  0.2262
  134OSM   H16F14586   6.889   4.773   6.450 -1.6311 -1.0077 -0.4608
  134OSM   H16G14587   6.941   4.610   6.469 -1.4536  0.0826  1.0979
  134OSM   C17F14588   7.065   4.708   6.334 -0.1936 -0.1548  0.3875
  134OSM   H17F14589   7.166   4.665   6.354 -0.2669 -2.4024 -3.6093
  134OSM   H17G14590   7.090   4.813   6.309  2.8993 -1.1523 -1.0468
  134OSM   C18F14591   6.998   4.638   6.217 -0.3131 -0.3069 -0.3614
  134OSM   H18F14592   7.040   4.665   6.118  0.0728 -0.0367 -0.1213
  134OSM   H18G14593   6.891   4.667   6.209 -0.4576 -0.7773 -0.1802
  134OSM   H18H14594   7.017   4.528   6.216 -1.4385 -0.5866  2.6388
  135OSM      N14595   5.832   5.529   5.735  0.0784 -0.0946 -0.5002
  135OSM    C1514596   5.725   5.588   5.823 -0.6407 -0.1871  0.2118
  135OSM   H15A14597   5.699   5.531   5.911 -1.2060  1.8893  1.4222
  135OSM   H15B14598   5.635   5.596   5.765 -1.8617 -0.2160  2.0725
  135OSM   H15C14599   5.765   5.681   5.862  1.1425 -0.8508  0.0422
  135OSM    C1414600   5.799   5.391   5.696 -0.7165 -0.1403 -0.5229
  135OSM   H14A14601   5.873   5.349   5.629 -1.9186 -1.6122 -0.9250
  135OSM   H14B14602   5.699   5.391   5.658 -0.6929 -1.9676 -0.6153
  135OSM   H14C14603   5.793   5.333   5.787 -1.2311  0.6963 -0.0139
  135OSM    C1314604   5.843   5.615   5.608  0.2782 -0.3854  0.2751
  135OSM   H13A14605   5.922   5.584   5.540  0.4613  1.2064 -0.2676
  135OSM   H13B14606   5.873   5.713   5.640  1.3226 -0.4994 -0.3342
  135OSM   H13C14607   5.746   5.626   5.561  1.1231 -0.6465 -1.5696
  135OSM    C1214608   5.965   5.536   5.806 -0.2051 -0.0028 -0.2861
  135OSM   H12A14609   6.040   5.517   5.731  1.1609  0.2744  0.9807
  135OSM   H12B14610   5.971   5.449   5.869 -0.9667 -0.6187 -1.0591
  135OSM    C1114611   5.995   5.661   5.896  0.1978 -0.5423 -0.0637
  135OSM   H11A14612   6.093   5.652   5.947  1.0937 -2.1743 -2.0111
  135OSM   H11B14613   5.912   5.658   5.970 -0.2376 -3.4955 -0.5827
  135OSM      P14614   5.949   5.915   5.895 -0.3870 -0.0910  0.1711
  135OSM    O1314615   5.950   6.032   5.808  0.1187 -0.6081 -0.4886
  135OSM    O1414616   5.829   5.885   5.973  0.4157 -0.1353 -0.3868
  135OSM    O1114617   6.068   5.932   5.997 -0.3178  0.2177 -0.7388
  135OSM    O1214618   5.987   5.780   5.819 -0.5905 -0.0032 -0.2697
  135OSM    C1S14619   6.031   5.987   6.129 -0.4026 -0.0603 -0.3329
  135OSM    H1S14620   6.019   5.901   6.198 -0.4572 -0.4128 -0.7809
  135OSM    H1T14621   5.936   6.045   6.132  0.2285  1.0205 -0.7412
  135OSM     NF14622   6.096   6.131   6.307 -0.3801 -0.2220  0.3952
  135OSM    HNF14623   6.043   6.216   6.307 -1.2393 -0.7506  0.6086
  135OSM    C2S14624   6.146   6.083   6.178  0.5373  0.0479  0.6890
  135OSM    H2S14625   6.244   6.034   6.194  1.2123  1.1392  0.0052
  135OSM    C3S14626   6.176   6.196   6.067  0.0137  0.3218 -0.1724
  135OSM    H3S14627   6.085   6.256   6.047  0.6234  1.1947 -0.3710
  135OSM     O314628   6.208   6.154   5.936  0.1010 -0.0841  1.0819
  135OSM    HO314629   6.180   6.062   5.935 -1.9920  0.4879 -3.0592
  135OSM    C4S14630   6.278   6.291   6.125 -0.3718 -0.0589 -0.4544
  135OSM    H4S14631   6.234   6.375   6.180 -1.9586 -1.9253  1.2113
  135OSM    C5S14632   6.412   6.273   6.116  0.3867 -0.4124 -0.4536
  135OSM    H5S14633   6.453   6.175   6.087 -2.0851 -1.1895 -1.4807
  135OSM    C6S14634   6.503   6.372   6.188 -0.8448 -0.2672  0.2347
  135OSM    H6S14635   6.455   6.466   6.224 -0.4517  1.3699 -3.3503
  135OSM    H6T14636   6.590   6.403   6.126 -1.1934 -3.4133 -1.9036
  135OSM    C7S14637   6.557   6.306   6.314  0.2509 -0.6993  0.3976
  135OSM    H7S14638   6.610   6.383   6.374  0.7236 -0.4807 -0.3133
  135OSM    H7T14639   6.643   6.238   6.297 -0.1837 -1.7310  2.1743
  135OSM    C8S14640   6.445   6.241   6.403  0.0107 -0.3489 -0.1741
  135OSM    H8S14641   6.404   6.149   6.358 -1.0145  0.4149 -0.8178
  135OSM    H8T14642   6.361   6.313   6.402 -0.6065 -0.9706  2.7090
  135OSM    C9S14643   6.506   6.222   6.547 -0.8420 -0.8352  0.2552
  135OSM    H9S14644   6.542   6.314   6.598  2.0405 -1.0293 -1.2996
  135OSM    H9T14645   6.606   6.174   6.533 -0.0240  1.0710 -0.5984
  135OSM   C10S14646   6.421   6.144   6.648  0.1607 -0.6302  0.3956
  135OSM   H10S14647   6.479   6.071   6.708  0.3120  0.4461  1.5728
  135OSM   H10T14648   6.361   6.075   6.585  1.3405 -0.6880 -0.6702
  135OSM   C11S14649   6.325   6.235   6.732 -0.5820  0.5508  0.1236
  135OSM   H11S14650   6.256   6.273   6.653 -1.8936  0.0217  0.9950
  135OSM   H11T14651   6.368   6.320   6.788  1.0798 -0.7811  0.9106
  135OSM   C12S14652   6.238   6.154   6.828  0.4100  0.1149  0.4422
  135OSM   H12S14653   6.192   6.070   6.770 -0.6302 -0.3027  1.8492
  135OSM   H12T14654   6.157   6.221   6.863 -0.2051 -0.0158 -0.6896
  135OSM   C13S14655   6.314   6.109   6.952  0.4052 -0.1174 -0.1087
  135OSM   H13S14656   6.367   6.194   7.001  0.4339 -0.8027  1.0673
  135OSM   H13T14657   6.388   6.033   6.921  1.0818  0.0268  1.1395
  135OSM   C14S14658   6.222   6.041   7.059  0.1880  0.4715  0.9159
  135OSM   H14S14659   6.182   5.951   7.008  0.5894  0.0350  1.3600
  135OSM   H14T14660   6.141   6.117   7.054  0.6746  0.9287 -0.2872
  135OSM   C15S14661   6.278   6.018   7.200 -0.3600  0.2822  0.0837
  135OSM   H15S14662   6.190   5.991   7.263  0.7474  0.2002  1.6394
  135OSM   H15T14663   6.327   6.110   7.238 -0.8216  0.4615  0.2446
  135OSM   C16S14664   6.378   5.899   7.195  0.5146 -0.0135 -1.4662
  135OSM   H16S14665   6.454   5.917   7.116  0.8323 -1.0425 -1.4106
  135OSM   H16T14666   6.335   5.803   7.159 -0.7088 -0.3804  0.8619
  135OSM   C17S14667   6.464   5.879   7.321  0.5079  0.5117 -0.3736
  135OSM   H17S14668   6.508   5.979   7.340  0.1138  0.4267  1.0575
  135OSM   H17T14669   6.547   5.809   7.298 -0.3064  0.0359 -1.8786
  135OSM   C18S14670   6.375   5.832   7.441 -0.0856  0.0071  0.3923
  135OSM   H18S14671   6.298   5.907   7.470 -0.5073 -0.6854  1.0786
  135OSM   H18T14672   6.434   5.807   7.532 -0.7797 -3.4262 -0.0488
  135OSM   H18U14673   6.308   5.751   7.408  1.1016 -1.0922  0.6314
  135OSM    C1F14674   6.097   6.060   6.410  0.2911 -0.7210  0.0152
  135OSM     OF14675   6.164   5.958   6.414  0.6094 -0.1233 -0.0436
  135OSM    C2F14676   6.013   6.120   6.521 -0.0853 -0.0666 -0.1501
  135OSM    H2F14677   5.932   6.177   6.471 -0.4889  0.9571  1.6201
  135OSM    H2G14678   6.076   6.190   6.581 -1.2489  0.2662  0.7200
  135OSM    C3F14679   5.932   6.028   6.617  0.1435 -0.5086  0.3441
  135OSM    H3F14680   5.999   5.962   6.676  2.5539 -0.5837 -2.3945
  135OSM    H3G14681   5.862   5.964   6.558 -0.5148  0.2300  0.3148
  135OSM    C4F14682   5.855   6.116   6.721 -0.3029 -0.4092 -0.2588
  135OSM    H4F14683   5.811   6.206   6.671 -2.1413 -0.5882  0.9954
  135OSM    H4G14684   5.925   6.144   6.803 -1.9172  0.7506  0.7470
  135OSM    C5F14685   5.737   6.054   6.794 -0.2297  0.3147 -0.0625
  135OSM    H5F14686   5.668   6.002   6.724  1.7909 -2.0638 -0.3793
  135OSM    H5G14687   5.668   6.126   6.843 -0.4043 -0.8687  1.4894
  135OSM    C6F14688   5.786   5.949   6.898 -0.0690 -0.1129 -0.1155
  135OSM    H6F14689   5.863   5.882   6.854  0.3465  0.6644 -0.5807
  135OSM    H6G14690   5.700   5.887   6.930 -0.8518  0.0636 -1.8284
  135OSM    C7F14691   5.821   6.017   7.030 -0.1151  0.3859 -0.1640
  135OSM    H7F14692   5.728   6.064   7.069  0.1589  0.9274 -0.1538
  135OSM    H7G14693   5.895   6.098   7.012  1.8408 -0.5608  3.2302
  135OSM    C8F14694   5.887   5.930   7.136  0.1649 -0.1841  0.2021
  135OSM    H8F14695   5.941   6.000   7.204 -1.3802  0.2192  1.0510
  135OSM    H8G14696   5.975   5.876   7.096 -1.4574 -1.3971 -1.8130
  135OSM    C9F14697   5.796   5.842   7.211  0.2000  0.5480 -0.4881
  135OSM    H9F14698   5.742   5.768   7.150 -1.2837  0.7143  0.5962
  135OSM   C10F14699   5.774   5.833   7.345  0.3416  0.4185 -0.1043
  135OSM   H10F14700   5.724   5.740   7.376  0.2023  0.0865 -1.3342
  135OSM   C11F14701   5.838   5.914   7.454  0.3251  0.0564  0.3386
  135OSM   H11F14702   5.757   5.942   7.524 -0.7345 -2.6171  0.2479
  135OSM   H11G14703   5.872   6.010   7.410  4.1799 -0.8919  1.1193
  135OSM   C12F14704   5.960   5.853   7.524 -0.4750  0.0740 -0.0631
  135OSM   H12F14705   6.038   5.835   7.447 -0.5222  0.6353 -0.2487
  135OSM   H12G14706   5.935   5.749   7.551 -0.2597 -0.0807 -0.4600
  135OSM   C13F14707   6.009   5.925   7.643 -0.1111 -1.1106  0.3860
  135OSM   H13F14708   5.920   5.968   7.694 -0.2495 -0.4789 -0.3785
  135OSM   H13G14709   6.069   6.011   7.607  0.5131 -2.1069 -1.0093
  135OSM   C14F14710   6.100   5.857   7.744 -0.7595 -0.3685  0.0273
  135OSM   H14F14711   6.179   5.803   7.688  0.4436  0.5875  0.7739
  135OSM   H14G14712   6.041   5.779   7.796  1.5001  0.2881  3.7749
  135OSM   C15F14713   6.159   5.957   7.844 -0.6922  0.1888 -0.0617
  135OSM   H15F14714   6.076   6.011   7.894  0.5545  0.2472  1.9654
  135OSM   H15G14715   6.211   6.035   7.784  0.4784 -0.4110  0.1659
  135OSM   C16F14716   6.253   5.890   7.943  0.5443 -0.0472  0.6206
  135OSM   H16F14717   6.339   5.844   7.889 -0.1348 -0.9486  0.2894
  135OSM   H16G14718   6.200   5.809   7.999 -1.9292  0.0332 -1.5208
  135OSM   C17F14719   6.308   5.974   8.057  0.1460  0.1742 -0.1888
  135OSM   H17F14720   6.234   5.973   8.140 -0.1084 -3.0952 -0.3840
  135OSM   H17G14721   6.328   6.077   8.023 -0.2907 -0.0714 -1.2029
  135OSM   C18F14722   6.429   5.905   8.118  0.1495  0.2412 -0.3545
  135OSM   H18F14723   6.404   5.799   8.141  0.1791  0.4002  0.4189
  135OSM   H18G14724   6.442   5.959   8.214 -0.5842  0.9454 -0.6457
  135OSM   H18H14725   6.519   5.921   8.054  1.9112 -0.0118  1.9837
  136OSM      N14726   3.412   6.923   5.557  0.1891 -0.4482 -0.5406
  136OSM    C1514727   3.274   6.929   5.621  0.1932  0.0638  0.6438
  136OSM   H15A14728   3.241   6.827   5.634 -0.5812 -0.4231 -4.0798
  136OSM   H15B14729   3.201   6.976   5.555 -1.0595 -3.6882 -0.7585
  136OSM   H15C14730   3.269   6.984   5.714  1.7505  0.0742  0.7300
  136OSM    C1414731   3.409   6.838   5.441  0.3760 -0.3381  0.0914
  136OSM   H14A14732   3.359   6.745   5.464 -2.6048  1.0953 -0.3470
  136OSM   H14B14733   3.509   6.816   5.406  0.0619 -0.2428 -0.8951
  136OSM   H14C14734   3.356   6.884   5.359  2.4444 -1.6856 -2.0842
  136OSM    C1314735   3.453   7.060   5.514  0.4406 -0.1158  0.3628
  136OSM   H13A14736   3.474   7.134   5.591  0.5719  2.9875 -2.5175
  136OSM   H13B14737   3.387   7.101   5.439  1.1675  1.4359  0.5470
  136OSM   H13C14738   3.546   7.046   5.460  0.0921 -1.4715  0.1021
  136OSM    C1214739   3.506   6.863   5.655  0.1262 -0.3661 -0.3999
  136OSM   H12A14740   3.468   6.762   5.668 -1.6159  0.2584 -0.5758
  136OSM   H12B14741   3.488   6.915   5.748 -1.7707 -0.5988 -0.6254
  136OSM    C1114742   3.657   6.846   5.623  0.5485 -1.0492  0.3297
  136OSM   H11A14743   3.671   6.793   5.526  1.6363  3.0564 -1.8907
  136OSM   H11B14744   3.692   6.785   5.709  0.0788 -0.5180  0.8953
  136OSM      P14745   3.755   7.056   5.739 -0.3798 -0.0225  0.3775
  136OSM    O1314746   3.827   7.176   5.690 -0.0273  0.0668  0.2949
  136OSM    O1414747   3.642   7.076   5.836 -0.2725  0.2176 -0.8074
  136OSM    O1114748   3.868   6.957   5.798 -0.3717 -0.7843  0.7430
  136OSM    O1214749   3.709   6.981   5.608 -0.2158  0.5047 -0.2307
  136OSM    C1S14750   3.936   6.996   5.919 -0.1199 -0.0130  0.4919
  136OSM    H1S14751   3.897   7.088   5.967 -1.4793  0.0832 -0.7220
  136OSM    H1T14752   4.042   7.019   5.896  0.1605 -1.2631  0.5097
  136OSM     NF14753   3.973   6.921   6.152  0.4800 -0.3914 -0.2016
  136OSM    HNF14754   4.066   6.895   6.178  1.3797  3.1167  0.3952
  136OSM    C2S14755   3.930   6.878   6.021  0.3749  0.0157 -0.5935
  136OSM    H2S14756   3.824   6.845   6.021  0.9538 -2.0512 -3.0701
  136OSM    C3S14757   4.009   6.755   5.974  0.1606 -0.3417 -0.2653
  136OSM    H3S14758   4.113   6.794   5.970  0.4293 -0.9691  0.3740
  136OSM     O314759   3.980   6.716   5.838 -0.8100  0.0407  0.8116
  136OSM    HO314760   3.914   6.776   5.802 -1.0982 -1.2506 -0.8720
  136OSM    C4S14761   3.998   6.637   6.071 -0.4256  0.1740  0.5354
  136OSM    H4S14762   3.898   6.632   6.117 -1.1478 -1.2154 -1.1164
  136OSM    C5S14763   4.090   6.545   6.098  0.0680  0.0321 -0.4392
  136OSM    H5S14764   4.189   6.554   6.050  0.2505 -1.4289 -0.3558
  136OSM    C6S14765   4.060   6.431   6.195  0.1601  0.3000  0.6400
  136OSM    H6S14766   4.100   6.337   6.151 -0.2254  1.3249 -1.9937
  136OSM    H6T14767   3.950   6.429   6.205  0.0745 -0.9115 -0.3345
  136OSM    C7S14768   4.119   6.464   6.331 -0.2137 -0.6667  0.0553
  136OSM    H7S14769   4.055   6.550   6.360  1.1823  2.7725 -6.0776
  136OSM    H7T14770   4.223   6.502   6.330 -0.4646  0.0296  0.4371
  136OSM    C8S14771   4.109   6.349   6.428 -1.0411  0.2167 -0.3833
  136OSM    H8S14772   4.173   6.269   6.387  0.0161  0.6612  0.3873
  136OSM    H8T14773   4.007   6.305   6.435 -0.2683 -1.5314  0.2537
  136OSM    C9S14774   4.156   6.389   6.571  0.1035  0.3171 -0.2857
  136OSM    H9S14775   4.080   6.463   6.605  1.2033  2.3148 -2.0219
  136OSM    H9T14776   4.257   6.434   6.559  0.7004 -0.2770  2.2590
  136OSM   C10S14777   4.162   6.277   6.676 -0.0409 -0.1390  0.7300
  136OSM   H10S14778   4.237   6.198   6.655  1.0896  0.5204  2.2299
  136OSM   H10T14779   4.063   6.233   6.700 -1.8773  3.6047  0.3260
  136OSM   C11S14780   4.206   6.345   6.807  0.0589 -0.3144 -0.3870
  136OSM   H11S14781   4.122   6.406   6.847  0.1858 -2.0888  2.7367
  136OSM   H11T14782   4.295   6.399   6.768  0.3090 -0.1427  0.4222
  136OSM   C12S14783   4.230   6.241   6.919 -0.3283 -0.4464  0.0834
  136OSM   H12S14784   4.329   6.191   6.909 -0.5678 -0.6439 -1.5078
  136OSM   H12T14785   4.151   6.164   6.921 -2.6412  1.8353 -1.0336
  136OSM   C13S14786   4.243   6.314   7.062  0.2899  0.4517  0.7849
  136OSM   H13S14787   4.146   6.368   7.075 -0.8573 -1.2361 -0.5806
  136OSM   H13T14788   4.320   6.393   7.075  0.7318  0.2318 -0.4554
  136OSM   C14S14789   4.253   6.211   7.176 -0.0989  0.5164  0.0220
  136OSM   H14S14790   4.261   6.110   7.132 -1.9863 -0.7813  2.5577
  136OSM   H14T14791   4.165   6.220   7.244 -0.9771  1.4338 -1.1870
  136OSM   C15S14792   4.375   6.242   7.268  0.5182 -0.1471  0.2560
  136OSM   H15S14793   4.362   6.347   7.305 -1.3678 -0.2278 -0.1229
  136OSM   H15T14794   4.465   6.263   7.207  0.7189 -1.5516  0.0717
  136OSM   C16S14795   4.409   6.137   7.379 -0.8242 -0.4067  0.2783
  136OSM   H16S14796   4.394   6.039   7.329 -0.9008  0.7699 -2.0713
  136OSM   H16T14797   4.338   6.148   7.464  2.5650  0.4111  3.1010
  136OSM   C17S14798   4.555   6.154   7.415 -0.4768  1.1247 -0.7892
  136OSM   H17S14799   4.588   6.260   7.423 -2.2870  1.6293  0.0939
  136OSM   H17T14800   4.617   6.098   7.341 -0.6547 -0.0444 -0.0591
  136OSM   C18S14801   4.572   6.098   7.552  0.2247  0.0452 -0.6562
  136OSM   H18S14802   4.539   5.993   7.569 -0.1577  0.1710 -0.6284
  136OSM   H18T14803   4.503   6.158   7.615 -0.7696 -0.1497 -1.5554
  136OSM   H18U14804   4.674   6.108   7.595 -1.1206 -1.3390  3.1243
  136OSM    C1F14805   3.904   7.014   6.223  0.3446 -0.1631 -0.1171
  136OSM     OF14806   3.811   7.073   6.179 -0.2544  0.7021 -0.0447
  136OSM    C2F14807   3.932   7.033   6.370  0.6461  0.5654  0.0801
  136OSM    H2F14808   4.017   7.103   6.385  0.6760  0.5555 -0.0422
  136OSM    H2G14809   3.953   6.935   6.418 -0.4807 -0.4915 -1.5375
  136OSM    C3F14810   3.807   7.092   6.438 -0.0790  0.1300 -0.1631
  136OSM    H3F14811   3.717   7.035   6.408  0.6219 -0.6586 -0.8017
  136OSM    H3G14812   3.806   7.197   6.402  1.0862  1.4658  3.4592
  136OSM    C4F14813   3.821   7.077   6.593 -0.4357 -0.2573  0.8203
  136OSM    H4F14814   3.855   7.172   6.639 -0.1499 -0.6234  1.3730
  136OSM    H4G14815   3.889   6.995   6.627  1.6912  1.0982 -0.0886
  136OSM    C5F14816   3.678   7.033   6.644 -0.4360  0.4393 -0.1544
  136OSM    H5F14817   3.651   6.937   6.594 -1.4979 -0.6160  2.3912
  136OSM    H5G14818   3.609   7.111   6.606 -1.2041 -1.2765 -2.4891
  136OSM    C6F14819   3.668   7.031   6.799  0.2338  0.4668  0.8655
  136OSM    H6F14820   3.714   7.122   6.843 -0.0629  1.4795 -0.8685
  136OSM    H6G14821   3.731   6.949   6.840 -1.7027 -0.8808  1.2273
  136OSM    C7F14822   3.528   7.027   6.846 -0.1394  0.2653 -0.4074
  136OSM    H7F14823   3.476   6.949   6.788  0.8412 -0.0773 -0.8332
  136OSM    H7G14824   3.483   7.123   6.812 -1.2598 -0.0069  0.2579
  136OSM    C8F14825   3.531   7.008   6.997 -0.3786  0.2857  0.1312
  136OSM    H8F14826   3.438   7.044   7.046 -0.5615 -1.9747  1.5292
  136OSM    H8G14827   3.609   7.061   7.054 -0.4776  0.4461  0.1164
  136OSM    C9F14828   3.535   6.865   7.029  0.3751  0.6214 -0.5725
  136OSM    H9F14829   3.491   6.800   6.951 -0.5400  1.4018 -0.7236
  136OSM   C10F14830   3.542   6.804   7.148 -0.5451  0.5847  0.4272
  136OSM   H10F14831   3.522   6.697   7.137 -5.1220  1.2954  1.0839
  136OSM   C11F14832   3.556   6.852   7.289  0.1312 -0.5623  0.3141
  136OSM   H11F14833   3.569   6.963   7.288  1.3352 -0.6934  0.6425
  136OSM   H11G14834   3.651   6.815   7.332  1.1734  1.9268  0.2884
  136OSM   C12F14835   3.443   6.820   7.387 -0.0163  0.2865 -0.0584
  136OSM   H12F14836   3.450   6.710   7.395  1.2750  0.4814  1.8037
  136OSM   H12G14837   3.344   6.832   7.339 -1.3989 -1.4608  2.2702
  136OSM   C13F14838   3.456   6.889   7.519 -0.0165  0.1481 -0.6203
  136OSM   H13F14839   3.419   6.994   7.523  0.4379  0.2284  2.1459
  136OSM   H13G14840   3.563   6.894   7.547  0.0060  1.2195 -0.8546
  136OSM   C14F14841   3.377   6.822   7.635  0.1654 -0.3404 -0.5270
  136OSM   H14F14842   3.395   6.712   7.641  1.0119 -0.2270 -0.7923
  136OSM   H14G14843   3.268   6.819   7.618 -0.1798  1.8225  1.0912
  136OSM   C15F14844   3.423   6.883   7.769 -0.2169 -0.2590 -0.2177
  136OSM   H15F14845   3.420   6.993   7.754  2.3780 -0.1745 -0.3976
  136OSM   H15G14846   3.528   6.851   7.789  0.2114  0.4772 -1.2731
  136OSM   C16F14847   3.340   6.824   7.885  0.5149  0.3949 -0.0518
  136OSM   H16F14848   3.353   6.714   7.881 -1.0830  0.1798  0.0583
  136OSM   H16G14849   3.231   6.848   7.882  0.6383  0.9755 -0.0109
  136OSM   C17F14850   3.388   6.867   8.022  0.3579  0.1245 -0.4537
  136OSM   H17F14851   3.385   6.978   8.022 -0.7726  0.1473  3.4590
  136OSM   H17G14852   3.493   6.833   8.036  0.5631  1.5455  1.6735
  136OSM   C18F14853   3.325   6.785   8.136 -1.7452  0.2466 -0.0013
  136OSM   H18F14854   3.381   6.805   8.230 -1.4993  0.9202 -0.2883
  136OSM   H18G14855   3.320   6.676   8.117  0.5064  0.0715  0.2703
  136OSM   H18H14856   3.221   6.820   8.149 -1.6332  0.8305 -0.6544
  137OSM      N14857   0.974   4.750   5.886  0.1878 -0.2083 -0.0023
  137OSM    C1514858   1.004   4.633   5.962 -0.1625 -0.4456  0.3565
  137OSM   H15A14859   1.059   4.559   5.905 -0.0700 -0.6464  0.7079
  137OSM   H15B14860   0.910   4.585   5.982 -1.1836  1.8669  1.2798
  137OSM   H15C14861   1.044   4.658   6.059 -2.0823  0.4489  0.9506
  137OSM    C1414862   0.904   4.835   5.986  0.0704 -1.1173 -0.4284
  137OSM   H14A14863   0.939   4.829   6.088 -2.1801 -0.0590  0.4323
  137OSM   H14B14864   0.800   4.811   5.995  0.0305 -2.0047 -2.8140
  137OSM   H14C14865   0.901   4.939   5.956  0.1728 -0.8880  0.3413
  137OSM    C1314866   1.101   4.821   5.856 -0.0996  0.9098 -0.1678
  137OSM   H13A14867   1.178   4.751   5.826 -0.1227  0.2632  1.2461
  137OSM   H13B14868   1.142   4.885   5.933  0.0502 -0.2427  0.7310
  137OSM   H13C14869   1.088   4.882   5.768 -3.6855 -0.1500 -0.4285
  137OSM    C1214870   0.892   4.729   5.760  0.3660  0.6129 -0.1188
  137OSM   H12A14871   0.925   4.646   5.700 -0.3263  0.2146  0.0478
  137OSM   H12B14872   0.909   4.814   5.696 -0.7772  1.7415  1.0299
  137OSM    C1114873   0.738   4.706   5.786 -0.2638  0.1927  0.4374
  137OSM   H11A14874   0.680   4.694   5.692  2.0521 -0.6510 -0.9232
  137OSM   H11B14875   0.709   4.803   5.831 -2.1458  0.7109 -1.7881
  137OSM      P14876   0.605   4.595   5.973  0.0833  0.2579 -0.3094
  137OSM    O1314877   0.646   4.672   6.087  0.1649 -0.0927  0.2584
  137OSM    O1414878   0.475   4.627   5.916  0.2522  0.6733 -0.4238
  137OSM    O1114879   0.608   4.436   6.002  0.5158 -0.1758 -0.4847
  137OSM    O1214880   0.720   4.589   5.862 -0.0413 -0.1083 -0.4553
  137OSM    C1S14881   0.710   4.383   6.085  0.6131 -0.4762 -0.3109
  137OSM    H1S14882   0.802   4.442   6.064 -1.1328  2.6021  0.3233
  137OSM    H1T14883   0.718   4.279   6.048 -0.3687 -0.6092 -0.1789
  137OSM     NF14884   0.780   4.321   6.308 -0.2065 -0.1072  0.1692
  137OSM    HNF14885   0.760   4.229   6.340 -0.5813  0.2608  1.0022
  137OSM    C2S14886   0.669   4.379   6.237 -0.5921 -0.2091  0.2323
  137OSM    H2S14887   0.655   4.479   6.284  2.4915 -0.2783  1.4042
  137OSM    C3S14888   0.535   4.299   6.259  0.5609  0.8375 -0.0064
  137OSM    H3S14889   0.548   4.189   6.252 -1.5696  0.5818 -0.3017
  137OSM     O314890   0.427   4.323   6.169 -0.3979 -0.2029 -0.4144
  137OSM    HO314891   0.466   4.400   6.126  0.5197  0.2035  1.1275
  137OSM    C4S14892   0.492   4.321   6.404  0.4679 -0.1327  0.4472
  137OSM    H4S14893   0.492   4.426   6.439  0.2536 -0.3228  1.0239
  137OSM    C5S14894   0.464   4.226   6.494  0.0716 -0.5393 -0.3992
  137OSM    H5S14895   0.473   4.123   6.456 -0.8234 -1.2713  1.3428
  137OSM    C6S14896   0.424   4.247   6.635  0.7226 -0.6525  0.3674
  137OSM    H6S14897   0.352   4.168   6.663  0.5589 -0.5937  0.1113
  137OSM    H6T14898   0.384   4.349   6.654 -0.0742 -0.8753 -0.1240
  137OSM    C7S14899   0.541   4.250   6.743 -0.6134 -0.1850 -0.2116
  137OSM    H7S14900   0.599   4.342   6.723 -1.1025  0.4352  1.2347
  137OSM    H7T14901   0.607   4.161   6.732 -0.0016  0.2715 -0.2833
  137OSM    C8S14902   0.496   4.253   6.894 -0.5357  0.0254 -0.0642
  137OSM    H8S14903   0.471   4.147   6.914 -1.7095 -0.1132 -2.1243
  137OSM    H8T14904   0.415   4.327   6.913 -0.3937 -0.1071  1.0505
  137OSM    C9S14905   0.608   4.286   6.997  0.0329 -0.2836 -0.5694
  137OSM    H9S14906   0.643   4.390   6.983 -2.6317  0.5587 -1.0729
  137OSM    H9T14907   0.684   4.207   6.974 -0.3413 -0.6236 -0.6416
  137OSM   C10S14908   0.554   4.249   7.134 -0.1035 -0.4282 -0.4355
  137OSM   H10S14909   0.493   4.158   7.119  0.1390 -0.7563  0.5492
  137OSM   H10T14910   0.483   4.332   7.157 -1.3809 -1.6595  0.1692
  137OSM   C11S14911   0.658   4.254   7.243 -0.4609  0.3463 -0.0602
  137OSM   H11S14912   0.709   4.352   7.257  1.2492 -0.6359  0.8130
  137OSM   H11T14913   0.733   4.183   7.202  0.3657  0.4141  1.2943
  137OSM   C12S14914   0.620   4.188   7.375  0.2207  0.2925 -0.2900
  137OSM   H12S14915   0.577   4.091   7.341  0.5284  0.8241 -2.2726
  137OSM   H12T14916   0.532   4.233   7.426  1.1737  1.9027 -0.0510
  137OSM   C13S14917   0.731   4.190   7.477 -0.5522  0.8824 -0.8211
  137OSM   H13S14918   0.825   4.137   7.452 -1.5800 -1.3724 -0.0297
  137OSM   H13T14919   0.678   4.130   7.554  0.1996 -0.3230 -1.2371
  137OSM   C14S14920   0.749   4.332   7.531  0.1530 -0.4185 -0.1404
  137OSM   H14S14921   0.650   4.370   7.565  0.2497 -0.1655 -0.1403
  137OSM   H14T14922   0.795   4.402   7.457 -0.7187  2.3602  1.8850
  137OSM   C15S14923   0.823   4.329   7.670  0.4062  0.9032 -0.1168
  137OSM   H15S14924   0.928   4.294   7.664 -0.4041 -1.4732 -1.0043
  137OSM   H15T14925   0.772   4.266   7.746 -1.7772 -0.1902 -2.4347
  137OSM   C16S14926   0.833   4.473   7.722  0.6453 -0.9001  0.3383
  137OSM   H16S14927   0.729   4.501   7.751  0.3873 -1.2736 -0.2206
  137OSM   H16T14928   0.871   4.549   7.651 -1.1993 -0.1888  0.0773
  137OSM   C17S14929   0.924   4.483   7.841  0.0892 -0.5620 -0.0631
  137OSM   H17S14930   1.022   4.442   7.808 -0.0522 -0.4228 -0.6731
  137OSM   H17T14931   0.885   4.419   7.923  0.0159  0.8300  0.9905
  137OSM   C18S14932   0.952   4.629   7.891 -0.7039  0.3423  0.2818
  137OSM   H18S14933   1.053   4.640   7.935 -0.2155  1.7967 -1.1427
  137OSM   H18T14934   0.883   4.656   7.973 -1.3630  0.3465 -0.2695
  137OSM   H18U14935   0.945   4.697   7.804  1.4653  0.9637  0.5697
  137OSM    C1F14936   0.903   4.376   6.325 -0.2823  0.6769 -0.3085
  137OSM     OF14937   0.925   4.496   6.296 -0.2308 -0.1674  0.2408
  137OSM    C2F14938   1.016   4.286   6.372 -0.7133  0.2741 -0.4096
  137OSM    H2F14939   1.103   4.312   6.309 -0.6992  2.8032  0.6032
  137OSM    H2G14940   0.996   4.179   6.350 -2.7283  0.0791  2.1107
  137OSM    C3F14941   1.051   4.292   6.526  0.7541 -1.2093 -0.4263
  137OSM    H3F14942   1.136   4.224   6.547  1.6059 -0.2281 -0.6964
  137OSM    H3G14943   0.965   4.251   6.583  0.0562  1.1908  0.2982
  137OSM    C4F14944   1.093   4.430   6.572  0.8989 -0.0573 -0.3491
  137OSM    H4F14945   1.016   4.508   6.554  0.3120 -0.7020 -0.6562
  137OSM    H4G14946   1.184   4.458   6.515  1.7065  0.0633  0.9730
  137OSM    C5F14947   1.139   4.432   6.722 -0.5318 -0.3418 -0.4645
  137OSM    H5F14948   1.190   4.530   6.736 -0.0092 -0.5013 -1.2115
  137OSM    H5G14949   1.209   4.346   6.727 -0.6742 -0.4402 -0.2068
  137OSM    C6F14950   1.029   4.406   6.828  0.8889 -0.0411 -0.0061
  137OSM    H6F14951   1.084   4.387   6.923 -1.7541 -1.0767  1.3603
  137OSM    H6G14952   0.968   4.318   6.800 -0.6713  0.9052  0.3713
  137OSM    C7F14953   0.939   4.526   6.843 -0.0959  1.0246  0.5811
  137OSM    H7F14954   0.845   4.527   6.783  0.2958  0.5924 -0.0427
  137OSM    H7G14955   0.987   4.612   6.793  0.6388 -0.9377 -2.2180
  137OSM    C8F14956   0.909   4.548   6.991 -0.4590 -0.6489  0.0601
  137OSM    H8F14957   0.922   4.449   7.040 -0.3752  0.0929  1.5656
  137OSM    H8G14958   0.808   4.589   7.012 -0.1211 -1.6743  4.0455
  137OSM    C9F14959   1.010   4.653   7.039 -0.4777  0.4085 -0.0386
  137OSM    H9F14960   1.087   4.682   6.967  3.3736 -1.5299  3.1283
  137OSM   C10F14961   1.016   4.704   7.167 -0.5641 -0.4621  0.5895
  137OSM   H10F14962   1.099   4.769   7.199  0.6506 -2.0051  0.6928
  137OSM   C11F14963   0.922   4.661   7.279  0.2862  0.3292  0.1201
  137OSM   H11F14964   0.926   4.552   7.301 -0.5943  0.2877  0.0727
  137OSM   H11G14965   0.816   4.676   7.253 -0.0431  0.9806  1.7287
  137OSM   C12F14966   0.943   4.727   7.416 -0.0185 -0.0088 -0.5023
  137OSM   H12F14967   1.042   4.698   7.457 -0.1165 -0.9196 -0.9029
  137OSM   H12G14968   0.863   4.684   7.481  2.3317 -1.4849  1.4952
  137OSM   C13F14969   0.925   4.879   7.428 -0.7472 -0.3642  0.5694
  137OSM   H13F14970   0.883   4.932   7.340 -1.2020 -2.0594 -0.2487
  137OSM   H13G14971   1.028   4.921   7.426 -0.6043 -0.7872 -1.4376
  137OSM   C14F14972   0.835   4.917   7.557 -0.1125 -0.1008 -0.0711
  137OSM   H14F14973   0.870   4.857   7.644 -0.0632 -0.9457 -0.6652
  137OSM   H14G14974   0.732   4.880   7.537 -0.7872  1.1470  1.0004
  137OSM   C15F14975   0.825   5.069   7.592  0.3756 -0.1209  0.4830
  137OSM   H15F14976   0.801   5.129   7.501  1.0876  0.7933  0.8885
  137OSM   H15G14977   0.930   5.097   7.615  0.4659 -0.6824  0.7508
  137OSM   C16F14978   0.734   5.105   7.706  0.2355 -0.1390 -0.2257
  137OSM   H16F14979   0.632   5.063   7.690  0.5121 -1.3138  0.9278
  137OSM   H16G14980   0.713   5.214   7.702 -0.8871 -0.2552  1.5267
  137OSM   C17F14981   0.781   5.056   7.845 -0.4624 -0.3660 -0.0562
  137OSM   H17F14982   0.890   5.042   7.858 -0.2592 -0.1969 -1.5097
  137OSM   H17G14983   0.746   4.950   7.850  3.3294 -1.5925  2.6921
  137OSM   C18F14984   0.718   5.139   7.960 -0.8305  0.2064  0.3970
  137OSM   H18F14985   0.773   5.235   7.972  1.2065 -0.9622  0.6859
  137OSM   H18G14986   0.715   5.083   8.056  0.6657  0.8863  0.8641
  137OSM   H18H14987   0.610   5.162   7.951 -1.1161  0.6107  3.9824
  138OSM      N14988   1.669   6.228   5.933 -0.1005  0.0980  0.2347
  138OSM    C1514989   1.783   6.135   5.932 -0.0237  0.2934 -0.1407
  138OSM   H15A14990   1.747   6.041   5.894 -0.2612 -0.9826  3.0235
  138OSM   H15B14991   1.806   6.111   6.035 -2.2683  1.0525  0.5633
  138OSM   H15C14992   1.872   6.164   5.878 -0.8409  2.1318 -0.5639
  138OSM    C1414993   1.708   6.351   6.012  0.0459 -0.2227  0.0324
  138OSM   H14A14994   1.624   6.414   6.036  1.0859  1.2291 -0.0296
  138OSM   H14B14995   1.786   6.407   5.961 -1.0392  0.6336 -0.7279
  138OSM   H14C14996   1.755   6.324   6.105 -0.0300  0.2192  0.2022
  138OSM    C1314997   1.644   6.282   5.798  0.0573  0.5449  0.0733
  138OSM   H13A14998   1.634   6.195   5.735 -1.8492  0.7344  0.0854
  138OSM   H13B14999   1.724   6.348   5.767 -0.6352  2.6813  2.6649
  138OSM   H13C15000   1.557   6.343   5.778 -0.7877 -0.7552 -0.2578
  138OSM    C1215001   1.551   6.159   5.993 -0.0877 -0.4326 -0.1929
  138OSM   H12A15002   1.465   6.225   5.997 -2.8345 -3.8538  0.3682
  138OSM   H12B15003   1.573   6.121   6.092 -0.1556 -0.1971 -0.0866
  138OSM    C1115004   1.496   6.033   5.918  0.1795  0.1376  0.8149
  138OSM   H11A15005   1.481   6.073   5.815 -0.4610 -0.0386  0.8415
  138OSM   H11B15006   1.400   5.995   5.958  1.5517 -1.2085  2.9742
  138OSM      P15007   1.621   5.810   5.994 -0.5930  0.1480  0.2392
  138OSM    O1315008   1.676   5.693   5.922 -0.1230 -0.1998 -0.3257
  138OSM    O1415009   1.689   5.869   6.110  0.6196  0.1805 -0.0962
  138OSM    O1115010   1.478   5.772   6.047  0.5447  0.4126  0.4888
  138OSM    O1215011   1.597   5.925   5.895 -0.3196 -0.5091  0.3777
  138OSM    C1S15012   1.469   5.649   6.123  0.1203  0.4403  0.2818
  138OSM    H1S15013   1.551   5.576   6.105  0.5551  0.5430  1.7978
  138OSM    H1T15014   1.369   5.603   6.110  0.1372  0.5574 -0.2924
  138OSM     NF15015   1.530   5.580   6.363  0.1950  0.1055  0.0113
  138OSM    HNF15016   1.458   5.535   6.416  3.0251 -0.3409  3.6697
  138OSM    C2S15017   1.492   5.694   6.277  0.1918  0.2850  0.5412
  138OSM    H2S15018   1.580   5.761   6.271 -1.3030  2.1466 -1.3022
  138OSM    C3S15019   1.366   5.767   6.321  0.2425 -0.0075  0.1756
  138OSM    H3S15020   1.288   5.688   6.313  0.4068 -0.2930  1.2607
  138OSM     O315021   1.322   5.873   6.238 -0.5135 -0.7145  0.4041
  138OSM    HO315022   1.368   5.864   6.154 -1.8475 -0.1703 -0.4087
  138OSM    C4S15023   1.392   5.807   6.462  0.8215 -0.8909 -0.1791
  138OSM    H4S15024   1.463   5.890   6.475 -0.3393 -0.0690  0.9628
  138OSM    C5S15025   1.347   5.753   6.577  0.2937  0.3151  0.2874
  138OSM    H5S15026   1.266   5.680   6.567  0.8178 -0.5990  2.5593
  138OSM    C6S15027   1.381   5.787   6.718 -0.9311 -1.0957  0.3494
  138OSM    H6S15028   1.399   5.695   6.778 -0.6536 -0.5693  1.0855
  138OSM    H6T15029   1.297   5.845   6.761 -1.6922 -0.4879 -1.8985
  138OSM    C7S15030   1.506   5.873   6.742 -0.3719 -0.2776 -0.0648
  138OSM    H7S15031   1.490   5.974   6.697  1.2948 -0.0959 -0.2979
  138OSM    H7T15032   1.597   5.823   6.701  0.7661 -0.0323  2.1066
  138OSM    C8S15033   1.541   5.904   6.886  0.0235  1.3216 -0.6449
  138OSM    H8S15034   1.616   5.984   6.899 -0.0806  1.2513  0.4673
  138OSM    H8T15035   1.590   5.812   6.925  0.6503  1.6613 -0.6278
  138OSM    C9S15036   1.417   5.923   6.975 -0.0934 -0.1542  0.3697
  138OSM    H9S15037   1.349   5.835   6.976  0.1954 -0.3672  1.0624
  138OSM    H9T15038   1.365   6.010   6.930  0.6887 -0.7235 -1.6865
  138OSM   C10S15039   1.471   5.961   7.111  0.4377 -0.1960 -0.2081
  138OSM   H10S15040   1.512   6.064   7.118 -0.6083  0.2308 -0.3103
  138OSM   H10T15041   1.555   5.889   7.123  1.7588  1.4063  0.4862
  138OSM   C11S15042   1.374   5.915   7.227  0.4846  0.3480 -0.1004
  138OSM   H11S15043   1.331   5.820   7.188 -0.6966  1.0845 -0.5910
  138OSM   H11T15044   1.283   5.977   7.230 -0.3926 -0.8333 -1.4556
  138OSM   C12S15045   1.436   5.890   7.364  0.6315 -0.4249  0.6796
  138OSM   H12S15046   1.491   5.794   7.364  0.2194 -0.6667  1.2389
  138OSM   H12T15047   1.353   5.882   7.438  1.9685 -1.6942  2.1037
  138OSM   C13S15048   1.528   6.006   7.420  1.1166  0.1398 -0.6047
  138OSM   H13S15049   1.456   6.091   7.420  0.8643 -0.0738 -0.2690
  138OSM   H13T15050   1.614   6.034   7.356  0.2834 -0.8211 -2.2080
  138OSM   C14S15051   1.578   5.972   7.558  0.2129  0.3354 -0.4220
  138OSM   H14S15052   1.656   6.041   7.596  0.8610 -2.0030  2.7388
  138OSM   H14T15053   1.627   5.872   7.553 -0.5560 -0.0522 -0.3061
  138OSM   C15S15054   1.481   5.978   7.682  0.2944 -0.6539 -0.3536
  138OSM   H15S15055   1.411   5.891   7.675 -1.6148  0.8202  0.1107
  138OSM   H15T15056   1.427   6.074   7.668  0.2728 -0.5543  0.3835
  138OSM   C16S15057   1.548   5.988   7.828 -0.0911  0.1979  0.9606
  138OSM   H16S15058   1.628   6.064   7.818  1.0829 -1.1865 -0.3466
  138OSM   H16T15059   1.603   5.892   7.831  0.0043  0.0988 -1.9985
  138OSM   C17S15060   1.451   6.031   7.934 -0.4231  0.5272 -0.7678
  138OSM   H17S15061   1.357   5.972   7.934 -0.8109  1.1377 -1.4559
  138OSM   H17T15062   1.429   6.139   7.936  0.8885  0.7840  2.4246
  138OSM   C18S15063   1.523   6.014   8.070  0.2475 -0.3106 -0.0669
  138OSM   H18S15064   1.557   5.910   8.094 -0.7497 -0.1339  2.3068
  138OSM   H18T15065   1.461   6.059   8.151 -1.5002 -2.4855 -0.1513
  138OSM   H18U15066   1.614   6.078   8.067  0.6186 -0.8203  0.1663
  138OSM    C1F15067   1.659   5.530   6.376  0.3567 -0.2757  0.0288
  138OSM     OF15068   1.745   5.582   6.305  0.5125  0.2547 -0.1231
  138OSM    C2F15069   1.678   5.420   6.468 -0.4866 -0.0884  0.1362
  138OSM    H2F15070   1.710   5.333   6.407 -0.0691  0.0972  0.0933
  138OSM    H2G15071   1.585   5.383   6.517 -0.9476 -0.3552 -0.9373
  138OSM    C3F15072   1.794   5.448   6.564 -0.4110  0.0060 -1.0128
  138OSM    H3F15073   1.890   5.439   6.508  1.5686 -0.0421  2.3097
  138OSM    H3G15074   1.800   5.368   6.640  1.7434  0.9506 -0.1540
  138OSM    C4F15075   1.805   5.584   6.629  0.0646 -0.1140  0.7002
  138OSM    H4F15076   1.714   5.625   6.678 -1.4255 -0.1597 -1.9108
  138OSM    H4G15077   1.838   5.652   6.548 -0.5316  0.5495  1.0149
  138OSM    C5F15078   1.907   5.584   6.746  0.1688 -0.1568  0.3023
  138OSM    H5F15079   1.951   5.682   6.775 -1.1047  0.9491 -1.4165
  138OSM    H5G15080   1.995   5.523   6.714  0.9708  2.2601 -2.2888
  138OSM    C6F15081   1.841   5.543   6.877 -0.4724 -0.2344 -0.7762
  138OSM    H6F15082   1.813   5.436   6.867 -0.4231 -0.5136  1.6086
  138OSM    H6G15083   1.745   5.595   6.893 -0.9695 -1.5379  0.6000
  138OSM    C7F15084   1.930   5.553   7.007 -0.4646  0.3739 -0.2367
  138OSM    H7F15085   1.957   5.660   7.010  0.3770  0.1653 -0.4176
  138OSM    H7G15086   2.017   5.485   6.991 -1.2624 -0.4024 -1.3737
  138OSM    C8F15087   1.863   5.503   7.135  0.2705  0.3408 -0.6213
  138OSM    H8F15088   1.944   5.488   7.210 -1.8797 -0.1917  1.6407
  138OSM    H8G15089   1.832   5.396   7.137 -0.4318  0.5636  0.8887
  138OSM    C9F15090   1.757   5.600   7.184  0.2405  0.5138  0.0231
  138OSM    H9F15091   1.659   5.608   7.135 -0.1310  2.5101  1.0641
  138OSM   C10F15092   1.794   5.698   7.269  0.0022  0.1653  0.5651
  138OSM   H10F15093   1.715   5.768   7.303  0.5378  0.9536  0.2096
  138OSM   C11F15094   1.930   5.728   7.327 -0.1477  0.1149 -0.3000
  138OSM   H11F15095   1.943   5.838   7.335 -2.5839  0.3595  0.5719
  138OSM   H11G15096   2.008   5.684   7.261  1.2349  0.8588  0.8008
  138OSM   C12F15097   1.945   5.667   7.471  0.0218 -0.4513 -0.1907
  138OSM   H12F15098   1.945   5.555   7.471 -0.1335 -0.4564  0.7743
  138OSM   H12G15099   1.862   5.705   7.535  1.0103  1.0105  0.2509
  138OSM   C13F15100   2.080   5.716   7.538 -0.3329 -0.6552  0.1573
  138OSM   H13F15101   2.080   5.825   7.519 -0.6960 -1.0168 -2.1490
  138OSM   H13G15102   2.172   5.682   7.485  0.7517  0.7157  1.1392
  138OSM   C14F15103   2.083   5.700   7.690  0.5164 -0.4498 -0.4347
  138OSM   H14F15104   1.982   5.738   7.716  0.6352  0.6363 -1.5406
  138OSM   H14G15105   2.155   5.765   7.745 -0.3276  1.2280 -1.2893
  138OSM   C15F15106   2.101   5.554   7.735 -0.0364  1.3047 -0.5032
  138OSM   H15F15107   2.205   5.516   7.720 -0.5529 -0.0140 -0.8618
  138OSM   H15G15108   2.037   5.494   7.667  0.1260 -0.3085  0.7372
  138OSM   C16F15109   2.074   5.520   7.882  0.3832  0.1620 -0.4659
  138OSM   H16F15110   2.161   5.544   7.947 -1.4874  2.3579  1.3637
  138OSM   H16G15111   2.069   5.410   7.896 -0.9589 -0.1521 -3.0211
  138OSM   C17F15112   1.944   5.587   7.929 -1.0325  0.0470 -0.2482
  138OSM   H17F15113   1.857   5.549   7.872 -1.7708  0.2969  0.7120
  138OSM   H17G15114   1.963   5.695   7.909  1.8515 -0.2068  0.9382
  138OSM   C18F15115   1.922   5.567   8.076  0.3107  0.8334 -0.3529
  138OSM   H18F15116   1.823   5.601   8.114 -0.2904  0.3888 -1.5081
  138OSM   H18G15117   1.996   5.629   8.132  1.4688 -0.1131 -0.8127
  138OSM   H18H15118   1.939   5.459   8.098  0.2453  0.5774 -1.5468
  139OSM      N15119   5.345   6.418   5.719  0.7582 -0.7065 -0.3264
  139OSM    C1515120   5.308   6.522   5.621 -0.4674 -0.0555 -0.8483
  139OSM   H15A15121   5.368   6.612   5.634  0.8651 -1.1796  1.0302
  139OSM   H15B15122   5.206   6.554   5.634 -0.5876 -0.6996 -0.2056
  139OSM   H15C15123   5.320   6.480   5.522 -2.1015 -0.1923 -0.9977
  139OSM    C1415124   5.255   6.296   5.682 -0.5930 -0.2091 -0.5499
  139OSM   H14A15125   5.242   6.233   5.768  0.0806  0.9209  0.3956
  139OSM   H14B15126   5.285   6.238   5.596 -0.6497 -0.8567 -0.1326
  139OSM   H14C15127   5.163   6.342   5.647 -1.0648 -0.1976  0.6942
  139OSM    C1315128   5.487   6.381   5.706 -0.4693  0.7245 -0.6273
  139OSM   H13A15129   5.543   6.473   5.712 -0.0579  0.3351  2.5645
  139OSM   H13B15130   5.499   6.347   5.604 -3.5095 -2.7784  0.0864
  139OSM   H13C15131   5.536   6.309   5.770 -1.3820  0.6145 -0.0501
  139OSM    C1215132   5.316   6.466   5.856 -0.1329 -0.1609  0.0622
  139OSM   H12A15133   5.304   6.380   5.921  0.9415  0.3761  0.9873
  139OSM   H12B15134   5.218   6.510   5.867  0.9925  2.0656  1.5067
  139OSM    C1115135   5.413   6.573   5.928  0.2858  0.0095 -0.6154
  139OSM   H11A15136   5.516   6.537   5.903 -0.5379 -1.0878 -2.5179
  139OSM   H11B15137   5.408   6.558   6.038  0.6877  1.9319 -0.3093
  139OSM      P15138   5.282   6.795   5.930 -0.1369  0.1552  0.0380
  139OSM    O1315139   5.276   6.924   5.848 -0.2511  0.5208 -0.3936
  139OSM    O1415140   5.172   6.697   5.926 -0.6683 -0.2924  0.7061
  139OSM    O1115141   5.308   6.822   6.083  0.1454  0.6277  0.7518
  139OSM    O1215142   5.403   6.711   5.880 -0.6265  0.0817 -0.1231
  139OSM    C1S15143   5.428   6.883   6.124  1.1672  0.0903  0.0761
  139OSM    H1S15144   5.476   6.945   6.045  0.6846  0.4671  0.0799
  139OSM    H1T15145   5.497   6.801   6.152  0.8970 -0.3256 -0.4620
  139OSM     NF15146   5.536   7.027   6.298  0.4663 -0.3831 -0.3627
  139OSM    HNF15147   5.571   6.988   6.382 -0.1942 -0.4296 -0.1078
  139OSM    C2S15148   5.410   6.967   6.250  0.2221  0.2202  0.5656
  139OSM    H2S15149   5.346   7.054   6.225  0.0404  0.6851  2.5693
  139OSM    C3S15150   5.345   6.891   6.366 -0.3914 -0.1188 -0.2231
  139OSM    H3S15151   5.416   6.806   6.372 -1.5300 -1.1867 -1.7758
  139OSM     O315152   5.222   6.831   6.338  0.6590  0.2105 -0.1714
  139OSM    HO315153   5.220   6.841   6.243  0.5358 -1.6129 -0.3674
  139OSM    C4S15154   5.329   6.973   6.488 -0.5962  0.3905 -0.0062
  139OSM    H4S15155   5.263   7.060   6.483  0.2481  1.0535  0.1299
  139OSM    C5S15156   5.401   6.956   6.595 -0.2143  0.3669  0.2768
  139OSM    H5S15157   5.480   6.879   6.604 -0.4506  0.3361  2.3635
  139OSM    C6S15158   5.384   7.044   6.723  0.2862 -0.1335  1.1884
  139OSM    H6S15159   5.340   6.985   6.806 -1.7645  1.4100  1.2621
  139OSM    H6T15160   5.310   7.127   6.718  0.7832  0.2679  0.4866
  139OSM    C7S15161   5.522   7.100   6.745 -0.7338  0.0649  0.0887
  139OSM    H7S15162   5.531   7.183   6.819  0.9263 -2.7931  3.1894
  139OSM    H7T15163   5.573   7.147   6.658 -1.1027 -2.4890 -1.5646
  139OSM    C8S15164   5.630   7.002   6.800  0.5088 -0.3953 -0.0932
  139OSM    H8S15165   5.725   7.060   6.808 -0.0449  0.2928  1.7484
  139OSM    H8T15166   5.641   6.912   6.737 -3.2432  0.2946 -1.8775
  139OSM    C9S15167   5.603   6.975   6.952  0.1409  0.0540  0.0569
  139OSM    H9S15168   5.510   6.917   6.970  0.1340  0.8396  2.8643
  139OSM    H9T15169   5.599   7.080   6.988 -2.3481  0.3265 -0.9031
  139OSM   C10S15170   5.719   6.903   7.018 -0.0578 -0.3150 -1.0298
  139OSM   H10S15171   5.799   6.972   7.051 -0.1800 -1.1776  1.1313
  139OSM   H10T15172   5.761   6.835   6.941 -0.8263 -1.1858 -0.6913
  139OSM   C11S15173   5.685   6.809   7.133  0.5315 -0.3483 -0.4040
  139OSM   H11S15174   5.733   6.709   7.123  0.8725  0.1585 -4.2094
  139OSM   H11T15175   5.574   6.804   7.129  0.5041 -1.1233  0.8927
  139OSM   C12S15176   5.714   6.883   7.268 -1.0134 -0.3379  0.1034
  139OSM   H12S15177   5.668   6.984   7.258  1.4248  0.6281 -2.1212
  139OSM   H12T15178   5.824   6.896   7.277 -0.9033  0.6642 -2.3448
  139OSM   C13S15179   5.668   6.798   7.391  0.3081 -0.3636 -0.2407
  139OSM   H13S15180   5.681   6.689   7.373 -0.8307 -0.2389 -1.8819
  139OSM   H13T15181   5.559   6.817   7.394  0.4416  0.2199  1.7577
  139OSM   C14S15182   5.724   6.844   7.526  1.0237 -1.0671  0.3473
  139OSM   H14S15183   5.722   6.953   7.547  0.7485 -0.5586 -2.0889
  139OSM   H14T15184   5.830   6.810   7.525  1.1038 -0.8709 -1.8092
  139OSM   C15S15185   5.655   6.770   7.644 -0.6864 -0.4605  0.1128
  139OSM   H15S15186   5.702   6.807   7.738 -2.1442 -0.2468  0.7723
  139OSM   H15T15187   5.680   6.661   7.641  1.4532  0.0050 -0.2269
  139OSM   C16S15188   5.506   6.792   7.643 -0.7209  0.2353  0.2568
  139OSM   H16S15189   5.466   6.717   7.572 -0.4029 -0.4396  0.7829
  139OSM   H16T15190   5.477   6.888   7.596 -0.1065  0.1777 -0.2432
  139OSM   C17S15191   5.440   6.788   7.782  0.1855  0.1941  0.0977
  139OSM   H17S15192   5.476   6.881   7.830 -1.0364 -0.6728  2.7777
  139OSM   H17T15193   5.474   6.703   7.846  1.4237  0.8099  0.2720
  139OSM   C18S15194   5.292   6.773   7.772 -0.0184  0.6847  0.2287
  139OSM   H18S15195   5.276   6.684   7.707 -0.2254  1.5055 -0.8657
  139OSM   H18T15196   5.249   6.857   7.713  0.0329  0.1582 -0.5693
  139OSM   H18U15197   5.233   6.764   7.865  1.7030 -0.2378  1.2591
  139OSM    C1F15198   5.598   7.114   6.231  0.2757 -0.0387  0.5546
  139OSM     OF15199   5.569   7.146   6.118 -0.4416  0.2828  0.4569
  139OSM    C2F15200   5.715   7.173   6.293  0.5537  0.7382  0.0952
  139OSM    H2F15201   5.805   7.145   6.235  0.8257  0.3139  0.7088
  139OSM    H2G15202   5.726   7.127   6.394 -4.0484 -0.6556  0.0793
  139OSM    C3F15203   5.696   7.322   6.296  0.1749  0.5521 -0.6387
  139OSM    H3F15204   5.600   7.344   6.348 -0.9688 -1.4892 -1.8191
  139OSM    H3G15205   5.677   7.365   6.195  1.2323 -1.6510 -1.8106
  139OSM    C4F15206   5.815   7.386   6.366  0.5236  0.5159 -1.0232
  139OSM    H4F15207   5.826   7.494   6.341 -0.7840  0.3563 -2.3500
  139OSM    H4G15208   5.907   7.343   6.321  1.8174  0.2802  1.7632
  139OSM    C5F15209   5.832   7.378   6.517 -0.7921  0.0370  0.4955
  139OSM    H5F15210   5.920   7.438   6.549 -1.2515 -0.0640  1.9729
  139OSM    H5G15211   5.863   7.276   6.547 -0.5125 -0.1489 -0.4088
  139OSM    C6F15212   5.709   7.421   6.600 -0.0505 -0.0701 -0.0633
  139OSM    H6F15213   5.618   7.361   6.579 -0.0830  0.8487 -2.6959
  139OSM    H6G15214   5.689   7.518   6.550 -0.8264  0.9009  2.0782
  139OSM    C7F15215   5.742   7.421   6.749  0.5606  0.3014 -0.4332
  139OSM    H7F15216   5.834   7.483   6.755  2.5016 -2.5759  1.7165
  139OSM    H7G15217   5.760   7.313   6.773 -0.0482  0.4980  0.9937
  139OSM    C8F15218   5.637   7.468   6.846  0.4155 -0.2365 -0.0423
  139OSM    H8F15219   5.539   7.441   6.802 -0.4548  0.0150  1.7203
  139OSM    H8G15220   5.653   7.578   6.840  0.0396 -0.2343 -1.1311
  139OSM    C9F15221   5.669   7.420   6.983  0.3745  0.3786 -0.2665
  139OSM    H9F15222   5.773   7.436   7.012  0.4194 -1.8452  0.9382
  139OSM   C10F15223   5.590   7.358   7.070  0.2874  0.4861  0.7141
  139OSM   H10F15224   5.644   7.306   7.151  0.8175 -0.0780  0.0003
  139OSM   C11F15225   5.448   7.325   7.050  0.1613 -0.4334  0.1281
  139OSM   H11F15226   5.429   7.218   7.027 -0.1969 -0.6421  1.3323
  139OSM   H11G15227   5.404   7.381   6.965 -1.3554 -1.5783  0.1406
  139OSM   C12F15228   5.379   7.338   7.191 -0.4536 -0.0744 -0.1528
  139OSM   H12F15229   5.270   7.318   7.184 -0.6604  0.9234  0.1596
  139OSM   H12G15230   5.382   7.439   7.238  0.2897 -0.3020  0.2894
  139OSM   C13F15231   5.434   7.241   7.295 -0.1389  0.2418 -0.2147
  139OSM   H13F15232   5.541   7.266   7.310  0.6929 -1.6953 -2.5995
  139OSM   H13G15233   5.447   7.140   7.253  2.5131 -1.0600  3.4998
  139OSM   C14F15234   5.361   7.238   7.429  0.4277  0.4399  0.4940
  139OSM   H14F15235   5.262   7.194   7.405  0.8408  0.4359 -1.2823
  139OSM   H14G15236   5.343   7.340   7.469 -1.3480  0.9451 -1.4757
  139OSM   C15F15237   5.447   7.166   7.537  0.7468 -0.3851 -0.0709
  139OSM   H15F15238   5.547   7.216   7.534  0.5526 -0.0070 -0.2467
  139OSM   H15G15239   5.457   7.066   7.490  1.3564 -0.2408 -0.2493
  139OSM   C16F15240   5.399   7.166   7.676  0.0694 -0.2988 -0.1332
  139OSM   H16F15241   5.487   7.151   7.742 -0.0397 -0.8883 -0.1138
  139OSM   H16G15242   5.320   7.089   7.692 -0.0889 -0.0185  0.4686
  139OSM   C17F15243   5.341   7.293   7.722  0.0187 -0.1105  0.7432
  139OSM   H17F15244   5.251   7.316   7.661  0.2390 -0.3706  0.3184
  139OSM   H17G15245   5.426   7.365   7.726 -0.3909  0.3203  2.1190
  139OSM   C18F15246   5.293   7.289   7.868 -0.3791 -0.1886  0.3100
  139OSM   H18F15247   5.209   7.218   7.878  2.3180 -3.0743  3.7247
  139OSM   H18G15248   5.269   7.393   7.899 -1.0809  0.7030 -3.0040
  139OSM   H18H15249   5.362   7.255   7.949  0.3843 -1.4008 -0.8330
  140OSM      N15250   1.116   1.493   5.546  1.0699  0.7763  0.0632
  140OSM    C1515251   1.074   1.528   5.403 -0.3964 -0.9971 -0.6978
  140OSM   H15A15252   1.041   1.631   5.400 -1.1459 -1.2846 -4.4963
  140OSM   H15B15253   0.989   1.467   5.378 -0.5912 -1.3864  0.8627
  140OSM   H15C15254   1.154   1.518   5.331  0.1691 -0.0507 -0.2051
  140OSM    C1415255   1.186   1.361   5.543 -0.5149  0.3145  0.3176
  140OSM   H14A15256   1.270   1.359   5.475 -2.1759 -0.4123 -1.7887
  140OSM   H14B15257   1.124   1.281   5.505  1.4913 -1.2130  0.1401
  140OSM   H14C15258   1.225   1.332   5.639 -1.9313 -1.9684  0.2317
  140OSM    C1315259   1.225   1.589   5.574 -0.0468  0.5422  0.8551
  140OSM   H13A15260   1.290   1.579   5.488 -0.4457  1.7371  0.4115
  140OSM   H13B15261   1.279   1.553   5.660  0.2007 -0.6562  0.2093
  140OSM   H13C15262   1.192   1.692   5.580 -2.1136  0.0708 -1.7603
  140OSM    C1215263   1.002   1.494   5.640 -0.2285 -0.1963 -1.0069
  140OSM   H12A15264   0.924   1.438   5.592  0.3848 -3.7638  1.9402
  140OSM   H12B15265   0.951   1.589   5.649 -0.3586 -0.3702  0.1536
  140OSM    C1115266   1.032   1.451   5.790  0.0833 -0.2562  0.9481
  140OSM   H11A15267   0.953   1.496   5.853 -0.1740  1.8235 -0.7806
  140OSM   H11B15268   1.128   1.497   5.822 -1.1884  3.4035 -0.1525
  140OSM      P15269   1.108   1.244   5.922 -0.0289  0.0226 -0.1582
  140OSM    O1315270   1.032   1.118   5.935  0.3610 -0.1359  0.1695
  140OSM    O1415271   1.249   1.256   5.893 -0.1533  0.1988 -0.2497
  140OSM    O1115272   1.080   1.342   6.048 -0.2580  0.0799  0.6527
  140OSM    O1215273   1.042   1.314   5.803  0.0929  0.0336 -0.0416
  140OSM    C1S15274   1.143   1.309   6.171 -0.5892  0.3304  0.6551
  140OSM    H1S15275   1.237   1.368   6.165 -0.2367 -0.2624  0.3544
  140OSM    H1T15276   1.158   1.200   6.180 -0.4744  0.2893 -0.0582
  140OSM     NF15277   1.155   1.293   6.409  0.2747 -0.5791 -0.2323
  140OSM    HNF15278   1.136   1.211   6.463  0.1568  1.3352  2.7253
  140OSM    C2S15279   1.072   1.348   6.300 -0.5068  0.2271 -0.4863
  140OSM    H2S15280   1.068   1.457   6.322 -3.9050  0.3209 -1.2797
  140OSM    C3S15281   0.925   1.284   6.300 -0.7746 -0.2227 -0.6984
  140OSM    H3S15282   0.949   1.175   6.297 -0.6834 -0.2031 -0.6779
  140OSM     O315283   0.847   1.326   6.184  0.5320 -0.1640 -0.0622
  140OSM    HO315284   0.894   1.389   6.128 -0.6932  1.0422  0.2300
  140OSM    C4S15285   0.861   1.320   6.424 -0.3336 -0.8237  0.3759
  140OSM    H4S15286   0.840   1.244   6.500 -1.0581 -1.7745 -0.7634
  140OSM    C5S15287   0.833   1.446   6.464 -0.1201 -0.7253  1.0034
  140OSM    H5S15288   0.843   1.538   6.404  2.3364 -1.1745  0.6981
  140OSM    C6S15289   0.770   1.463   6.603  0.3373 -0.1552 -0.2490
  140OSM    H6S15290   0.734   1.368   6.649  1.1161  0.4089  1.5697
  140OSM    H6T15291   0.679   1.527   6.598  1.1295  0.9154 -1.1118
  140OSM    C7S15292   0.877   1.515   6.701 -0.8940  0.4778 -0.0210
  140OSM    H7S15293   0.831   1.551   6.795 -1.5651  1.2765 -0.6553
  140OSM    H7T15294   0.928   1.601   6.652  2.9764 -0.3217  2.3382
  140OSM    C8S15295   0.968   1.402   6.753 -0.4457 -0.6367  0.0564
  140OSM    H8S15296   1.040   1.374   6.674 -0.9786  0.0003 -0.6589
  140OSM    H8T15297   0.905   1.315   6.783  0.9752 -0.5327  3.6035
  140OSM    C9S15298   1.078   1.452   6.851  0.5321  0.0247 -0.6660
  140OSM    H9S15299   1.138   1.533   6.802  1.9139  0.6009  1.9156
  140OSM    H9T15300   1.143   1.365   6.873 -1.2410 -0.9821  0.6742
  140OSM   C10S15301   1.025   1.499   6.985  0.2154 -0.0508 -0.5257
  140OSM   H10S15302   0.969   1.414   7.029  1.6286 -0.3275  0.7849
  140OSM   H10T15303   0.952   1.582   6.984  1.5285  1.1409 -0.2376
  140OSM   C11S15304   1.139   1.552   7.073 -0.8280 -0.2114  0.2655
  140OSM   H11S15305   1.177   1.642   7.020 -0.4034  1.5553  3.4226
  140OSM   H11T15306   1.228   1.486   7.072 -0.8509 -0.2498  0.5812
  140OSM   C12S15307   1.079   1.580   7.213 -0.4495  0.2917  0.4774
  140OSM   H12S15308   1.047   1.491   7.273 -1.8595  0.1765 -0.4031
  140OSM   H12T15309   0.985   1.635   7.190 -1.6232 -2.4767 -1.6706
  140OSM   C13S15310   1.160   1.668   7.309  0.6653 -0.4881  0.6484
  140OSM   H13S15311   1.090   1.716   7.380 -1.1841 -2.4052  0.1838
  140OSM   H13T15312   1.213   1.739   7.243 -0.6025 -2.7614 -2.9808
  140OSM   C14S15313   1.277   1.593   7.377 -0.5152 -0.3127  0.2218
  140OSM   H14S15314   1.316   1.672   7.444 -2.5649 -0.0443  1.1563
  140OSM   H14T15315   1.360   1.572   7.307  1.1832  0.4190  1.9898
  140OSM   C15S15316   1.245   1.478   7.465 -0.6323 -0.1574 -0.2243
  140OSM   H15S15317   1.338   1.440   7.512 -1.6183 -0.9217  1.1198
  140OSM   H15T15318   1.201   1.395   7.405  0.6697 -1.8933  1.1803
  140OSM   C16S15319   1.152   1.503   7.582  0.1945 -0.4865 -0.9825
  140OSM   H16S15320   1.050   1.518   7.540  0.5647 -1.3165 -2.1942
  140OSM   H16T15321   1.188   1.596   7.630 -0.5863 -0.0722 -1.2012
  140OSM   C17S15322   1.146   1.393   7.695  0.1682  0.3366  0.1455
  140OSM   H17S15323   1.104   1.300   7.651 -1.8897  1.0050  0.5962
  140OSM   H17T15324   1.074   1.429   7.772 -0.5508 -0.8440  0.0437
  140OSM   C18S15325   1.287   1.371   7.754  0.0564 -0.7619  0.5567
  140OSM   H18S15326   1.344   1.318   7.674 -1.2802 -0.3225 -0.7043
  140OSM   H18T15327   1.284   1.303   7.842 -0.2909 -0.2993  0.9051
  140OSM   H18U15328   1.333   1.469   7.778 -2.3155  0.3486  0.6562
  140OSM    C1F15329   1.267   1.351   6.438 -0.0123 -0.6221  0.3260
  140OSM     OF15330   1.295   1.462   6.393 -0.1866  0.0415 -0.2096
  140OSM    C2F15331   1.361   1.280   6.541  0.3572  0.5404 -0.0151
  140OSM    H2F15332   1.448   1.234   6.489 -1.1203 -1.3524 -0.8936
  140OSM    H2G15333   1.297   1.196   6.576  0.7467  1.3103  2.6899
  140OSM    C3F15334   1.417   1.376   6.650  0.6685  0.3412  0.5148
  140OSM    H3F15335   1.327   1.438   6.675 -0.0835 -1.4752  2.4352
  140OSM    H3G15336   1.496   1.435   6.598 -0.9364  2.1805  0.0677
  140OSM    C4F15337   1.482   1.292   6.762  0.1190 -0.2467  0.8950
  140OSM    H4F15338   1.567   1.241   6.711 -0.1078 -1.9604  2.1845
  140OSM    H4G15339   1.411   1.207   6.773 -1.1293  0.6416 -0.1296
  140OSM    C5F15340   1.521   1.372   6.887 -0.3115  0.7977  0.2055
  140OSM    H5F15341   1.435   1.438   6.910 -0.8413 -0.1740  1.0797
  140OSM    H5G15342   1.602   1.441   6.856  0.6590 -0.6352 -0.5186
  140OSM    C6F15343   1.561   1.286   7.009  0.0829  0.1259  0.1011
  140OSM    H6F15344   1.654   1.234   6.978  0.1979  0.7754 -0.6424
  140OSM    H6G15345   1.487   1.205   7.028  0.6205 -0.3644  0.1368
  140OSM    C7F15346   1.583   1.374   7.137 -0.2849  0.2839  0.0965
  140OSM    H7F15347   1.512   1.459   7.134 -1.7393 -0.9497 -4.8448
  140OSM    H7G15348   1.689   1.409   7.130  0.1057 -1.2549 -2.3785
  140OSM    C8F15349   1.561   1.292   7.265 -0.6231  0.3271 -0.0539
  140OSM    H8F15350   1.628   1.205   7.247  1.8357  1.5418  2.7457
  140OSM    H8G15351   1.462   1.241   7.258 -0.4267 -0.1447  0.5590
  140OSM    C9F15352   1.578   1.359   7.399  0.1528  0.2793 -0.0899
  140OSM    H9F15353   1.540   1.462   7.409  0.3911  0.1674  2.2112
  140OSM   C10F15354   1.621   1.305   7.508 -0.6481 -0.1889  0.0681
  140OSM   H10F15355   1.658   1.369   7.590 -1.2767 -1.3870  1.3115
  140OSM   C11F15356   1.666   1.169   7.530 -0.0635  0.1742  0.2674
  140OSM   H11F15357   1.765   1.155   7.482 -1.2261  0.6187 -2.3301
  140OSM   H11G15358   1.603   1.095   7.476  3.6432 -0.4319 -3.5493
  140OSM   C12F15359   1.679   1.110   7.678 -0.0272  0.5002 -0.6897
  140OSM   H12F15360   1.676   1.200   7.743 -1.8202 -0.1437  0.1403
  140OSM   H12G15361   1.776   1.058   7.689 -0.1971  0.4799  0.7589
  140OSM   C13F15362   1.560   1.016   7.713 -0.1827  0.1403 -0.8994
  140OSM   H13F15363   1.575   0.914   7.672 -0.2956 -0.9002  1.5280
  140OSM   H13G15364   1.459   1.059   7.695 -0.6033 -1.0263 -1.3706
  140OSM   C14F15365   1.560   0.979   7.865 -0.5937 -0.5506 -0.1100
  140OSM   H14F15366   1.480   0.903   7.874 -2.0979  1.3404  3.4458
  140OSM   H14G15367   1.532   1.078   7.909 -1.2740  0.0973 -1.9661
  140OSM   C15F15368   1.685   0.922   7.918 -0.3104  0.1232 -0.4002
  140OSM   H15F15369   1.775   0.963   7.867 -0.2455 -1.0375 -1.2535
  140OSM   H15G15370   1.692   0.813   7.896  0.9280  0.6287 -2.5926
  140OSM   C16F15371   1.698   0.947   8.076 -0.5927  0.2667 -0.4599
  140OSM   H16F15372   1.629   0.882   8.135  2.9818 -1.4463  2.0162
  140OSM   H16G15373   1.688   1.056   8.093  1.5332  0.2767  0.8774
  140OSM   C17F15374   1.832   0.903   8.128  0.0021  0.0816  0.5665
  140OSM   H17F15375   1.851   0.806   8.078 -1.6291  0.1747 -0.2731
  140OSM   H17G15376   1.825   0.888   8.238 -3.2676  2.0831  0.6892
  140OSM   C18F15377   1.941   1.001   8.079 -0.5279  0.1925 -0.1704
  140OSM   H18F15378   2.039   0.955   8.105 -0.5828  0.1534 -0.0321
  140OSM   H18G15379   1.933   1.107   8.113  1.3891 -0.0703  1.1464
  140OSM   H18H15380   1.947   1.014   7.969  1.6570  1.4318  0.0729
  141OSM      N15381   7.195   5.631   5.663  0.5299  0.2724  0.7289
  141OSM    C1515382   7.274   5.688   5.551  0.3435  0.2449  0.5824
  141OSM   H15A15383   7.208   5.700   5.466  0.3128 -2.9214  0.1070
  141OSM   H15B15384   7.351   5.617   5.522 -0.4969  0.0409 -1.2305
  141OSM   H15C15385   7.323   5.782   5.573  0.9745  0.4015 -1.4137
  141OSM    C1415386   7.082   5.727   5.694  0.2616 -0.1307 -0.4668
  141OSM   H14A15387   7.022   5.754   5.608 -0.1664  0.4269  0.0041
  141OSM   H14B15388   7.125   5.819   5.730  1.1099 -0.2645 -1.1113
  141OSM   H14C15389   7.012   5.683   5.763  0.7131 -1.2367 -0.7101
  141OSM    C1315390   7.142   5.497   5.628 -0.7372  0.6976 -0.3603
  141OSM   H13A15391   7.092   5.448   5.710 -0.0583  1.7093  0.6844
  141OSM   H13B15392   7.228   5.439   5.597 -2.0332 -1.4938  0.0715
  141OSM   H13C15393   7.083   5.497   5.538  0.0400  0.7575 -0.8795
  141OSM    C1215394   7.285   5.624   5.783 -0.3231 -0.3954  0.2186
  141OSM   H12A15395   7.323   5.722   5.809  0.5436 -0.3774 -1.0877
  141OSM   H12B15396   7.363   5.552   5.766 -0.8339 -0.6600 -1.0165
  141OSM    C1115397   7.220   5.578   5.914 -0.0802  0.2246 -0.4130
  141OSM   H11A15398   7.135   5.644   5.943  0.1285  0.0478  0.6017
  141OSM   H11B15399   7.294   5.595   5.995 -1.0750 -1.4538  0.8738
  141OSM      P15400   7.282   5.321   5.912 -0.3954 -0.5621 -0.1508
  141OSM    O1315401   7.219   5.195   5.868  0.4110 -0.3896  0.5442
  141OSM    O1415402   7.398   5.365   5.832 -0.5602  0.0595 -0.3025
  141OSM    O1115403   7.326   5.311   6.065  0.3280  0.1417  0.1897
  141OSM    O1215404   7.179   5.445   5.932  0.0805  0.2342 -0.2872
  141OSM    C1S15405   7.234   5.300   6.174 -0.0348 -0.0810 -0.0460
  141OSM    H1S15406   7.135   5.341   6.147  0.5118  1.1758 -0.1726
  141OSM    H1T15407   7.270   5.357   6.262 -2.7188  1.2371  0.2428
  141OSM     NF15408   7.113   5.138   6.315  0.2615  0.4647 -0.8509
  141OSM    HNF15409   7.126   5.133   6.414  3.8882 -1.7554 -1.3460
  141OSM    C2S15410   7.225   5.156   6.224 -0.0974  0.2723 -0.0134
  141OSM    H2S15411   7.204   5.092   6.136 -0.9222  0.2715  0.1828
  141OSM    C3S15412   7.365   5.113   6.286  0.0761 -0.2494 -0.3160
  141OSM    H3S15413   7.365   5.160   6.386 -3.4953  1.6289 -1.1306
  141OSM     O315414   7.491   5.154   6.229 -0.6682 -0.2368 -0.6190
  141OSM    HO315415   7.476   5.234   6.177  0.0841  1.6208  1.9427
  141OSM    C4S15416   7.384   4.960   6.307 -0.0712 -0.0157  0.5850
  141OSM    H4S15417   7.375   4.904   6.213 -1.4663  0.0012  0.7013
  141OSM    C5S15418   7.427   4.890   6.414  0.3806 -0.1661  0.5764
  141OSM    H5S15419   7.448   4.944   6.508 -0.1990  2.6708 -0.8604
  141OSM    C6S15420   7.435   4.740   6.403 -0.2074 -0.5357 -0.5909
  141OSM    H6S15421   7.393   4.695   6.310 -1.2855 -2.5302  0.8359
  141OSM    H6T15422   7.384   4.690   6.487 -0.6628 -2.9428 -2.2491
  141OSM    C7S15423   7.580   4.696   6.420 -0.2036  0.1897 -0.2420
  141OSM    H7S15424   7.641   4.744   6.340 -0.3092  0.3131 -0.2480
  141OSM    H7T15425   7.592   4.588   6.396  0.3219  0.1928 -0.0199
  141OSM    C8S15426   7.650   4.737   6.549  0.5189 -0.0165 -0.0447
  141OSM    H8S15427   7.595   4.687   6.631  1.5776 -1.6833 -0.3297
  141OSM    H8T15428   7.632   4.846   6.564 -1.1987 -0.4014  0.8724
  141OSM    C9S15429   7.800   4.708   6.555  0.1822 -0.0048  0.4459
  141OSM    H9S15430   7.852   4.776   6.484  2.3135  0.1540  2.0946
  141OSM    H9T15431   7.825   4.603   6.526  0.4269  0.6836 -1.9457
  141OSM   C10S15432   7.869   4.747   6.689 -0.6538  0.1070  0.8194
  141OSM   H10S15433   7.842   4.854   6.699  0.7828  0.5097  0.5421
  141OSM   H10T15434   7.980   4.736   6.683 -0.7481 -0.1635 -0.9995
  141OSM   C11S15435   7.832   4.662   6.807  0.1139 -0.9269  0.2760
  141OSM   H11S15436   7.897   4.573   6.818  0.2523 -0.9878 -1.0284
  141OSM   H11T15437   7.739   4.613   6.771 -1.6071  2.0504  0.4781
  141OSM   C12S15438   7.837   4.740   6.934  0.2656  0.4981  0.0879
  141OSM   H12S15439   7.768   4.827   6.934  2.1919  2.0619  1.7758
  141OSM   H12T15440   7.941   4.778   6.937  1.0042 -1.1380 -2.8633
  141OSM   C13S15441   7.809   4.653   7.057  0.1967 -0.7616 -0.3325
  141OSM   H13S15442   7.890   4.578   7.071  0.4432 -0.5222 -0.4796
  141OSM   H13T15443   7.719   4.594   7.029  0.6891 -1.0090 -1.4464
  141OSM   C14S15444   7.804   4.738   7.183  0.1344  0.4431 -0.6204
  141OSM   H14S15445   7.731   4.817   7.155  0.9566  1.1559 -0.7679
  141OSM   H14T15446   7.900   4.793   7.190  0.6105 -0.1085 -2.6317
  141OSM   C15S15447   7.785   4.666   7.321  0.6504  0.1731  0.7350
  141OSM   H15S15448   7.872   4.601   7.342  0.4359 -0.1312  0.6878
  141OSM   H15T15449   7.698   4.599   7.304  0.3729  0.9028 -0.8540
  141OSM   C16S15450   7.756   4.762   7.439  0.3624  0.0981 -0.7925
  141OSM   H16S15451   7.677   4.832   7.403 -0.1942 -0.9487 -1.6145
  141OSM   H16T15452   7.847   4.827   7.443  0.6260 -0.3186 -0.1153
  141OSM   C17S15453   7.716   4.695   7.565  0.1340 -0.2209  0.1349
  141OSM   H17S15454   7.801   4.633   7.600 -0.8177 -0.5213  1.9942
  141OSM   H17T15455   7.630   4.626   7.553 -0.7686  0.7304  1.0239
  141OSM   C18S15456   7.671   4.796   7.668 -0.3477  0.0630 -0.2365
  141OSM   H18S15457   7.748   4.869   7.701  0.3366 -0.5485 -0.4626
  141OSM   H18T15458   7.631   4.762   7.765  2.7831 -1.1077  0.7051
  141OSM   H18U15459   7.596   4.862   7.620  0.8348  0.8429 -1.0326
  141OSM    C1F15460   6.996   5.153   6.275  1.1510 -0.0571  0.2641
  141OSM     OF15461   6.951   5.190   6.170  0.2249 -0.6065  0.1816
  141OSM    C2F15462   6.893   5.119   6.376  1.0446 -0.1146 -0.3257
  141OSM    H2F15463   6.856   5.018   6.348  3.0027 -0.6599 -1.0236
  141OSM    H2G15464   6.810   5.191   6.391  0.0994 -1.5547  1.6141
  141OSM    C3F15465   6.948   5.094   6.523 -0.0635 -0.3382  0.7186
  141OSM    H3F15466   7.020   5.009   6.516 -0.4547 -0.6734  0.7355
  141OSM    H3G15467   6.861   5.060   6.583  0.8304 -3.7421  0.2071
  141OSM    C4F15468   7.005   5.219   6.602 -0.3549 -0.0133  0.3226
  141OSM    H4F15469   6.921   5.286   6.632 -1.9923 -1.0932 -1.6977
  141OSM    H4G15470   7.068   5.289   6.545 -1.6663  0.9405  0.0105
  141OSM    C5F15471   7.087   5.176   6.723 -0.6636  0.4316 -0.5179
  141OSM    H5F15472   7.031   5.099   6.781 -0.3422 -1.5355 -2.7490
  141OSM    H5G15473   7.102   5.267   6.784 -3.4639  0.1062  0.7390
  141OSM    C6F15474   7.220   5.114   6.687 -0.2544  0.0120  0.2321
  141OSM    H6F15475   7.273   5.164   6.603 -2.2909 -0.9357 -1.6460
  141OSM    H6G15476   7.190   5.017   6.642 -1.3695 -0.2844  1.6057
  141OSM    C7F15477   7.288   5.087   6.813  0.0154 -0.7518 -0.1756
  141OSM    H7F15478   7.231   5.023   6.883 -1.3475  0.7904  0.1701
  141OSM    H7G15479   7.295   5.178   6.877 -2.9356 -1.0363  0.6079
  141OSM    C8F15480   7.422   5.029   6.773 -0.1096  0.0861 -1.1189
  141OSM    H8F15481   7.462   5.087   6.687  0.5503 -0.1030 -0.9386
  141OSM    H8G15482   7.409   4.927   6.731 -1.4138 -0.1373 -0.2036
  141OSM    C9F15483   7.521   5.013   6.890  0.1852 -0.2293  0.1864
  141OSM    H9F15484   7.592   5.096   6.905 -0.2669  0.2206 -0.1180
  141OSM   C10F15485   7.526   4.914   6.979  1.1199  0.2511 -0.5957
  141OSM   H10F15486   7.605   4.917   7.056 -0.8633 -1.0039  1.5752
  141OSM   C11F15487   7.422   4.805   6.982 -0.4808  0.1651 -0.1088
  141OSM   H11F15488   7.454   4.703   7.012 -2.4703 -0.5172 -0.2158
  141OSM   H11G15489   7.363   4.787   6.890 -1.4082  0.4928  0.4090
  141OSM   C12F15490   7.322   4.847   7.094 -0.2725 -0.3928  0.2000
  141OSM   H12F15491   7.235   4.779   7.084  0.4038 -1.1134 -0.9205
  141OSM   H12G15492   7.283   4.951   7.091 -0.1765 -0.3309  0.9760
  141OSM   C13F15493   7.378   4.827   7.238 -0.2590  0.4640 -0.6137
  141OSM   H13F15494   7.458   4.902   7.258 -1.6876  1.4535  1.5430
  141OSM   H13G15495   7.428   4.729   7.255 -0.9728  0.1637 -0.2328
  141OSM   C14F15496   7.266   4.843   7.346 -0.5140 -0.1599  0.3282
  141OSM   H14F15497   7.228   4.945   7.325 -1.5185 -0.9503 -1.8255
  141OSM   H14G15498   7.319   4.838   7.444 -2.5999  1.1927  1.5737
  141OSM   C15F15499   7.165   4.726   7.358 -0.1572 -0.0402 -0.2946
  141OSM   H15F15500   7.221   4.638   7.397  0.5571 -0.1743 -1.5945
  141OSM   H15G15501   7.124   4.719   7.255  1.3217 -0.2242 -0.8731
  141OSM   C16F15502   7.054   4.733   7.465 -0.1479 -0.4823 -0.4749
  141OSM   H16F15503   6.993   4.820   7.434 -1.2157 -0.7480  0.8444
  141OSM   H16G15504   7.098   4.769   7.560 -0.3924 -1.6461  0.0986
  141OSM   C17F15505   6.970   4.608   7.494 -0.2406  0.4060 -0.4551
  141OSM   H17F15506   6.931   4.626   7.597  2.6340  2.1759  0.3969
  141OSM   H17G15507   7.050   4.531   7.501  0.2385  1.0102  1.0947
  141OSM   C18F15508   6.862   4.559   7.398 -0.3530 -0.5969 -0.3008
  141OSM   H18F15509   6.904   4.573   7.296 -1.1655  0.4669 -0.4953
  141OSM   H18G15510   6.764   4.611   7.406 -0.4938 -1.2205  2.4082
  141OSM   H18H15511   6.851   4.450   7.416 -1.5150 -0.0399  2.5490
  142OSM      N15512   0.260   6.339   5.958 -0.1680  0.1082 -0.4758
  142OSM    C1515513   0.296   6.457   5.864 -0.1066 -0.4485  0.0520
  142OSM   H15A15514   0.404   6.457   5.854 -0.1995  1.1975 -1.0545
  142OSM   H15B15515   0.281   6.551   5.914 -0.2758  0.3464 -1.4789
  142OSM   H15C15516   0.248   6.460   5.768  1.3362 -1.2925 -0.7296
  142OSM    C1415517   0.307   6.215   5.884  0.0120 -0.3327  0.6250
  142OSM   H14A15518   0.247   6.203   5.795  0.4422  1.6790  0.0110
  142OSM   H14B15519   0.302   6.125   5.942 -1.0308 -1.3488 -1.0070
  142OSM   H14C15520   0.412   6.225   5.857  0.1717 -2.8362  0.2622
  142OSM    C1315521   0.332   6.353   6.089 -0.0943 -0.1862 -0.2240
  142OSM   H13A15522   0.290   6.440   6.137 -0.5137  0.3241 -1.5019
  142OSM   H13B15523   0.436   6.380   6.073 -0.5127  1.4930 -0.1640
  142OSM   H13C15524   0.317   6.262   6.145  2.3579 -0.1640  0.5365
  142OSM    C1215525   0.109   6.324   5.976  0.1910  0.1146 -0.2388
  142OSM   H12A15526   0.069   6.407   6.031  0.4422  0.4256 -0.5242
  142OSM   H12B15527   0.083   6.240   6.038  1.7182  0.7982  1.3594
  142OSM    C1115528   0.009   6.308   5.846  0.2130 -0.0608 -0.4634
  142OSM   H11A15529   0.016   6.390   5.772 -1.0962 -0.2519 -0.8051
  142OSM   H11B15530  -0.097   6.313   5.879  0.7481 -2.5187  1.8099
  142OSM      P15531  -0.025   6.047   5.859  0.4722 -0.0729 -0.2704
  142OSM    O1315532  -0.177   6.056   5.870  0.1583  0.4452 -0.5620
  142OSM    O1415533   0.026   5.930   5.779  0.2357  0.1231  0.4352
  142OSM    O1115534   0.038   6.040   6.005  0.1257  0.3888  0.0024
  142OSM    O1215535   0.033   6.179   5.790 -0.5980 -0.1092 -0.0826
  142OSM    C1S15536   0.038   5.917   6.084  0.7478  0.4563 -0.0235
  142OSM    H1S15537   0.074   5.830   6.025  0.1778 -1.1118  1.9238
  142OSM    H1T15538  -0.060   5.896   6.131  0.6056 -1.1943 -0.9951
  142OSM     NF15539   0.148   5.797   6.267 -0.0114 -0.0698  0.3676
  142OSM    HNF15540   0.095   5.771   6.347 -0.2168  0.9209  0.5477
  142OSM    C2S15541   0.130   5.930   6.208 -0.7083  0.0881 -0.2075
  142OSM    H2S15542   0.231   5.968   6.181 -1.0382  0.0622 -1.5015
  142OSM    C3S15543   0.056   6.036   6.307 -0.0700  0.5437  0.2473
  142OSM    H3S15544  -0.046   5.995   6.321  1.0520 -2.6537 -0.3805
  142OSM     O315545   0.034   6.159   6.247  0.0733 -0.3634 -0.4088
  142OSM    HO315546   0.035   6.130   6.156 -1.8758 -0.1402 -0.5244
  142OSM    C4S15547   0.134   6.050   6.435  0.1508 -0.0628  0.5834
  142OSM    H4S15548   0.236   6.090   6.444 -0.4072  1.2439  1.1726
  142OSM    C5S15549   0.088   5.998   6.551 -0.5502  0.1910 -0.1632
  142OSM    H5S15550  -0.011   5.950   6.555 -1.1719  1.6009  2.5825
  142OSM    C6S15551   0.165   6.020   6.683 -0.4473 -0.4277  0.1127
  142OSM    H6S15552   0.115   5.960   6.762  0.6217 -0.7826  0.5313
  142OSM    H6T15553   0.159   6.126   6.719 -0.3291 -0.2535 -0.3841
  142OSM    C7S15554   0.319   5.998   6.686 -0.5961  1.1800 -0.0312
  142OSM    H7S15555   0.342   6.008   6.794 -0.6958 -1.7977  0.2967
  142OSM    H7T15556   0.377   6.083   6.643  0.9201 -0.0524 -0.4374
  142OSM    C8S15557   0.380   5.874   6.628 -0.5573  0.1863 -0.4684
  142OSM    H8S15558   0.360   5.872   6.518  0.8074  0.3591 -0.7295
  142OSM    H8T15559   0.314   5.793   6.665 -0.9547  0.5499 -0.3608
  142OSM    C9S15560   0.529   5.850   6.660  0.0222 -0.7987 -0.3582
  142OSM    H9S15561   0.597   5.916   6.602  2.3708 -2.4639  0.3729
  142OSM    H9T15562   0.562   5.749   6.628  0.9741 -1.1184  1.5062
  142OSM   C10S15563   0.580   5.866   6.805 -0.0841 -0.1135 -0.7497
  142OSM   H10S15564   0.556   5.971   6.830  1.1685  0.1887 -0.8030
  142OSM   H10T15565   0.690   5.855   6.805 -0.0312  0.2779  1.5094
  142OSM   C11S15566   0.526   5.762   6.900 -0.7811  0.2929 -0.4343
  142OSM   H11S15567   0.533   5.658   6.864  0.7414 -0.0492  0.7765
  142OSM   H11T15568   0.416   5.764   6.916 -0.9469  1.8981 -1.6684
  142OSM   C12S15569   0.603   5.769   7.037  0.5202 -0.6930  0.6669
  142OSM   H12S15570   0.616   5.877   7.061  0.2215 -0.3471 -0.6664
  142OSM   H12T15571   0.700   5.715   7.028  0.3481 -0.8027 -0.6102
  142OSM   C13S15572   0.534   5.704   7.155  0.1261  0.2159 -0.4620
  142OSM   H13S15573   0.518   5.600   7.121  1.8526  0.2467 -1.4489
  142OSM   H13T15574   0.440   5.753   7.187  1.1954  1.9445  0.0891
  142OSM   C14S15575   0.628   5.703   7.277 -0.7291 -0.8826 -0.5825
  142OSM   H14S15576   0.620   5.806   7.317 -1.5835 -0.9890 -0.4790
  142OSM   H14T15577   0.730   5.683   7.237 -0.0067  1.1656  0.1753
  142OSM   C15S15578   0.591   5.606   7.389 -0.3984  0.2971 -0.4290
  142OSM   H15S15579   0.573   5.503   7.350 -2.7590  0.7771 -0.7048
  142OSM   H15T15580   0.496   5.638   7.437  0.2506  0.0294  1.0866
  142OSM   C16S15581   0.703   5.592   7.502  0.2587  0.3298 -0.3116
  142OSM   H16S15582   0.720   5.698   7.532  2.0833  0.0771 -0.3847
  142OSM   H16T15583   0.791   5.550   7.448 -0.6463  0.9050 -2.2612
  142OSM   C17S15584   0.664   5.507   7.625  0.3575  0.5642 -0.0998
  142OSM   H17S15585   0.632   5.410   7.581  0.1851  0.1372  0.9454
  142OSM   H17T15586   0.582   5.559   7.679 -0.3387 -0.5496 -0.0800
  142OSM   C18S15587   0.774   5.491   7.724 -0.2830 -0.0855 -0.2607
  142OSM   H18S15588   0.815   5.594   7.736  1.8555 -0.9082 -0.2582
  142OSM   H18T15589   0.853   5.419   7.693  0.3345  0.3242  0.3316
  142OSM   H18U15590   0.735   5.448   7.819 -1.5241 -0.1408 -0.7949
  142OSM    C1F15591   0.238   5.712   6.213  0.8132 -0.4386 -0.1641
  142OSM     OF15592   0.310   5.743   6.123  0.0142  0.0671 -0.0342
  142OSM    C2F15593   0.234   5.565   6.267 -0.0839  0.0235 -0.3341
  142OSM    H2F15594   0.309   5.516   6.201 -1.2173  0.1509 -1.7369
  142OSM    H2G15595   0.133   5.519   6.260 -0.0742  0.1582 -1.4302
  142OSM    C3F15596   0.270   5.558   6.422  0.4888 -0.6067  0.2738
  142OSM    H3F15597   0.191   5.617   6.475  2.6565  1.3647  1.4058
  142OSM    H3G15598   0.362   5.619   6.438  0.4125 -0.3741 -0.1555
  142OSM    C4F15599   0.280   5.422   6.485  0.1132  0.4050  0.1889
  142OSM    H4F15600   0.343   5.359   6.419  1.3984 -1.4888  3.1146
  142OSM    H4G15601   0.180   5.373   6.483  0.4828 -0.3499 -2.5843
  142OSM    C5F15602   0.353   5.418   6.626  0.4412 -0.1102  0.5770
  142OSM    H5F15603   0.454   5.461   6.615  0.2544 -0.2296 -2.0234
  142OSM    H5G15604   0.368   5.320   6.676  0.8981  0.3887  1.4118
  142OSM    C6F15605   0.261   5.503   6.723 -0.1401  0.7687  0.9188
  142OSM    H6F15606   0.203   5.590   6.688  0.6629  0.9273 -0.0233
  142OSM    H6G15607   0.329   5.535   6.805 -1.3117  4.4580  0.5068
  142OSM    C7F15608   0.169   5.408   6.800  0.2144  0.5833 -0.1252
  142OSM    H7F15609   0.222   5.321   6.843  1.8293  0.9490 -1.3439
  142OSM    H7G15610   0.098   5.364   6.727 -0.1938 -0.7949  1.0911
  142OSM    C8F15611   0.092   5.482   6.912  0.4632  0.0525 -0.1390
  142OSM    H8F15612   0.002   5.432   6.955  0.4834  0.6435  0.5871
  142OSM    H8G15613   0.052   5.576   6.870  2.2256 -0.4805 -3.1833
  142OSM    C9F15614   0.188   5.518   7.022 -0.0206 -0.0200 -0.5070
  142OSM    H9F15615   0.275   5.451   7.029  0.7550  0.8582 -1.5785
  142OSM   C10F15616   0.179   5.622   7.105  0.1591 -0.1538  0.0974
  142OSM   H10F15617   0.257   5.627   7.182 -1.2779  1.8727  1.5014
  142OSM   C11F15618   0.075   5.731   7.109  0.2388  0.6013  0.4900
  142OSM   H11F15619   0.019   5.736   7.205 -1.6202  2.2326 -0.6303
  142OSM   H11G15620  -0.007   5.720   7.034 -0.8313  0.1786  1.7149
  142OSM   C12F15621   0.130   5.873   7.092 -0.5473  0.7146 -0.0849
  142OSM   H12F15622   0.181   5.885   6.994  1.4324 -0.3478  0.7919
  142OSM   H12G15623   0.214   5.887   7.163 -1.6503 -0.7546  1.5328
  142OSM   C13F15624   0.030   5.989   7.100 -0.1572  0.5499  0.0415
  142OSM   H13F15625  -0.068   5.958   7.059  0.8440 -2.5966 -0.0856
  142OSM   H13G15626   0.059   6.076   7.037  0.5939  1.3296  1.4576
  142OSM   C14F15627   0.020   6.044   7.247 -0.2420  0.2769 -0.0602
  142OSM   H14F15628   0.118   6.086   7.278 -1.5460  1.3683  2.7627
  142OSM   H14G15629  -0.027   5.963   7.308  2.2084  0.4875  2.2250
  142OSM   C15F15630  -0.077   6.163   7.237 -0.1089 -0.2174  0.2176
  142OSM   H15F15631  -0.176   6.130   7.198  0.1164 -1.4021  0.6088
  142OSM   H15G15632  -0.047   6.227   7.152 -1.3601 -0.3477 -0.3357
  142OSM   C16F15633  -0.092   6.249   7.363 -0.0817 -0.2032 -1.5874
  142OSM   H16F15634  -0.118   6.189   7.453  0.9078 -0.5745 -1.5335
  142OSM   H16G15635  -0.169   6.327   7.350  0.6960  1.1747  1.5765
  142OSM   C17F15636   0.027   6.338   7.380  0.8116  0.1526 -0.1432
  142OSM   H17F15637   0.025   6.405   7.292 -0.3808 -0.2223 -0.4012
  142OSM   H17G15638   0.107   6.262   7.368 -2.5884 -3.6019 -0.2136
  142OSM   C18F15639   0.016   6.430   7.500  0.3987  1.1005 -0.2087
  142OSM   H18F15640  -0.081   6.478   7.525 -0.0578  0.1163 -0.0701
  142OSM   H18G15641   0.096   6.507   7.502  5.2833 -3.7083  3.7591
  142OSM   H18H15642   0.025   6.368   7.591  1.5295 -0.2110 -1.2122
  143OSM      N15643   0.787   6.833   5.754  0.1440 -0.1363  0.3566
  143OSM    C1515644   0.638   6.835   5.722 -0.2158  0.2448  0.3579
  143OSM   H15A15645   0.594   6.805   5.817 -0.4283  1.2895  0.5927
  143OSM   H15B15646   0.599   6.771   5.644 -2.4221  0.1146  1.5241
  143OSM   H15C15647   0.602   6.932   5.694 -2.7174 -0.1570  1.9710
  143OSM    C1415648   0.815   6.689   5.807  0.4244  0.1488 -0.0725
  143OSM   H14A15649   0.727   6.643   5.849  0.9557  0.3261  1.2620
  143OSM   H14B15650   0.878   6.699   5.894 -0.3189 -0.0462  0.4869
  143OSM   H14C15651   0.860   6.628   5.730 -1.9861 -0.3931 -1.0963
  143OSM    C1315652   0.871   6.854   5.635  0.1994 -0.2025 -0.0637
  143OSM   H13A15653   0.969   6.810   5.652  1.6151  2.8150 -0.1362
  143OSM   H13B15654   0.881   6.957   5.605  1.9641 -0.2432  0.2777
  143OSM   H13C15655   0.823   6.798   5.556  0.6592  0.5464 -0.8847
  143OSM    C1215656   0.804   6.943   5.857 -0.0755  0.0768 -0.2040
  143OSM   H12A15657   0.776   7.038   5.815 -0.7556 -0.7095 -1.5880
  143OSM   H12B15658   0.910   6.963   5.869  0.2421  0.3175 -3.0983
  143OSM    C1115659   0.743   6.940   5.996 -0.5092  0.0543 -0.3894
  143OSM   H11A15660   0.633   6.934   5.980 -0.5479 -3.2268  0.6611
  143OSM   H11B15661   0.765   7.032   6.053  0.2325 -1.6853  2.2118
  143OSM      P15662   0.933   6.811   6.125 -0.0374  0.1816  0.2070
  143OSM    O1315663   0.976   6.667   6.133 -0.8455 -1.0478 -0.2814
  143OSM    O1415664   1.015   6.904   6.048  0.2986 -0.1660  0.4118
  143OSM    O1115665   0.937   6.853   6.273 -0.2474 -0.7030 -0.7459
  143OSM    O1215666   0.778   6.824   6.071 -0.0335  0.1100  0.4567
  143OSM    C1S15667   0.940   6.999   6.305 -0.5464  0.2017 -0.4519
  143OSM    H1S15668   0.859   7.053   6.252 -0.0649 -0.8963 -2.3323
  143OSM    H1T15669   1.037   7.043   6.275 -0.2388 -0.4107 -0.3593
  143OSM     NF15670   0.932   7.173   6.497  0.0779 -0.4291  0.4295
  143OSM    HNF15671   1.004   7.199   6.561  1.7523 -1.9894 -0.7736
  143OSM    C2S15672   0.926   7.027   6.462 -0.1666 -0.0365  0.3496
  143OSM    H2S15673   0.829   6.976   6.482 -0.0772 -0.0996  0.6160
  143OSM    C3S15674   1.036   6.948   6.538  0.2121 -0.1449  0.3525
  143OSM    H3S15675   1.132   6.999   6.513  0.8268 -0.2958  2.3469
  143OSM     O315676   1.059   6.810   6.499  0.5391  0.3194 -0.1005
  143OSM    HO315677   1.021   6.799   6.412  0.4086  0.5694 -0.0776
  143OSM    C4S15678   1.003   6.946   6.686 -0.6300 -0.4575 -0.3475
  143OSM    H4S15679   0.919   6.879   6.712 -0.1011 -1.7138 -1.8190
  143OSM    C5S15680   1.059   7.019   6.789  0.1146 -0.1761  0.9028
  143OSM    H5S15681   1.135   7.093   6.763  0.1322 -0.8047 -0.9063
  143OSM    C6S15682   1.006   7.004   6.927  0.3695  0.4920 -0.1625
  143OSM    H6S15683   0.918   6.938   6.939  0.3738  0.8099  1.6546
  143OSM    H6T15684   0.968   7.101   6.965  0.5993  0.7708 -0.6357
  143OSM    C7S15685   1.122   6.952   7.009  0.1729  0.6200 -0.5147
  143OSM    H7S15686   1.217   7.006   6.990 -0.5477  1.8661 -0.6617
  143OSM    H7T15687   1.140   6.851   6.967  1.4901  0.2140  0.9958
  143OSM    C8S15688   1.089   6.968   7.160  0.3645  0.4298  0.4598
  143OSM    H8S15689   1.083   7.077   7.179  1.3774  0.2803  1.6941
  143OSM    H8T15690   1.183   6.931   7.206  1.0133  1.1409 -0.2552
  143OSM    C9S15691   0.973   6.894   7.221  0.1249 -0.1525 -0.2719
  143OSM    H9S15692   0.960   6.802   7.159 -0.1531 -0.2474 -0.0713
  143OSM    H9T15693   0.880   6.953   7.207  0.7609  0.9307  0.0290
  143OSM   C10S15694   0.980   6.854   7.367 -0.4455  0.1446  0.7578
  143OSM   H10S15695   1.004   6.955   7.407  2.9303 -0.6576  0.8986
  143OSM   H10T15696   1.064   6.783   7.382  1.9935  2.7645 -0.1163
  143OSM   C11S15697   0.857   6.817   7.443  0.2528  0.4532  0.0981
  143OSM   H11S15698   0.765   6.830   7.383 -0.4031 -0.9751  0.7619
  143OSM   H11T15699   0.824   6.891   7.519 -2.2351  0.0549 -0.5476
  143OSM   C12S15700   0.855   6.674   7.498  0.1156 -0.4185 -0.4684
  143OSM   H12S15701   0.872   6.605   7.412 -0.2400 -1.3132  0.1801
  143OSM   H12T15702   0.751   6.661   7.537 -0.0679 -0.0743 -0.8355
  143OSM   C13S15703   0.953   6.661   7.610  0.1113  0.3320  0.2322
  143OSM   H13S15704   1.037   6.733   7.597  0.5544 -0.1637  0.3507
  143OSM   H13T15705   1.001   6.561   7.609 -0.1355  0.1995 -1.7797
  143OSM   C14S15706   0.896   6.699   7.749  0.3205  0.2381  0.4043
  143OSM   H14S15707   0.802   6.642   7.763  1.8015 -2.2391  0.5949
  143OSM   H14T15708   0.884   6.809   7.752  0.6201  0.2810  0.0005
  143OSM   C15S15709   0.999   6.673   7.855 -0.1614  1.4376  0.3378
  143OSM   H15S15710   1.090   6.734   7.840  1.0093 -0.3285  0.0204
  143OSM   H15T15711   1.033   6.567   7.852 -1.0841  1.1237  0.9206
  143OSM   C16S15712   0.954   6.717   7.995  0.5482  0.1499  0.0550
  143OSM   H16S15713   0.843   6.723   8.004  0.4654  0.2407 -1.0226
  143OSM   H16T15714   0.986   6.824   7.997  3.5590 -0.7070  2.4435
  143OSM   C17S15715   1.026   6.646   8.116 -0.0001 -0.3701 -0.0359
  143OSM   H17S15716   1.022   6.539   8.089 -0.7614 -0.9444  2.1856
  143OSM   H17T15717   0.969   6.662   8.210  0.1781 -1.9333  0.3423
  143OSM   C18S15718   1.165   6.687   8.131  0.2332  1.7994  0.1299
  143OSM   H18S15719   1.178   6.797   8.139  2.1875  1.5619  0.4188
  143OSM   H18T15720   1.220   6.656   8.039 -1.3430 -1.6279  0.2564
  143OSM   H18U15721   1.207   6.660   8.230 -1.0631  0.0668  0.2254
  143OSM    C1F15722   0.834   7.254   6.458 -0.4160  0.2118  0.1362
  143OSM     OF15723   0.736   7.210   6.405  0.9930 -0.8024  0.1037
  143OSM    C2F15724   0.851   7.405   6.490 -0.3427  0.1656 -0.2762
  143OSM    H2F15725   0.833   7.464   6.398  2.6367  0.3200 -0.7970
  143OSM    H2G15726   0.958   7.422   6.511  0.0027 -1.9518 -0.2127
  143OSM    C3F15727   0.751   7.448   6.604  0.2251 -0.5380  0.0141
  143OSM    H3F15728   0.648   7.407   6.603 -0.4234  1.0390  0.5546
  143OSM    H3G15729   0.726   7.550   6.567 -1.9579 -0.2834  2.0762
  143OSM    C4F15730   0.813   7.459   6.739  0.4398 -0.4265 -0.1564
  143OSM    H4F15731   0.766   7.532   6.808 -0.5908 -1.9548  0.8087
  143OSM    H4G15732   0.913   7.505   6.725  0.1498  0.6664  1.2075
  143OSM    C5F15733   0.819   7.332   6.818  0.5406  0.1225  0.8326
  143OSM    H5F15734   0.893   7.339   6.901 -0.0039 -1.0723  1.4265
  143OSM    H5G15735   0.848   7.241   6.760 -1.2680 -0.2627  0.5091
  143OSM    C6F15736   0.681   7.301   6.876 -0.0023  0.5475  0.1224
  143OSM    H6F15737   0.606   7.291   6.795  0.1040 -0.2484  0.1213
  143OSM    H6G15738   0.642   7.381   6.942 -2.5342 -2.1973  2.0710
  143OSM    C7F15739   0.669   7.169   6.948 -0.5601  0.6424  0.3411
  143OSM    H7F15740   0.753   7.156   7.020  1.2297  0.7853 -1.6712
  143OSM    H7G15741   0.664   7.088   6.873 -3.9402  1.9671 -0.9921
  143OSM    C8F15742   0.536   7.169   7.031 -0.5791 -0.4631  0.0504
  143OSM    H8F15743   0.499   7.067   7.056 -0.5213 -0.6952 -0.7972
  143OSM    H8G15744   0.459   7.212   6.964  1.4998 -0.3373 -2.3427
  143OSM    C9F15745   0.539   7.264   7.153 -0.5589  0.3202 -0.1190
  143OSM    H9F15746   0.498   7.362   7.125 -1.9777 -0.3487 -0.4351
  143OSM   C10F15747   0.581   7.238   7.278 -0.2314 -0.3114 -0.4575
  143OSM   H10F15748   0.568   7.325   7.344  0.6697 -2.0275  2.0494
  143OSM   C11F15749   0.624   7.107   7.337  0.4537  0.5762 -1.1213
  143OSM   H11F15750   0.733   7.100   7.360 -0.2523 -0.8329  2.1073
  143OSM   H11G15751   0.604   7.026   7.264  1.0844 -0.5365 -0.0767
  143OSM   C12F15752   0.548   7.067   7.463 -0.3508 -1.1150  0.3122
  143OSM   H12F15753   0.535   6.957   7.468  0.8080 -1.2523  0.4512
  143OSM   H12G15754   0.445   7.108   7.452  0.7568  1.6628 -0.0517
  143OSM   C13F15755   0.607   7.128   7.585  0.7426  0.1413  0.7563
  143OSM   H13F15756   0.620   7.236   7.562 -1.0542 -0.1575 -1.9210
  143OSM   H13G15757   0.713   7.097   7.591  0.4672 -0.3864  3.0542
  143OSM   C14F15758   0.538   7.106   7.718  0.0459  0.2642 -0.5410
  143OSM   H14F15759   0.431   7.130   7.706 -0.4146 -1.8952 -1.0785
  143OSM   H14G15760   0.585   7.176   7.790  1.2437  0.3671 -1.4138
  143OSM   C15F15761   0.564   6.958   7.767 -0.6372  0.1580 -0.3857
  143OSM   H15F15762   0.672   6.944   7.787 -0.7571 -2.2183 -1.3117
  143OSM   H15G15763   0.518   6.879   7.704 -2.6504 -0.7657  2.1451
  143OSM   C16F15764   0.492   6.940   7.907  0.0215 -0.0826 -0.6326
  143OSM   H16F15765   0.389   6.976   7.888  0.4925  1.9863  0.6463
  143OSM   H16G15766   0.552   6.996   7.982 -0.3971 -0.7397  0.1928
  143OSM   C17F15767   0.493   6.796   7.957 -0.0982 -0.3267  0.8253
  143OSM   H17F15768   0.597   6.757   7.949  0.3439  1.1509 -1.0131
  143OSM   H17G15769   0.430   6.743   7.882 -1.5214  1.9810  0.3307
  143OSM   C18F15770   0.432   6.782   8.097 -0.2307 -0.0682  0.0869
  143OSM   H18F15771   0.462   6.686   8.144  1.3193  0.8536  1.0356
  143OSM   H18G15772   0.322   6.796   8.097 -0.2452 -0.1561 -1.1467
  143OSM   H18H15773   0.484   6.857   8.160 -1.2209  0.0599  0.7651
  144OSM      N15774   6.721   0.520   5.877 -1.0242 -0.8516  0.6083
  144OSM    C1515775   6.699   0.490   6.019  0.5090 -0.6096 -0.0036
  144OSM   H15A15776   6.793   0.510   6.068 -1.1031  2.1512  2.1506
  144OSM   H15B15777   6.680   0.385   6.040  1.1514 -1.2586 -2.5668
  144OSM   H15C15778   6.635   0.569   6.055  3.4065  1.3915  0.9545
  144OSM    C1415779   6.835   0.443   5.825  0.4828 -0.0256 -0.0858
  144OSM   H14A15780   6.929   0.471   5.870  0.1103 -1.5649  1.6861
  144OSM   H14B15781   6.847   0.448   5.718  2.2396  1.1323  0.1442
  144OSM   H14C15782   6.821   0.338   5.846 -1.1830 -0.1785 -1.8584
  144OSM    C1315783   6.591   0.476   5.812  0.4664 -0.1375 -0.1324
  144OSM   H13A15784   6.579   0.490   5.706 -1.9829 -0.3025  0.1015
  144OSM   H13B15785   6.509   0.516   5.869 -0.9681  0.0130 -2.2414
  144OSM   H13C15786   6.594   0.369   5.826  0.7491  0.0400  1.1934
  144OSM    C1215787   6.737   0.668   5.860 -0.2137  0.7910  0.1430
  144OSM   H12A15788   6.639   0.710   5.876 -0.2599 -0.0134  2.0348
  144OSM   H12B15789   6.763   0.685   5.756 -0.8631 -0.9216 -0.3128
  144OSM    C1115790   6.815   0.745   5.969 -0.9181  0.0734  0.3201
  144OSM   H11A15791   6.750   0.777   6.053 -1.3310 -2.1707  0.9139
  144OSM   H11B15792   6.857   0.834   5.919 -0.4263 -0.9255 -1.0911
  144OSM      P15793   7.072   0.682   5.962 -0.1024  0.1384  0.3423
  144OSM    O1315794   7.129   0.547   5.979 -0.4515  0.1430 -0.0974
  144OSM    O1415795   7.072   0.738   5.826  0.0717 -0.2913 -0.2509
  144OSM    O1115796   7.150   0.781   6.066 -0.1523  0.0687 -0.2442
  144OSM    O1215797   6.927   0.673   6.025  0.0203 -0.1809  0.0606
  144OSM    C1S15798   7.095   0.877   6.152  0.3261  0.3985  1.1872
  144OSM    H1S15799   6.985   0.885   6.138  0.5002  1.8414  0.5043
  144OSM    H1T15800   7.140   0.973   6.119  1.1063 -0.1535  0.6296
  144OSM     NF15801   7.050   0.951   6.376 -0.0949  0.2381  0.7090
  144OSM    HNF15802   7.097   1.029   6.416 -1.2385  0.9641  0.6785
  144OSM    C2S15803   7.128   0.861   6.302  0.8590  0.1056  0.4109
  144OSM    H2S15804   7.100   0.757   6.327  0.3562  0.0918 -0.1772
  144OSM    C3S15805   7.283   0.872   6.325  0.1043  0.3261 -0.4814
  144OSM    H3S15806   7.321   0.975   6.305  3.4031 -0.7523 -0.0601
  144OSM     O315807   7.360   0.789   6.232  0.3191  0.6053 -0.3144
  144OSM    HO315808   7.297   0.764   6.164  0.2772 -0.0973 -0.0200
  144OSM    C4S15809   7.311   0.833   6.467 -0.2456 -0.3441 -0.2732
  144OSM    H4S15810   7.319   0.917   6.539 -0.8049 -0.1014 -0.4927
  144OSM    C5S15811   7.334   0.711   6.512  1.0842 -0.5634  0.2196
  144OSM    H5S15812   7.338   0.623   6.446 -1.2650  0.4054 -1.2858
  144OSM    C6S15813   7.370   0.688   6.657  0.0986 -0.3082  0.3575
  144OSM    H6S15814   7.479   0.700   6.668  0.0093  0.5851  0.2872
  144OSM    H6T15815   7.354   0.583   6.688 -0.4841  0.3072  2.1798
  144OSM    C7S15816   7.308   0.779   6.762 -0.0508  0.0883  0.1720
  144OSM    H7S15817   7.335   0.886   6.743  0.6672  0.0763  1.1171
  144OSM    H7T15818   7.342   0.763   6.866 -1.6114 -0.7140  0.5827
  144OSM    C8S15819   7.153   0.766   6.758  0.6862  0.1318  0.1106
  144OSM    H8S15820   7.119   0.661   6.744  0.3351  0.5413 -2.3434
  144OSM    H8T15821   7.115   0.818   6.668 -3.0028  1.4752  2.3561
  144OSM    C9S15822   7.088   0.826   6.885 -0.1631 -0.1505  0.2462
  144OSM    H9S15823   6.992   0.873   6.855  0.0472 -0.7732 -1.4779
  144OSM    H9T15824   7.147   0.911   6.923 -0.4294  0.2858 -0.3065
  144OSM   C10S15825   7.071   0.715   6.989 -0.3599  0.3264 -0.3698
  144OSM   H10S15826   7.068   0.760   7.091  0.1248  0.2722 -0.3304
  144OSM   H10T15827   7.150   0.637   6.985 -0.4226  0.1535  1.4517
  144OSM   C11S15828   6.939   0.639   6.965  0.7123 -0.3158  0.1317
  144OSM   H11S15829   6.948   0.539   7.013 -1.4271 -0.1364  0.9628
  144OSM   H11T15830   6.919   0.623   6.857  1.6017  1.2573 -0.2808
  144OSM   C12S15831   6.815   0.704   7.031  0.5176 -0.2126 -0.4189
  144OSM   H12S15832   6.735   0.642   6.986 -0.6041 -0.6067  2.0363
  144OSM   H12T15833   6.813   0.811   7.000  1.5998  0.4281  1.6136
  144OSM   C13S15834   6.811   0.710   7.184  0.1727  0.4959  0.6492
  144OSM   H13S15835   6.886   0.780   7.227  1.3154 -0.3155  0.0166
  144OSM   H13T15836   6.837   0.607   7.215  1.5531  1.0432  1.3560
  144OSM   C14S15837   6.675   0.756   7.235 -0.4258 -0.8900 -0.2710
  144OSM   H14S15838   6.599   0.680   7.207  1.3560 -1.9729 -2.3637
  144OSM   H14T15839   6.646   0.855   7.195 -1.3580 -1.1912 -0.3540
  144OSM   C15S15840   6.688   0.771   7.389 -0.0892  0.3966  0.1649
  144OSM   H15S15841   6.780   0.825   7.420 -1.2867  1.6579  1.6556
  144OSM   H15T15842   6.706   0.666   7.420  1.0331  0.2946 -0.8162
  144OSM   C16S15843   6.568   0.852   7.442 -0.3242  0.6033  0.0659
  144OSM   H16S15844   6.474   0.800   7.414 -0.4644  0.7164  0.3295
  144OSM   H16T15845   6.550   0.948   7.389  1.6170 -0.3943 -2.5091
  144OSM   C17S15846   6.554   0.873   7.595 -0.0402 -0.0389 -0.1489
  144OSM   H17S15847   6.633   0.937   7.638 -0.1872  0.8332 -1.1769
  144OSM   H17T15848   6.570   0.771   7.638  0.0833 -0.3020 -0.8067
  144OSM   C18S15849   6.415   0.937   7.630 -0.1126 -1.0646 -0.9609
  144OSM   H18S15850   6.410   0.928   7.741  1.0379  0.2255 -0.7902
  144OSM   H18T15851   6.323   0.887   7.594  0.2544 -1.9992 -0.6276
  144OSM   H18U15852   6.406   1.043   7.600 -1.5711 -0.7922  0.4191
  144OSM    C1F15853   6.917   0.947   6.373 -0.4899 -0.3141 -0.1594
  144OSM     OF15854   6.855   0.849   6.337  0.6213  0.3058  0.2992
  144OSM    C2F15855   6.844   1.072   6.426 -0.4734 -0.1336 -0.3197
  144OSM    H2F15856   6.748   1.081   6.371  0.3635 -1.6847 -2.0499
  144OSM    H2G15857   6.901   1.165   6.404 -0.0984 -0.0612  0.9233
  144OSM    C3F15858   6.817   1.070   6.577 -0.4381  0.1381 -0.4773
  144OSM    H3F15859   6.907   1.024   6.624 -1.0868  0.3125  0.9442
  144OSM    H3G15860   6.728   1.007   6.599  0.1623 -0.3016  0.7063
  144OSM    C4F15861   6.800   1.208   6.651 -0.3000 -0.5695 -0.5679
  144OSM    H4F15862   6.733   1.276   6.595 -1.0568 -1.3027 -0.5497
  144OSM    H4G15863   6.899   1.259   6.651  0.3093 -1.4688  4.0365
  144OSM    C5F15864   6.746   1.192   6.794 -0.7198  0.0885 -0.4869
  144OSM    H5F15865   6.671   1.110   6.798  1.3890 -1.8588  1.0702
  144OSM    H5G15866   6.691   1.287   6.808 -1.9977 -0.6183 -0.6658
  144OSM    C6F15867   6.851   1.174   6.899 -0.0344  0.3661  0.4189
  144OSM    H6F15868   6.935   1.246   6.904  1.8664 -1.7243 -0.6007
  144OSM    H6G15869   6.890   1.074   6.870  0.2541  1.2033 -2.1653
  144OSM    C7F15870   6.790   1.164   7.037  0.1247 -0.5710 -0.4657
  144OSM    H7F15871   6.710   1.087   7.049  0.7980 -1.3180 -0.7171
  144OSM    H7G15872   6.729   1.255   7.059 -0.4831 -0.6448 -1.7983
  144OSM    C8F15873   6.893   1.122   7.141  0.1892 -0.0189  0.4219
  144OSM    H8F15874   6.971   1.202   7.142  1.0098 -0.7996 -1.0554
  144OSM    H8G15875   6.942   1.027   7.112 -1.0668 -0.3913 -0.5104
  144OSM    C9F15876   6.833   1.120   7.282 -0.3839  0.3262  0.7584
  144OSM    H9F15877   6.735   1.070   7.287  0.9059 -2.4594 -0.3990
  144OSM   C10F15878   6.883   1.163   7.395 -0.2770 -0.3626 -0.7710
  144OSM   H10F15879   6.848   1.128   7.493 -0.3546  3.5970  0.6858
  144OSM   C11F15880   7.024   1.223   7.412 -0.2917  0.0390 -0.1565
  144OSM   H11F15881   7.030   1.282   7.506 -0.8392  0.8047 -0.6010
  144OSM   H11G15882   7.054   1.294   7.333 -3.2724 -0.9779 -2.2979
  144OSM   C12F15883   7.139   1.122   7.428 -0.3331  0.0396  0.8161
  144OSM   H12F15884   7.239   1.146   7.384 -1.3194  0.2434 -1.3930
  144OSM   H12G15885   7.109   1.036   7.365  1.5658 -1.1124  1.4605
  144OSM   C13F15886   7.158   1.076   7.571  0.2812 -0.2517 -1.0755
  144OSM   H13F15887   7.070   1.021   7.609 -0.8420  1.4396 -1.1973
  144OSM   H13G15888   7.173   1.155   7.647  0.2326 -1.7966  0.5833
  144OSM   C14F15889   7.270   0.966   7.571  0.8184  0.2537  0.0073
  144OSM   H14F15890   7.355   1.012   7.516  0.0861  0.4035 -1.0164
  144OSM   H14G15891   7.234   0.885   7.505  1.0874  0.4079 -0.3260
  144OSM   C15F15892   7.314   0.906   7.711  0.7024 -0.2873 -0.2184
  144OSM   H15F15893   7.224   0.863   7.761 -0.4256  1.6113 -0.5792
  144OSM   H15G15894   7.332   0.991   7.779  1.4992 -0.8970  0.3396
  144OSM   C16F15895   7.427   0.803   7.691  0.3292  0.1008  1.0256
  144OSM   H16F15896   7.383   0.735   7.615  0.7035  0.0672  0.8392
  144OSM   H16G15897   7.447   0.747   7.785 -0.6398 -1.8562  0.0867
  144OSM   C17F15898   7.560   0.861   7.641 -0.6121  0.0766  0.1212
  144OSM   H17F15899   7.605   0.917   7.726 -0.4501 -1.7133  1.2601
  144OSM   H17G15900   7.542   0.927   7.554  1.2440 -1.8119 -1.7491
  144OSM   C18F15901   7.645   0.749   7.580 -0.1066 -0.1373  0.4592
  144OSM   H18F15902   7.590   0.678   7.514 -0.8486 -0.5794  1.5517
  144OSM   H18G15903   7.688   0.687   7.662  1.7308  0.6115  0.0950
  144OSM   H18H15904   7.728   0.785   7.515 -1.1517 -2.5611 -2.3574
  145SAPE     N15905   2.180   3.504  10.002  0.1376  0.1065 -0.1490
  145SAPE   HN115906   2.153   3.417   9.953 -2.0788  0.5012  0.3548
  145SAPE   HN215907   2.103   3.570   9.981  0.0602  0.0937  0.0973
  145SAPE   HN315908   2.267   3.548   9.964  0.6114  0.5347  1.3889
  145SAPE   C1215909   2.175   3.488  10.148  0.0507  0.2873  0.3411
  145SAPE  H12A15910   2.068   3.501  10.175 -0.4540  1.1473 -1.9330
  145SAPE  H12B15911   2.248   3.557  10.196 -1.2334  1.4879  0.6270
  145SAPE   C1115912   2.237   3.354  10.189 -0.1898  0.4009 -0.0324
  145SAPE  H11A15913   2.166   3.284  10.139  0.8096  0.9029 -2.2215
  145SAPE  H11B15914   2.232   3.338  10.298  0.4357  3.7403  0.5331
  145SAPE     P15915   2.473   3.234  10.193 -0.1598 -0.0052  0.0111
  145SAPE   O1315916   2.583   3.288  10.276 -0.1701  0.1404 -0.1605
  145SAPE   O1415917   2.387   3.132  10.262 -0.1894 -0.8081 -0.1240
  145SAPE   O1215918   2.374   3.353  10.141  0.5823  0.2032 -0.1063
  145SAPE   O1115919   2.535   3.171  10.064 -0.3270  0.6479  0.1677
  145SAPE    C115920   2.570   3.231   9.943  0.4814  0.1445 -0.2953
  145SAPE    HA15921   2.533   3.335   9.937 -0.3731 -0.2818 -2.7799
  145SAPE    HB15922   2.680   3.232   9.928  0.1327 -1.4822 -3.2090
  145SAPE    C215923   2.487   3.156   9.826  0.1003  0.4527 -0.4338
  145SAPE    HS15924   2.533   3.056   9.816  1.8800  1.2917 -0.7625
  145SAPE   O2115925   2.490   3.239   9.706 -0.5468  0.2980 -0.1568
  145SAPE   C2115926   2.595   3.215   9.635  0.0920 -0.2247 -0.0298
  145SAPE   O2215927   2.665   3.116   9.636 -0.1204  0.5856 -0.5479
  145SAPE   C2215928   2.613   3.349   9.549 -0.5827 -0.1255 -0.3080
  145SAPE   H2R15929   2.561   3.443   9.579 -0.8826 -1.2782  2.9203
  145SAPE   H2S15930   2.721   3.364   9.568 -0.2063 -0.2318 -2.3100
  145SAPE    C315931   2.339   3.123   9.873 -0.5789 -0.4113 -0.1951
  145SAPE    HX15932   2.303   3.222   9.906 -0.6455  0.0502 -1.6061
  145SAPE    HY15933   2.337   3.057   9.963 -0.0030 -0.7459 -0.4217
  145SAPE   O3115934   2.267   3.076   9.759 -0.6866  0.1953  0.2245
  145SAPE   C3115935   2.297   2.947   9.722 -0.3486  0.2028 -0.2432
  145SAPE   O3215936   2.382   2.884   9.783 -0.5314 -0.1295 -0.6344
  145SAPE   C3215937   2.201   2.896   9.617  0.4349  0.0631  0.6415
  145SAPE   H2X15938   2.147   2.984   9.577  1.0042 -0.0755 -0.4307
  145SAPE   H2Y15939   2.137   2.817   9.663 -0.0007 -0.9360 -1.6087
  145SAPE   C2315940   2.582   3.320   9.401 -0.4151 -0.1905 -0.3983
  145SAPE   H3R15941   2.473   3.329   9.386 -0.8519  1.3656  3.1822
  145SAPE   H3S15942   2.630   3.225   9.369  0.4097  0.5106 -1.2702
  145SAPE   C2415943   2.644   3.436   9.318  0.1764  0.4568  0.0093
  145SAPE   H4R15944   2.750   3.452   9.347 -0.9234  0.9838  3.9693
  145SAPE   H4S15945   2.584   3.527   9.342  0.9768  0.9040  0.3313
  145SAPE   C2515946   2.625   3.420   9.169  0.3711 -0.3846 -0.1905
  145SAPE   H5R15947   2.722   3.421   9.118  0.2489  0.2527 -0.4127
  145SAPE   C2615948   2.511   3.424   9.097  0.4243  0.4540  0.1476
  145SAPE   H6R15949   2.515   3.420   8.987 -3.9045  1.5801 -0.1352
  145SAPE   C2715950   2.368   3.442   9.158  0.0858  0.3744  0.2672
  145SAPE   H7R15951   2.384   3.494   9.255  1.9373 -0.3834  0.3959
  145SAPE   H7S15952   2.328   3.340   9.178 -1.0569  1.3442  3.1900
  145SAPE   C2815953   2.276   3.517   9.067  0.4099 -0.3975  0.4398
  145SAPE   H8R15954   2.274   3.625   9.085 -2.9704 -0.0478 -1.5598
  145SAPE   C2915955   2.201   3.475   8.957 -0.9361 -0.3142 -0.1226
  145SAPE   H9R15956   2.135   3.545   8.905 -0.6900  0.2744  0.3515
  145SAPE  C21015957   2.210   3.339   8.892 -0.2611  0.3504 -0.0827
  145SAPE  H10R15958   2.291   3.270   8.923 -1.4214 -1.7165 -1.5053
  145SAPE  H10S15959   2.218   3.356   8.782  2.0297 -1.5134 -0.2487
  145SAPE  C21115960   2.083   3.257   8.917  0.0301  0.9190 -0.7309
  145SAPE  H11R15961   2.036   3.264   9.017 -0.2261  1.3013 -0.8792
  145SAPE  C21215962   2.023   3.175   8.826  1.0440 -0.2349 -0.3059
  145SAPE  H12R15963   1.944   3.104   8.853 -0.9902  1.6550 -1.1817
  145SAPE  C21315964   2.072   3.162   8.686  0.0468  0.2070  0.0144
  145SAPE  H13R15965   2.023   3.068   8.651  1.2115 -1.0838  1.7302
  145SAPE  H13S15966   2.183   3.159   8.677 -0.0088 -0.1473 -0.6164
  145SAPE  C21415967   2.034   3.290   8.614 -0.3469 -0.6894  0.1521
  145SAPE  H14R15968   2.030   3.376   8.683  0.4983 -0.8044  0.3511
  145SAPE  C21515969   2.006   3.313   8.490 -0.6279  0.0888  0.6893
  145SAPE  H15R15970   1.989   3.417   8.458 -0.4090 -0.1736 -0.3091
  145SAPE  C21615971   2.009   3.212   8.379  0.0422 -0.2854 -0.3280
  145SAPE  H16R15972   1.917   3.223   8.317 -0.6647  1.4948  0.9844
  145SAPE  H16S15973   2.013   3.107   8.417 -0.2524  0.3415  1.4916
  145SAPE  C21715974   2.129   3.223   8.285  0.3040 -0.7571 -0.3716
  145SAPE  H17R15975   2.226   3.225   8.339 -0.5586  0.5672  1.1750
  145SAPE  H17S15976   2.125   3.323   8.238 -0.7392 -0.2304  0.8190
  145SAPE  C21815977   2.139   3.121   8.171  1.0947  0.2640 -0.5114
  145SAPE  H18R15978   2.239   3.112   8.124  0.7062 -1.2842 -1.0502
  145SAPE  H18S15979   2.071   3.148   8.087 -2.0165  0.3035  1.9459
  145SAPE  C21915980   2.104   2.975   8.216  0.3350  0.6260  0.3914
  145SAPE  H19R15981   1.999   2.967   8.253  0.7818  0.5062  1.6528
  145SAPE  H19S15982   2.166   2.941   8.302  0.7570  1.0729  0.2605
  145SAPE  C22015983   2.121   2.864   8.103 -0.1179 -0.1359  0.2077
  145SAPE  H20R15984   2.114   2.764   8.151 -0.0109 -0.6649 -0.8487
  145SAPE  H20S15985   2.219   2.855   8.051  1.5284 -1.5820  3.4123
  145SAPE  H20T15986   2.035   2.877   8.034  0.6384 -0.3097 -0.7799
  145SAPE   C3315987   2.278   2.831   9.502 -0.0161 -0.3974  0.1914
  145SAPE   H3X15988   2.197   2.798   9.434 -0.4124 -1.5726  1.2260
  145SAPE   H3Y15989   2.326   2.737   9.539  0.4040  0.5475  2.1189
  145SAPE   C3415990   2.379   2.929   9.446 -0.1527 -0.3204  0.4200
  145SAPE   H4X15991   2.451   2.966   9.523 -2.5037 -0.7344  2.9048
  145SAPE   H4Y15992   2.323   3.021   9.422  2.4993  1.1778 -0.2229
  145SAPE   C3515993   2.452   2.880   9.318  0.4010 -0.5941 -0.0681
  145SAPE   H5X15994   2.380   2.853   9.237  0.7390  0.9378 -0.8824
  145SAPE   H5Y15995   2.507   2.785   9.336  0.5077 -0.9687 -2.3260
  145SAPE   C3615996   2.534   2.995   9.270 -0.2614 -0.3468  0.2391
  145SAPE   H6X15997   2.621   3.001   9.339  0.9549 -0.3295 -1.2710
  145SAPE   H6Y15998   2.481   3.093   9.278  1.3896  0.5261  0.6702
  145SAPE   C3715999   2.596   2.966   9.126  0.1957 -0.0899 -0.1722
  145SAPE   H7X16000   2.514   2.957   9.052  2.1505  0.2716 -2.4499
  145SAPE   H7Y16001   2.661   2.877   9.130  1.1046  0.4487 -2.1380
  145SAPE   C3816002   2.684   3.080   9.066  0.1201  0.1717 -0.1696
  145SAPE   H8X16003   2.738   3.120   9.154 -0.9667  3.6127 -0.9841
  145SAPE   H8Y16004   2.628   3.161   9.014  0.1450  0.3346  0.0559
  145SAPE   C3916005   2.796   3.049   8.965  0.9937  0.6401 -0.2679
  145SAPE   H9X16006   2.858   2.974   9.018  0.6632  0.8172  0.3711
  145SAPE   H9Y16007   2.864   3.132   8.937  0.2170  1.4227  0.1431
  145SAPE  C31016008   2.732   2.975   8.839  0.3285 -0.6535  0.6500
  145SAPE  H10X16009   2.662   2.894   8.869  0.1137 -0.8082 -0.2517
  145SAPE  H10Y16010   2.827   2.937   8.797  1.5988  2.1811  0.7948
  145SAPE  C31116011   2.660   3.074   8.745 -0.1882  0.4590  0.2685
  145SAPE  H11X16012   2.723   3.165   8.736  1.3505 -0.2357  3.4501
  145SAPE  H11Y16013   2.567   3.102   8.798 -0.1594  2.4025 -0.6715
  145SAPE  C31216014   2.636   3.020   8.607 -0.2597  0.4338 -0.6337
  145SAPE  H12X16015   2.739   3.015   8.566 -0.9631 -2.0144 -2.1507
  145SAPE  H12Y16016   2.585   3.092   8.539 -1.6609 -2.4182 -2.7025
  145SAPE  C31316017   2.560   2.885   8.610 -0.4793  0.2578  0.4054
  145SAPE  H13X16018   2.456   2.892   8.648 -1.6690  1.0667 -2.8622
  145SAPE  H13Y16019   2.601   2.807   8.678 -0.6807  1.0491  1.4528
  145SAPE  C31416020   2.559   2.824   8.469 -0.0801  0.1495 -0.2255
  145SAPE  H14X16021   2.662   2.795   8.439  1.0118  2.8017  0.7025
  145SAPE  H14Y16022   2.520   2.911   8.412 -2.2224  0.4566  1.6256
  145SAPE  C31516023   2.451   2.717   8.453 -0.2703 -0.6303 -0.3233
  145SAPE  H15X16024   2.354   2.728   8.507 -0.4477 -2.3224 -0.2829
  145SAPE  H15Y16025   2.498   2.620   8.480  0.1086 -0.3383  0.0835
  145SAPE  C31616026   2.425   2.698   8.293  0.1086 -0.2075  0.7813
  145SAPE  H16X16027   2.356   2.785   8.279 -0.2284 -0.5671  0.1843
  145SAPE  H16Y16028   2.360   2.610   8.280 -1.9227  1.4698 -0.7720
  145SAPE  C31716029   2.550   2.698   8.208  0.6694 -0.4212  0.4933
  145SAPE  H17X16030   2.632   2.641   8.257  1.7388  0.4579 -0.2324
  145SAPE  H17Y16031   2.585   2.803   8.219 -1.6870  0.3587  0.7508
  145SAPE  C31816032   2.529   2.648   8.070  0.7763 -0.4695 -0.8392
  145SAPE  H18X16033   2.452   2.707   8.017 -3.1595 -1.7440  3.1749
  145SAPE  H18Y16034   2.512   2.539   8.065 -0.1806 -0.3647 -0.0598
  145SAPE  H18Z16035   2.630   2.664   8.027  0.4181 -0.0044 -1.5165
  146SAPE     N16036   2.365   2.615   9.875  0.5481 -0.0135  0.0146
  146SAPE   HN116037   2.448   2.579   9.927  0.4313 -1.0901 -0.5309
  146SAPE   HN216038   2.386   2.715   9.859 -0.0410 -0.2466 -2.3135
  146SAPE   HN316039   2.295   2.610   9.951 -0.2698  1.2820 -0.6402
  146SAPE   C1216040   2.320   2.539   9.752  0.1596  0.4397  0.5217
  146SAPE  H12A16041   2.377   2.588   9.671 -0.3299  2.1349  1.1798
  146SAPE  H12B16042   2.211   2.560   9.755 -0.5105 -2.4773 -1.6011
  146SAPE   C1116043   2.337   2.388   9.763 -0.0848 -0.5447  0.1272
  146SAPE  H11A16044   2.445   2.367   9.745  0.0382  1.0960 -1.1793
  146SAPE  H11B16045   2.287   2.329   9.684 -2.7307  0.5814  0.9182
  146SAPE     P16046   2.133   2.342   9.922  0.0518  0.2654 -0.1669
  146SAPE   O1316047   2.102   2.228  10.012  0.3295  0.3640 -0.3177
  146SAPE   O1416048   2.099   2.479   9.973  0.4991 -0.1989 -0.1895
  146SAPE   O1216049   2.290   2.335   9.889 -0.7119  0.1049 -0.0472
  146SAPE   O1116050   2.074   2.339   9.776  0.2400  0.0108  0.5075
  146SAPE    C116051   2.002   2.225   9.719 -0.0239 -0.5836  0.5160
  146SAPE    HA16052   2.025   2.217   9.611  1.4374  0.0803  0.7677
  146SAPE    HB16053   2.031   2.131   9.771 -0.5561 -0.7411  0.5371
  146SAPE    C216054   1.849   2.243   9.734 -0.1477  0.0574 -0.7436
  146SAPE    HS16055   1.824   2.247   9.842 -0.5761  1.3747 -0.8821
  146SAPE   O2116056   1.779   2.148   9.654  0.1517 -0.1670 -0.5781
  146SAPE   C2116057   1.784   2.033   9.713  0.6021  0.2883  0.0582
  146SAPE   O2216058   1.823   2.012   9.824 -0.0635  0.3003 -0.6545
  146SAPE   C2216059   1.728   1.934   9.614 -0.3947 -1.1436 -0.5261
  146SAPE   H2R16060   1.643   1.887   9.668 -0.0748 -0.8806  0.2033
  146SAPE   H2S16061   1.681   1.977   9.523  0.3614  1.7173  0.3824
  146SAPE    C316062   1.815   2.384   9.676  0.0305  0.7205  0.0197
  146SAPE    HX16063   1.850   2.462   9.747  0.0602 -0.4138  1.2732
  146SAPE    HY16064   1.707   2.401   9.658  0.1765  0.5921 -0.9919
  146SAPE   O3116065   1.882   2.396   9.547 -0.0937  0.7234 -0.5635
  146SAPE   C3116066   1.968   2.496   9.524 -0.2413 -0.3031 -0.0963
  146SAPE   O3216067   2.013   2.574   9.605  0.1800 -0.3647  0.4578
  146SAPE   C3216068   2.002   2.503   9.375 -0.1913 -0.1231  0.4654
  146SAPE   H2X16069   2.013   2.608   9.341  1.3127  0.2783  2.1140
  146SAPE   H2Y16070   1.915   2.455   9.326  0.1097 -0.2274  0.0269
  146SAPE   C2316071   1.826   1.828   9.574  0.3340 -0.0334 -0.2212
  146SAPE   H3R16072   1.766   1.744   9.533 -0.2349  0.3808 -0.2445
  146SAPE   H3S16073   1.877   1.783   9.662  2.0923  0.1500 -1.1343
  146SAPE   C2416074   1.937   1.878   9.469  1.1694 -0.2111  0.1150
  146SAPE   H4R16075   2.021   1.808   9.490  0.9496 -0.6380 -0.4312
  146SAPE   H4S16076   1.966   1.978   9.508  1.2883 -1.4065  3.2298
  146SAPE   C2516077   1.893   1.881   9.326 -0.4586 -0.8441  0.0110
  146SAPE   H5R16078   1.854   1.977   9.290 -0.4196 -1.3133 -1.3185
  146SAPE   C2616079   1.907   1.792   9.234 -0.4204 -0.0134  0.7927
  146SAPE   H6R16080   1.898   1.817   9.128  0.2043  2.1806  1.2284
  146SAPE   C2716081   1.971   1.653   9.258  0.8922 -0.0097 -0.3341
  146SAPE   H7R16082   1.959   1.619   9.363  1.0246  1.9591  0.3400
  146SAPE   H7S16083   2.080   1.655   9.237  1.3094 -1.8603  1.4330
  146SAPE   C2816084   1.923   1.549   9.164 -0.4180 -0.2132  0.4529
  146SAPE   H8R16085   1.863   1.473   9.216  0.5206 -1.5284 -0.3780
  146SAPE   C2916086   1.946   1.523   9.032 -0.1346  0.0548  0.0200
  146SAPE   H9R16087   1.893   1.444   8.977  3.2111 -0.6676 -2.3603
  146SAPE  C21016088   2.028   1.613   8.946 -0.6959 -0.3623 -0.1028
  146SAPE  H10R16089   2.091   1.687   8.999 -1.4421  0.4412 -0.3138
  146SAPE  H10S16090   1.952   1.683   8.903  1.7134  2.8347  0.6316
  146SAPE  C21116091   2.104   1.543   8.838 -0.6476 -0.2894  0.3035
  146SAPE  H11R16092   2.197   1.489   8.863  0.2034  0.6814 -0.7208
  146SAPE  C21216093   2.080   1.552   8.705  0.2969 -0.0558 -0.8776
  146SAPE  H12R16094   2.151   1.498   8.639 -0.5689 -0.3334 -1.5851
  146SAPE  C21316095   1.969   1.637   8.642  0.5434  0.0042  0.2921
  146SAPE  H13R16096   1.995   1.739   8.677  0.1970  0.4700 -0.8128
  146SAPE  H13S16097   1.868   1.610   8.680  0.5358 -0.6359 -0.1763
  146SAPE  C21416098   1.966   1.630   8.495  0.4296  0.0420  0.4520
  146SAPE  H14R16099   2.049   1.571   8.452 -1.1667 -0.6584 -1.7426
  146SAPE  C21516100   1.889   1.700   8.407 -1.0372 -0.1274  0.3681
  146SAPE  H15R16101   1.906   1.692   8.298  1.2356  0.0374  0.6935
  146SAPE  C21616102   1.770   1.794   8.443  0.5014 -0.3773 -0.4893
  146SAPE  H16R16103   1.745   1.788   8.551 -0.5091  2.7508 -0.5005
  146SAPE  H16S16104   1.686   1.761   8.379  1.6357 -2.4700 -0.9534
  146SAPE  C21716105   1.817   1.937   8.439 -0.2318  0.2598  0.2091
  146SAPE  H17R16106   1.915   1.952   8.490  0.7331  0.5152 -1.6883
  146SAPE  H17S16107   1.737   1.995   8.491  0.1425 -0.9592  2.2056
  146SAPE  C21816108   1.842   1.977   8.291 -0.6008 -0.3534 -0.5213
  146SAPE  H18R16109   1.744   1.960   8.240 -2.1946 -1.4796  2.7279
  146SAPE  H18S16110   1.923   1.926   8.235 -1.4217 -1.5626 -0.6295
  146SAPE  C21916111   1.883   2.131   8.272  0.4943  0.0268  0.2902
  146SAPE  H19R16112   1.808   2.183   8.336  0.4111  1.8909 -1.2655
  146SAPE  H19S16113   1.882   2.173   8.169 -0.8911 -3.6462 -1.2667
  146SAPE  C22016114   2.020   2.157   8.324 -0.4133  0.6439 -0.2781
  146SAPE  H20R16115   2.026   2.267   8.338 -1.7331  1.0156 -2.3342
  146SAPE  H20S16116   2.094   2.115   8.253  0.0828  0.4443  0.3536
  146SAPE  H20T16117   2.037   2.106   8.421  1.9930 -0.3080 -1.1602
  146SAPE   C3316118   2.132   2.427   9.332  0.4083  0.7334  0.8787
  146SAPE   H3X16119   2.121   2.393   9.227 -1.0773  2.1576  0.5457
  146SAPE   H3Y16120   2.139   2.340   9.401 -0.5065 -0.5308 -0.5944
  146SAPE   C3416121   2.255   2.518   9.352 -0.1384  0.4107 -0.2668
  146SAPE   H4X16122   2.269   2.539   9.460  0.0683  1.5238 -0.5058
  146SAPE   H4Y16123   2.226   2.616   9.308 -0.3986 -0.0400 -1.1147
  146SAPE   C3516124   2.389   2.475   9.294  1.0699  0.1433 -0.9174
  146SAPE   H5X16125   2.408   2.373   9.333 -0.7108  0.1744  0.0443
  146SAPE   H5Y16126   2.460   2.535   9.355 -0.1557  0.5459  0.1130
  146SAPE   C3616127   2.397   2.511   9.149 -0.1671  0.3682  0.2320
  146SAPE   H6X16128   2.411   2.621   9.141 -1.6608  0.5845  0.5261
  146SAPE   H6Y16129   2.303   2.483   9.096 -0.7473  2.4823  0.1042
  146SAPE   C3716130   2.504   2.429   9.065 -0.0686  0.4687 -0.8367
  146SAPE   H7X16131   2.479   2.321   9.077  1.3863  0.2549  0.3507
  146SAPE   H7Y16132   2.606   2.440   9.108  0.0776  1.1830 -1.3586
  146SAPE   C3816133   2.502   2.467   8.918 -0.7723  0.1662 -0.1117
  146SAPE   H8X16134   2.531   2.573   8.905  1.5240 -0.4579 -0.3746
  146SAPE   H8Y16135   2.397   2.467   8.883  0.0202  2.0227 -2.6010
  146SAPE   C3916136   2.595   2.382   8.819 -0.2616  0.2652  0.7609
  146SAPE   H9X16137   2.582   2.274   8.839 -0.8567  0.5186  1.8105
  146SAPE   H9Y16138   2.704   2.402   8.813 -0.3665  0.5537 -0.3699
  146SAPE  C31016139   2.545   2.416   8.674  0.2096  0.5518  0.0105
  146SAPE  H10X16140   2.557   2.525   8.656  1.7354  0.4523  0.3767
  146SAPE  H10Y16141   2.437   2.398   8.660  0.0079  1.6520  0.1345
  146SAPE  C31116142   2.622   2.339   8.560 -0.5010 -0.0728  1.3278
  146SAPE  H11X16143   2.724   2.354   8.600  0.8216 -1.7050 -1.3037
  146SAPE  H11Y16144   2.611   2.387   8.461  1.0942 -0.0305  1.1630
  146SAPE  C31216145   2.594   2.187   8.549  0.5274  0.9496 -0.3801
  146SAPE  H12X16146   2.486   2.163   8.566  0.9553  0.3101  1.6162
  146SAPE  H12Y16147   2.641   2.136   8.636  1.4992  2.5665  0.0717
  146SAPE  C31316148   2.634   2.112   8.421 -0.4578  0.8144  0.5591
  146SAPE  H13X16149   2.614   2.183   8.338  0.4568  0.2924 -0.1140
  146SAPE  H13Y16150   2.576   2.018   8.407 -0.1809  0.7947 -0.4463
  146SAPE  C31416151   2.783   2.086   8.425 -0.4558  0.1936 -0.3051
  146SAPE  H14X16152   2.806   2.022   8.513  1.1361  0.0671 -0.7948
  146SAPE  H14Y16153   2.842   2.180   8.423  0.8938 -0.5416  2.4815
  146SAPE  C31516154   2.826   2.007   8.297 -0.3132 -0.6095  0.1246
  146SAPE  H15X16155   2.761   2.033   8.211 -0.3117 -3.1008 -0.6659
  146SAPE  H15Y16156   2.814   1.898   8.314  1.3052 -1.1374 -1.8723
  146SAPE  C31616157   2.979   2.030   8.283  0.1793  0.2818 -0.0374
  146SAPE  H16X16158   3.026   2.022   8.383  0.5790  0.6976 -0.1914
  146SAPE  H16Y16159   2.998   2.136   8.255 -1.6829  0.2229 -1.7186
  146SAPE  C31716160   3.047   1.937   8.177  0.2166  0.4094  0.3009
  146SAPE  H17X16161   3.003   1.917   8.077  0.3460  0.5582  0.2155
  146SAPE  H17Y16162   3.041   1.843   8.237 -0.4940  1.0806  1.3017
  146SAPE  C31816163   3.197   1.963   8.157  0.3991 -0.4288 -0.7042
  146SAPE  H18X16164   3.199   2.069   8.122 -1.9772 -0.3793 -0.7287
  146SAPE  H18Y16165   3.237   1.892   8.081 -1.9724 -3.0922  0.4761
  146SAPE  H18Z16166   3.268   1.947   8.241  0.4986  2.5463 -0.1420
  147SAPE     N16167   4.795   5.760  10.183  0.2379 -0.5903  0.4480
  147SAPE   HN116168   4.712   5.715  10.226 -0.3445  1.7257  1.8170
  147SAPE   HN216169   4.803   5.740  10.081 -0.3793  1.3437 -0.0001
  147SAPE   HN316170   4.887   5.737  10.227  0.4775 -0.7565 -0.1403
  147SAPE   C1216171   4.778   5.904  10.190  0.1787 -0.5377  1.0033
  147SAPE  H12A16172   4.764   5.930  10.297 -2.1475 -0.7200  0.7740
  147SAPE  H12B16173   4.690   5.934  10.130  0.0014 -0.7843  1.1351
  147SAPE   C1116174   4.899   5.973  10.127 -0.2153 -0.1376  1.2170
  147SAPE  H11A16175   4.916   5.930  10.025 -0.2271  3.1659 -0.2270
  147SAPE  H11B16176   4.990   5.963  10.190 -0.3426  1.9563  1.7624
  147SAPE     P16177   4.794   6.181   9.996 -0.0546  0.0837  0.4679
  147SAPE   O1316178   4.663   6.225  10.050 -0.2240  0.1453  0.1740
  147SAPE   O1416179   4.881   6.281   9.945  0.2857 -0.5351  0.0871
  147SAPE   O1216180   4.872   6.111  10.114 -0.1475 -0.3116 -0.0298
  147SAPE   O1116181   4.775   6.064   9.888 -0.4016 -0.9739  0.0864
  147SAPE    C116182   4.648   6.058   9.826  0.9682  0.2050 -0.7843
  147SAPE    HA16183   4.576   6.018   9.900 -0.7320  0.7252 -2.1267
  147SAPE    HB16184   4.608   6.153   9.785  0.0098  1.3091  2.5379
  147SAPE    C216185   4.652   5.953   9.709  0.0615 -0.2125 -0.6085
  147SAPE    HS16186   4.715   5.867   9.740 -1.0586  0.1111  2.7623
  147SAPE   O2116187   4.715   6.013   9.596 -0.0346 -0.6607  0.2197
  147SAPE   C2116188   4.768   5.928   9.505  0.4719  0.1660 -0.0477
  147SAPE   O2216189   4.783   5.807   9.523 -0.4829 -0.8237 -0.8035
  147SAPE   C2216190   4.803   6.007   9.374 -0.2196 -0.1867 -0.4695
  147SAPE   H2R16191   4.707   6.051   9.340 -0.3754  0.9409  1.3896
  147SAPE   H2S16192   4.869   6.090   9.405 -2.2408  1.5187 -0.6169
  147SAPE    C316193   4.515   5.889   9.683 -0.1682  0.2007 -0.3638
  147SAPE    HX16194   4.481   5.843   9.778  2.7232 -1.0323  0.1297
  147SAPE    HY16195   4.521   5.799   9.617 -2.8881 -0.2289 -0.0990
  147SAPE   O3116196   4.412   5.986   9.647 -0.4180 -0.2651 -0.4319
  147SAPE   C3116197   4.415   6.030   9.526 -0.2286  0.0339  0.1403
  147SAPE   O3216198   4.482   5.984   9.434 -0.0744 -0.2003  0.6940
  147SAPE   C3216199   4.327   6.150   9.518 -0.1216 -0.1975  0.7499
  147SAPE   H2X16200   4.399   6.232   9.540  0.0550 -0.5923  1.6282
  147SAPE   H2Y16201   4.251   6.145   9.598 -1.3916 -1.4457 -0.4934
  147SAPE   C2316202   4.877   5.924   9.265  0.2686 -0.0230 -0.4235
  147SAPE   H3R16203   4.957   5.865   9.315  0.3897 -1.0030 -1.7211
  147SAPE   H3S16204   4.927   6.000   9.201  0.7080  1.1200  1.2619
  147SAPE   C2416205   4.791   5.828   9.184  1.2131 -0.0106  0.0250
  147SAPE   H4R16206   4.694   5.879   9.166  0.0469 -2.5205 -1.0275
  147SAPE   H4S16207   4.766   5.738   9.245  1.8349 -1.6279 -2.0371
  147SAPE   C2516208   4.859   5.787   9.052 -0.0389  0.4896 -0.2994
  147SAPE   H5R16209   4.911   5.690   9.059 -1.0420 -0.1599 -1.6380
  147SAPE   C2616210   4.889   5.854   8.939 -0.9685  0.1668 -0.0199
  147SAPE   H6R16211   4.935   5.798   8.857 -0.4919 -0.4380  0.6662
  147SAPE   C2716212   4.859   6.002   8.913  0.6720  0.1129  0.2335
  147SAPE   H7R16213   4.916   6.071   8.978 -1.9957  0.5124  2.2156
  147SAPE   H7S16214   4.751   6.013   8.934  0.7362  0.2964  0.4698
  147SAPE   C2816215   4.893   6.049   8.777 -0.3643  0.1848  0.4335
  147SAPE   H8R16216   4.998   6.034   8.750 -0.4670 -1.2663  0.7534
  147SAPE   C2916217   4.806   6.098   8.687 -0.0257  0.0468  0.3158
  147SAPE   H9R16218   4.848   6.123   8.589 -1.8836  0.2107 -0.4431
  147SAPE  C21016219   4.659   6.123   8.703 -1.2228 -0.2538  0.6988
  147SAPE  H10R16220   4.646   6.233   8.703  0.0328 -0.0925 -0.2621
  147SAPE  H10S16221   4.629   6.101   8.807 -0.1517 -1.4005  0.7882
  147SAPE  C21116222   4.574   6.050   8.601  0.1753 -0.1392  0.1385
  147SAPE  H11R16223   4.620   6.047   8.501  0.6784  3.1469  0.1909
  147SAPE  C21216224   4.456   5.990   8.609 -0.1549 -0.7477  0.1641
  147SAPE  H12R16225   4.412   5.932   8.526  1.1455 -1.5445  0.0235
  147SAPE  C21316226   4.379   5.976   8.737  0.0363 -0.3329  0.2456
  147SAPE  H13R16227   4.447   5.923   8.807 -0.2630 -2.0516 -0.7450
  147SAPE  H13S16228   4.302   5.897   8.721  0.3690 -0.8227  1.0223
  147SAPE  C21416229   4.332   6.101   8.802  0.4021 -0.1135  0.0774
  147SAPE  H14R16230   4.401   6.157   8.868  0.2847  0.0619  0.0496
  147SAPE  C21516231   4.206   6.157   8.799  0.2422  0.5628  0.3898
  147SAPE  H15R16232   4.186   6.255   8.844  0.2034  1.4237 -1.4622
  147SAPE  C21616233   4.082   6.089   8.736  0.3213 -0.5077 -0.5157
  147SAPE  H16R16234   3.994   6.128   8.792  1.9878  2.6414  0.0659
  147SAPE  H16S16235   4.088   5.981   8.760  0.0655 -0.3815  0.1010
  147SAPE  C21716236   4.084   6.089   8.590  0.1061  0.1345 -0.0538
  147SAPE  H17R16237   4.169   6.038   8.541 -0.1922 -0.8896  0.4907
  147SAPE  H17S16238   4.091   6.198   8.570 -1.2068  0.5533  1.6249
  147SAPE  C21816239   3.947   6.058   8.536 -0.5628  0.0781 -0.9323
  147SAPE  H18R16240   3.873   6.125   8.583  2.9010  3.0637  0.5429
  147SAPE  H18S16241   3.915   5.961   8.581 -1.4456  1.3843  1.2847
  147SAPE  C21916242   3.940   6.057   8.381  0.6387 -0.2953 -0.7163
  147SAPE  H19R16243   4.001   5.985   8.323 -0.0599 -1.7955  0.3668
  147SAPE  H19S16244   3.961   6.161   8.348  0.8534  0.1674  0.8363
  147SAPE  C22016245   3.793   6.015   8.343  0.4656  0.4770 -0.6885
  147SAPE  H20R16246   3.771   5.914   8.385 -2.4875  1.1810 -0.4033
  147SAPE  H20S16247   3.771   6.012   8.234 -0.7861  1.5924 -0.4865
  147SAPE  H20T16248   3.713   6.079   8.387 -0.0655  0.1806 -1.2105
  147SAPE   C3316249   4.259   6.158   9.376  0.1560  0.1121  0.2532
  147SAPE   H3X16250   4.338   6.158   9.297  0.7686  1.3687  0.8550
  147SAPE   H3Y16251   4.214   6.257   9.356 -0.2503 -0.4708 -1.8533
  147SAPE   C3416252   4.147   6.052   9.359  0.2637  0.3059  0.4279
  147SAPE   H4X16253   4.097   6.054   9.458 -1.8565  0.9476 -0.6167
  147SAPE   H4Y16254   4.193   5.952   9.346  2.3940  1.2028  0.8833
  147SAPE   C3516255   4.046   6.070   9.246 -0.3254  0.9627 -0.8529
  147SAPE   H5X16256   3.978   5.982   9.246  0.9440 -0.0415  0.5315
  147SAPE   H5Y16257   4.106   6.059   9.153  1.2694 -1.0119  0.3858
  147SAPE   C3616258   3.979   6.202   9.259  0.0081 -0.2637  0.1736
  147SAPE   H6X16259   4.040   6.290   9.231 -2.3623  1.2644 -0.3104
  147SAPE   H6Y16260   3.930   6.220   9.357 -1.5850 -0.0158 -0.6465
  147SAPE   C3716261   3.863   6.193   9.168  0.0776  0.0913 -0.2293
  147SAPE   H7X16262   3.790   6.111   9.184  1.0846 -0.8620 -0.3965
  147SAPE   H7Y16263   3.904   6.180   9.066  0.7390  1.3863 -0.1319
  147SAPE   C3816264   3.782   6.321   9.163  0.1250 -0.2767  0.5478
  147SAPE   H8X16265   3.849   6.410   9.168 -0.7596  0.4420 -0.1213
  147SAPE   H8Y16266   3.718   6.322   9.254  1.0905  0.6545  1.2295
  147SAPE   C3916267   3.683   6.342   9.042  0.6734  0.3185  0.5102
  147SAPE   H9X16268   3.609   6.419   9.073 -1.0742 -1.6273  1.2541
  147SAPE   H9Y16269   3.617   6.254   9.029  0.2273  0.1803  3.4579
  147SAPE  C31016270   3.735   6.392   8.911  0.1478  0.3774  0.0567
  147SAPE  H10X16271   3.809   6.320   8.869 -0.4001 -0.5877  0.7199
  147SAPE  H10Y16272   3.792   6.487   8.921 -0.5153  0.7313  0.5243
  147SAPE  C31116273   3.630   6.409   8.796 -0.4098  0.6737 -0.1491
  147SAPE  H11X16274   3.556   6.485   8.830 -0.2730  1.2652 -1.1513
  147SAPE  H11Y16275   3.578   6.314   8.771 -1.8747  1.4576 -0.1132
  147SAPE  C31216276   3.687   6.464   8.668  0.9853 -0.1824 -0.3704
  147SAPE  H12X16277   3.787   6.422   8.644  1.2284  0.8566 -1.1809
  147SAPE  H12Y16278   3.709   6.573   8.674 -0.7283  0.1119  1.1414
  147SAPE  C31316279   3.593   6.439   8.551 -1.1931 -0.4629  0.3649
  147SAPE  H13X16280   3.506   6.508   8.550 -2.1494 -1.6170 -2.6230
  147SAPE  H13Y16281   3.549   6.337   8.546  0.0408 -0.9475 -0.9121
  147SAPE  C31416282   3.657   6.461   8.411  0.0863  0.4055  0.1699
  147SAPE  H14X16283   3.580   6.455   8.331 -0.3981  1.7253  0.5321
  147SAPE  H14Y16284   3.706   6.362   8.396  1.4214  1.1375 -0.3779
  147SAPE  C31516285   3.753   6.574   8.394  0.0069 -0.2850  0.1725
  147SAPE  H15X16286   3.844   6.549   8.454 -0.7250 -0.9192  1.0393
  147SAPE  H15Y16287   3.710   6.666   8.438  2.3782  0.2501  1.4480
  147SAPE  C31616288   3.804   6.581   8.250 -0.2504 -0.3009 -0.1544
  147SAPE  H16X16289   3.862   6.492   8.220 -0.7858 -1.1134  1.1660
  147SAPE  H16Y16290   3.875   6.666   8.246 -0.6388 -0.0666 -2.8462
  147SAPE  C31716291   3.684   6.610   8.153  0.3457 -0.1352  0.0950
  147SAPE  H17X16292   3.615   6.686   8.197 -0.1361 -1.1898  1.2103
  147SAPE  H17Y16293   3.625   6.516   8.147 -0.7181  0.4182  1.6353
  147SAPE  C31816294   3.726   6.643   8.006  0.4177  0.0302 -0.8830
  147SAPE  H18X16295   3.780   6.557   7.961  0.4348 -0.3797 -0.0811
  147SAPE  H18Y16296   3.794   6.731   8.006  0.1632  0.2277 -0.5588
  147SAPE  H18Z16297   3.628   6.652   7.954 -1.7547  0.9216  3.1534
  148SAPE     N16298   3.645   1.126  10.536 -0.2836  0.1804 -0.1840
  148SAPE   HN116299   3.739   1.136  10.494  0.0290  2.6917  1.0345
  148SAPE   HN216300   3.598   1.218  10.528 -3.0710 -1.1990 -0.3521
  148SAPE   HN316301   3.643   1.113  10.639  0.9959  0.1022 -0.1601
  148SAPE   C1216302   3.562   1.017  10.467 -0.3334 -0.3170 -0.3399
  148SAPE  H12A16303   3.465   1.000  10.517 -0.3911 -1.7896 -0.9176
  148SAPE  H12B16304   3.623   0.924  10.478  1.9911  0.5966 -4.3628
  148SAPE   C1116305   3.546   1.044  10.317 -0.7686 -0.6639 -1.1787
  148SAPE  H11A16306   3.487   1.138  10.309 -2.8555 -1.9592 -1.6101
  148SAPE  H11B16307   3.484   0.965  10.269 -1.2713 -0.5613 -0.7037
  148SAPE     P16308   3.731   1.135  10.139  0.2322  0.0987 -0.1804
  148SAPE   O1316309   3.766   1.275  10.188  0.1367  0.1091 -0.5549
  148SAPE   O1416310   3.847   1.063  10.085 -0.2072  0.3707 -0.4244
  148SAPE   O1216311   3.673   1.050  10.258  0.0004 -0.0863  0.4390
  148SAPE   O1116312   3.628   1.142  10.024  0.3116 -0.9414 -0.6099
  148SAPE    C116313   3.513   1.234  10.025 -0.0313 -0.3216  0.5762
  148SAPE    HA16314   3.516   1.308  10.108  0.2500  0.6535 -0.2848
  148SAPE    HB16315   3.516   1.304   9.939 -1.1883  0.7063  1.3514
  148SAPE    C216316   3.379   1.164  10.013  0.5712 -0.2840 -0.3502
  148SAPE    HS16317   3.366   1.111  10.110 -1.2126  3.7542  1.7447
  148SAPE   O2116318   3.358   1.090   9.887  0.1386  0.3940  0.4002
  148SAPE   C2116319   3.274   0.990   9.885  0.8072 -0.4935  0.2178
  148SAPE   O2216320   3.212   0.951   9.982 -0.7783 -0.6490 -1.1101
  148SAPE   C2216321   3.260   0.941   9.748 -0.0397 -0.0503  1.0577
  148SAPE   H2R16322   3.265   1.034   9.687 -1.6090  0.0543  1.0846
  148SAPE   H2S16323   3.345   0.875   9.719 -2.4953 -1.9891 -1.9309
  148SAPE    C316324   3.253   1.258  10.024 -0.5327  0.4148 -0.0462
  148SAPE    HX16325   3.269   1.313  10.119  1.7943 -0.1696 -0.0756
  148SAPE    HY16326   3.153   1.210  10.032  0.0979 -1.1540 -1.3637
  148SAPE   O3116327   3.257   1.351   9.915  0.0929  0.1752 -0.1727
  148SAPE   C3116328   3.182   1.330   9.809  0.3602  0.8830 -0.2939
  148SAPE   O3216329   3.092   1.246   9.798 -0.8746  0.1475 -0.4667
  148SAPE   C3216330   3.217   1.432   9.701  0.2363  0.4844  1.1450
  148SAPE   H2X16331   3.289   1.507   9.741 -0.6012  2.1855 -0.4541
  148SAPE   H2Y16332   3.123   1.491   9.693  0.2649  0.2359 -1.2506
  148SAPE   C2316333   3.127   0.864   9.729  0.0141 -0.0175  0.1123
  148SAPE   H3R16334   3.050   0.904   9.797  2.8423  2.0495  2.2307
  148SAPE   H3S16335   3.137   0.760   9.768 -1.5873  0.0509  0.7112
  148SAPE   C2416336   3.077   0.860   9.579  0.1234 -0.4964 -0.5070
  148SAPE   H4R16337   2.983   0.801   9.579  1.0255 -2.0352  2.1319
  148SAPE   H4S16338   3.144   0.799   9.514 -0.4004 -1.3198 -0.2870
  148SAPE   C2516339   3.038   0.990   9.520 -0.0635  0.4410 -0.7295
  148SAPE   H5R16340   2.969   1.041   9.590 -0.2940 -0.3601 -0.3733
  148SAPE   C2616341   3.081   1.049   9.409  0.2077 -0.4076  0.2946
  148SAPE   H6R16342   3.041   1.150   9.389  0.8924 -0.7045 -2.8784
  148SAPE   C2716343   3.179   0.993   9.307 -0.0752  0.1190  0.1101
  148SAPE   H7R16344   3.253   0.920   9.345 -0.9442  0.7889  3.2354
  148SAPE   H7S16345   3.237   1.077   9.264  1.3288 -1.1523 -0.5130
  148SAPE   C2816346   3.103   0.942   9.189 -0.0909 -0.1588  0.3634
  148SAPE   H8R16347   3.036   0.858   9.214 -1.2040  1.7542  4.1472
  148SAPE   C2916348   3.131   0.975   9.055  0.5019 -0.7202 -0.7844
  148SAPE   H9R16349   3.077   0.924   8.973  0.0782 -1.3015 -0.1507
  148SAPE  C21016350   3.234   1.075   8.995 -0.9670 -0.5933  0.4352
  148SAPE  H10R16351   3.310   1.010   8.945  0.1792 -0.0750  1.4829
  148SAPE  H10S16352   3.296   1.134   9.065 -2.8253 -0.1352  1.7048
  148SAPE  C21116353   3.172   1.168   8.887 -0.1077  0.2363  0.3850
  148SAPE  H11R16354   3.116   1.254   8.926  0.8093 -0.0500  2.3575
  148SAPE  C21216355   3.185   1.155   8.749  0.1549  0.2721 -0.0021
  148SAPE  H12R16356   3.121   1.211   8.680  0.7054  0.4576 -0.3634
  148SAPE  C21316357   3.264   1.054   8.672  0.3536 -0.2818  0.2127
  148SAPE  H13R16358   3.322   0.999   8.749  0.9408 -0.3258 -0.2597
  148SAPE  H13S16359   3.347   1.116   8.630  1.3389 -1.0187  1.0426
  148SAPE  C21416360   3.184   0.971   8.581  0.7567  0.6478  0.4561
  148SAPE  H14R16361   3.076   0.970   8.599  1.1052  1.2412  2.6622
  148SAPE  C21516362   3.232   0.902   8.475 -0.2813  0.0790 -0.1884
  148SAPE  H15R16363   3.165   0.836   8.418  0.0396  1.0357 -1.6798
  148SAPE  C21616364   3.378   0.895   8.431 -0.0203  0.1464 -0.5131
  148SAPE  H16R16365   3.398   0.790   8.402 -0.7846 -0.3733  0.7996
  148SAPE  H16S16366   3.438   0.921   8.521 -0.8608  1.2458 -0.2485
  148SAPE  C21716367   3.405   0.992   8.317 -0.1141 -0.2148  0.1630
  148SAPE  H17R16368   3.367   1.090   8.350 -1.8384 -0.8705  0.1720
  148SAPE  H17S16369   3.348   0.953   8.229 -1.2390 -0.0347  0.8119
  148SAPE  C21816370   3.556   0.997   8.281  0.3024 -0.1418 -0.3923
  148SAPE  H18R16371   3.584   0.900   8.235 -1.5506 -0.9588  0.1442
  148SAPE  H18S16372   3.618   1.009   8.373 -0.6315 -0.7459  0.3283
  148SAPE  C21916373   3.582   1.118   8.193 -0.0266 -0.4690  0.2821
  148SAPE  H19R16374   3.691   1.128   8.180 -0.0424 -0.1315  0.4007
  148SAPE  H19S16375   3.555   1.214   8.242  0.6837  0.9095 -1.9226
  148SAPE  C22016376   3.517   1.122   8.057  0.7725 -0.0015  0.0152
  148SAPE  H20R16377   3.575   1.182   7.983  1.2583 -1.7453 -1.0580
  148SAPE  H20S16378   3.414   1.161   8.060  0.5966 -0.5319  1.4661
  148SAPE  H20T16379   3.488   1.026   8.009 -0.2853 -1.0136  2.5665
  148SAPE   C3316380   3.249   1.363   9.563  0.8250  0.2142  0.6229
  148SAPE   H3X16381   3.228   1.440   9.486  0.6990 -1.4115 -1.0005
  148SAPE   H3Y16382   3.184   1.277   9.538  0.0697  0.4091  1.8336
  148SAPE   C3416383   3.401   1.340   9.560  0.3969  1.0498  0.0829
  148SAPE   H4X16384   3.431   1.277   9.646 -1.2498 -1.5988 -1.2272
  148SAPE   H4Y16385   3.447   1.441   9.562 -0.2932  1.3753 -0.2710
  148SAPE   C3516386   3.445   1.264   9.429  0.1914 -0.2228 -0.7759
  148SAPE   H5X16387   3.429   1.326   9.337  1.8452 -1.7408 -2.1065
  148SAPE   H5Y16388   3.377   1.177   9.423 -0.0115 -0.1659  0.5188
  148SAPE   C3616389   3.590   1.217   9.436 -0.2608  0.2165  0.1415
  148SAPE   H6X16390   3.601   1.156   9.527 -0.9184 -1.0790 -0.6268
  148SAPE   H6Y16391   3.670   1.294   9.439  0.4319 -0.4155 -1.4588
  148SAPE   C3716392   3.625   1.128   9.315 -0.4681 -0.5981  0.5259
  148SAPE   H7X16393   3.538   1.058   9.313  0.1215 -1.3971  2.0838
  148SAPE   H7Y16394   3.719   1.072   9.330  0.8129  0.9672 -1.4144
  148SAPE   C3816395   3.640   1.200   9.183  0.3023 -0.7198 -0.1966
  148SAPE   H8X16396   3.721   1.276   9.192 -0.8922  0.6061 -0.3298
  148SAPE   H8Y16397   3.555   1.263   9.149 -1.1513 -1.7359  1.4441
  148SAPE   C3916398   3.683   1.122   9.062 -0.5592  0.3882 -0.0350
  148SAPE   H9X16399   3.602   1.051   9.033 -4.0991  3.4013  1.9829
  148SAPE   H9Y16400   3.785   1.080   9.075  0.0143  1.6335 -0.3715
  148SAPE  C31016401   3.701   1.219   8.943  0.1682 -0.4912  0.0214
  148SAPE  H10X16402   3.784   1.289   8.967  1.0901 -2.1931  2.0544
  148SAPE  H10Y16403   3.613   1.279   8.911 -0.9182 -1.6457  0.7656
  148SAPE  C31116404   3.745   1.136   8.823  0.2294  0.3367  0.6351
  148SAPE  H11X16405   3.672   1.054   8.807  0.2888  0.2163  0.9662
  148SAPE  H11Y16406   3.837   1.081   8.851 -0.9654 -1.6963  0.6437
  148SAPE  C31216407   3.754   1.222   8.692  0.0446 -0.6411 -0.2444
  148SAPE  H12X16408   3.658   1.274   8.674  0.4246  0.3951  0.6561
  148SAPE  H12Y16409   3.779   1.150   8.611 -2.7115 -0.5885 -1.1807
  148SAPE  C31316410   3.868   1.315   8.705  0.1059 -0.1845  0.1057
  148SAPE  H13X16411   3.965   1.269   8.734  0.0276 -0.3145  0.1609
  148SAPE  H13Y16412   3.844   1.384   8.788 -0.8694  0.3938 -0.6491
  148SAPE  C31416413   3.907   1.393   8.586  0.3887 -0.8880  0.3171
  148SAPE  H14X16414   3.814   1.443   8.551  0.7633 -1.2062 -1.1635
  148SAPE  H14Y16415   3.942   1.322   8.508 -0.8261  0.1184 -1.1632
  148SAPE  C31516416   4.012   1.499   8.610  0.7398  0.0500 -0.6246
  148SAPE  H15X16417   4.082   1.450   8.681  1.3443  1.4651 -0.2272
  148SAPE  H15Y16418   3.974   1.575   8.681  0.0903 -1.0837  0.2684
  148SAPE  C31616419   4.068   1.570   8.492  0.0791 -0.2022  0.0838
  148SAPE  H16X16420   3.988   1.620   8.435  0.9160  1.8890  0.7028
  148SAPE  H16Y16421   4.102   1.480   8.435  0.5732 -1.8606  2.8676
  148SAPE  C31716422   4.186   1.660   8.526 -0.1949 -0.1321 -0.1477
  148SAPE  H17X16423   4.261   1.616   8.596 -0.1386  1.2279  0.6689
  148SAPE  H17Y16424   4.149   1.758   8.563 -0.1056 -0.1176 -0.0952
  148SAPE  C31816425   4.263   1.697   8.398  0.4863  0.2734 -0.3280
  148SAPE  H18X16426   4.186   1.716   8.319 -0.5564 -3.3442 -0.3032
  148SAPE  H18Y16427   4.321   1.604   8.378 -0.2922 -0.2044 -0.4030
  148SAPE  H18Z16428   4.329   1.784   8.416  0.3865  0.3112 -0.1480
  149SAPE     N16429   0.302   3.780  10.163  0.5151 -0.2608  0.0506
  149SAPE   HN116430   0.225   3.785  10.093  0.2423 -4.3206 -0.0429
  149SAPE   HN216431   0.312   3.682  10.193  3.4808 -0.7260 -2.2328
  149SAPE   HN316432   0.277   3.840  10.244 -0.1064 -1.3113  0.6398
  149SAPE   C1216433   0.432   3.824  10.101 -0.1289 -0.2265 -0.2816
  149SAPE  H12A16434   0.513   3.810  10.175 -1.7079 -0.5308  1.4191
  149SAPE  H12B16435   0.429   3.931  10.070 -0.8693  0.9311  3.5722
  149SAPE   C1116436   0.463   3.738   9.974  0.4610 -0.7914 -0.3272
  149SAPE  H11A16437   0.555   3.778   9.928 -0.8548 -0.5938 -2.8346
  149SAPE  H11B16438   0.380   3.755   9.902 -0.8623 -1.5086  0.9772
  149SAPE     P16439   0.607   3.525  10.053 -0.0178 -0.5526 -0.2815
  149SAPE   O1316440   0.646   3.581  10.185 -0.0803  0.1849 -0.2936
  149SAPE   O1416441   0.580   3.379  10.047  0.1044  0.3570 -0.3339
  149SAPE   O1216442   0.481   3.599   9.992  0.3888 -0.1972  0.3050
  149SAPE   O1116443   0.728   3.572   9.954  0.7080  0.8051  0.4523
  149SAPE    C116444   0.729   3.517   9.820 -0.1454 -0.1615 -0.7542
  149SAPE    HA16445   0.626   3.510   9.777 -1.0503 -0.1192  1.3771
  149SAPE    HB16446   0.783   3.588   9.753  3.1815 -0.7219  1.2224
  149SAPE    C216447   0.797   3.378   9.815  0.1027  0.5399  0.5833
  149SAPE    HS16448   0.797   3.341   9.920 -0.3691  2.6199  1.3595
  149SAPE   O2116449   0.924   3.398   9.757  0.8576 -0.2867 -0.2872
  149SAPE   C2116450   1.007   3.299   9.782  0.8482 -0.0977  0.3255
  149SAPE   O2216451   0.988   3.203   9.849 -0.2902 -0.0028  0.2097
  149SAPE   C2216452   1.142   3.342   9.720 -0.8564  0.0888  0.5502
  149SAPE   H2R16453   1.174   3.435   9.771  1.2035 -0.3978  0.1991
  149SAPE   H2S16454   1.220   3.266   9.742  0.2697  1.4401  1.2964
  149SAPE    C316455   0.710   3.274   9.731 -0.1226  0.2753  0.5341
  149SAPE    HX16456   0.616   3.248   9.783 -1.4524  3.5334 -0.1136
  149SAPE    HY16457   0.756   3.174   9.716 -2.5370 -0.8654  0.4699
  149SAPE   O3116458   0.677   3.323   9.598 -0.1446 -0.0437  0.4235
  149SAPE   C3116459   0.747   3.292   9.493 -0.1252 -0.1291 -0.1348
  149SAPE   O3216460   0.835   3.210   9.490  0.6834  0.1071  0.2839
  149SAPE   C3216461   0.711   3.386   9.375 -0.4370 -0.0407  0.3097
  149SAPE   H2X16462   0.791   3.463   9.377 -2.3929  2.1407 -1.8608
  149SAPE   H2Y16463   0.612   3.430   9.400 -0.1658  0.7934 -0.0489
  149SAPE   C2316464   1.144   3.355   9.572  0.5799  0.2728  0.3055
  149SAPE   H3R16465   1.084   3.443   9.538 -1.5785 -0.7710  1.3003
  149SAPE   H3S16466   1.089   3.277   9.515  2.8162 -0.5094 -0.8208
  149SAPE   C2416467   1.290   3.359   9.514 -0.3138  0.8316 -0.1591
  149SAPE   H4R16468   1.366   3.422   9.566 -0.7951  1.4540 -0.2082
  149SAPE   H4S16469   1.268   3.406   9.416 -0.2182  1.5335  0.1513
  149SAPE   C2516470   1.353   3.223   9.502  0.3280  1.0037  0.5079
  149SAPE   H5R16471   1.408   3.194   9.593  2.1812  2.1882 -0.1809
  149SAPE   C2616472   1.381   3.144   9.394  0.7696  0.4127 -0.8101
  149SAPE   H6R16473   1.430   3.047   9.409 -1.0890 -0.2595  1.2452
  149SAPE   C2716474   1.346   3.183   9.253  0.1280  0.4156 -0.2125
  149SAPE   H7R16475   1.384   3.101   9.187  0.3886 -0.1277  0.6128
  149SAPE   H7S16476   1.381   3.285   9.225 -1.3749  1.1823  0.6576
  149SAPE   C2816477   1.200   3.196   9.227 -0.0594 -0.8590 -0.2160
  149SAPE   H8R16478   1.147   3.186   9.322  0.9574  3.6874  0.9489
  149SAPE   C2916479   1.140   3.213   9.109 -0.2668 -0.9384 -0.0435
  149SAPE   H9R16480   1.030   3.218   9.119 -0.2654 -0.3234 -0.2986
  149SAPE  C21016481   1.208   3.226   8.976  0.4246  0.2610  0.4738
  149SAPE  H10R16482   1.226   3.122   8.940 -3.9505 -0.9215  1.4425
  149SAPE  H10S16483   1.307   3.265   9.010  0.6009  0.1384  0.0995
  149SAPE  C21116484   1.130   3.307   8.872 -0.0882  0.4320 -0.1301
  149SAPE  H11R16485   1.079   3.402   8.890 -0.8440  0.1592 -0.7813
  149SAPE  C21216486   1.121   3.272   8.740 -0.2026 -0.0169  0.6509
  149SAPE  H12R16487   1.063   3.339   8.675 -0.3117 -0.3514  0.4025
  149SAPE  C21316488   1.185   3.150   8.675  0.2675  0.1177  0.1821
  149SAPE  H13R16489   1.099   3.088   8.643 -0.2025  0.8307  0.0391
  149SAPE  H13S16490   1.246   3.094   8.748 -1.0404  0.5809  1.6453
  149SAPE  C21416491   1.267   3.177   8.553 -0.8535  0.0694 -0.1196
  149SAPE  H14R16492   1.374   3.192   8.577 -0.5725 -0.3188 -1.0870
  149SAPE  C21516493   1.231   3.183   8.424  0.1650  0.1864 -0.4692
  149SAPE  H15R16494   1.306   3.214   8.350 -1.2466  2.2094 -1.0991
  149SAPE  C21616495   1.093   3.168   8.362 -0.2346 -0.2050 -0.7201
  149SAPE  H16R16496   1.015   3.187   8.438 -0.8922 -1.8980 -0.9580
  149SAPE  H16S16497   1.080   3.064   8.327  1.3886 -1.4525  2.1917
  149SAPE  C21716498   1.072   3.271   8.247  0.4427 -0.1754 -0.5915
  149SAPE  H17R16499   1.159   3.266   8.178  0.8826  0.9991 -0.1243
  149SAPE  H17S16500   1.063   3.376   8.280 -2.7759 -0.0415 -1.7315
  149SAPE  C21816501   0.942   3.246   8.172  0.5912 -0.6740  0.3121
  149SAPE  H18R16502   0.853   3.260   8.236  0.8872 -0.2816  0.6444
  149SAPE  H18S16503   0.924   3.144   8.134 -0.8104 -0.4836  0.4516
  149SAPE  C21916504   0.938   3.336   8.039  0.6895  0.0543 -0.3220
  149SAPE  H19R16505   1.030   3.317   7.979  0.2271  1.1957 -1.4069
  149SAPE  H19S16506   0.955   3.440   8.074 -1.3280  0.4655 -0.4941
  149SAPE  C22016507   0.808   3.312   7.960  0.3960 -0.2446 -0.2269
  149SAPE  H20R16508   0.820   3.374   7.868 -2.1595 -0.5930 -0.8494
  149SAPE  H20S16509   0.722   3.352   8.019  1.7365  1.3466  0.6936
  149SAPE  H20T16510   0.789   3.205   7.937  1.0080 -0.3745 -0.1120
  149SAPE   C3316511   0.694   3.298   9.249  1.3726  0.0010 -0.2853
  149SAPE   H3X16512   0.607   3.229   9.256  0.1962  1.5930  1.1465
  149SAPE   H3Y16513   0.787   3.242   9.225  1.5643  1.0184 -1.9721
  149SAPE   C3416514   0.650   3.384   9.133  0.3765  0.3724  0.4250
  149SAPE   H4X16515   0.726   3.459   9.101  0.3736 -0.3981 -1.4579
  149SAPE   H4Y16516   0.569   3.444   9.179 -1.2518  0.1869 -2.0837
  149SAPE   C3516517   0.618   3.306   9.012 -0.0739 -0.0573  0.2879
  149SAPE   H5X16518   0.570   3.368   8.933  0.7920  1.6343  1.0654
  149SAPE   H5Y16519   0.544   3.227   9.036  0.3277 -0.1280  1.3378
  149SAPE   C3616520   0.745   3.253   8.931  0.3255  0.0896 -0.7099
  149SAPE   H6X16521   0.785   3.165   8.987  2.8172  1.2674 -0.5872
  149SAPE   H6Y16522   0.829   3.325   8.938  1.7705 -1.7271  1.5153
  149SAPE   C3716523   0.712   3.227   8.781  0.7151 -0.0635  0.1941
  149SAPE   H7X16524   0.813   3.195   8.747  1.2760  1.1564  0.7177
  149SAPE   H7Y16525   0.685   3.322   8.732  0.5079  0.0096  0.4469
  149SAPE   C3816526   0.613   3.118   8.744 -0.1498 -0.2008  0.4385
  149SAPE   H8X16527   0.515   3.135   8.793 -0.5880 -0.6690 -0.2770
  149SAPE   H8Y16528   0.662   3.026   8.784  2.1972  1.0497  0.5664
  149SAPE   C3916529   0.589   3.102   8.592  0.4371  1.1237 -0.2561
  149SAPE   H9X16530   0.576   3.200   8.541 -2.6149  1.2318  0.6778
  149SAPE   H9Y16531   0.494   3.045   8.583  1.0931  0.4491 -3.7655
  149SAPE  C31016532   0.698   3.025   8.511  0.4274 -0.1240 -0.2618
  149SAPE  H10X16533   0.710   2.926   8.560  0.3612  0.2582  0.5337
  149SAPE  H10Y16534   0.799   3.071   8.510  0.0957  0.6138  0.1969
  149SAPE  C31116535   0.654   3.003   8.364  0.3181 -0.8712  0.3264
  149SAPE  H11X16536   0.634   3.101   8.317  3.1453 -0.2375  0.3563
  149SAPE  H11Y16537   0.567   2.934   8.357  0.9039 -1.6738  0.8310
  149SAPE  C31216538   0.760   2.951   8.270  0.0289 -0.5067 -0.3682
  149SAPE  H12X16539   0.814   2.862   8.309  2.6583  1.2194  0.0669
  149SAPE  H12Y16540   0.837   3.028   8.247 -1.3914  0.9213 -0.4145
  149SAPE  C31316541   0.705   2.920   8.119 -0.1400  0.4067  0.0061
  149SAPE  H13X16542   0.678   3.017   8.072 -0.5999  0.9455  1.3362
  149SAPE  H13Y16543   0.606   2.869   8.120 -0.7432  1.4316 -2.7853
  149SAPE  C31416544   0.805   2.846   8.031  0.0835  0.0586  1.2811
  149SAPE  H14X16545   0.831   2.743   8.062 -1.0491 -0.8898 -0.8799
  149SAPE  H14Y16546   0.894   2.912   8.033  0.0602  0.0797  1.7306
  149SAPE  C31516547   0.766   2.847   7.888  0.9641  0.0080  0.1338
  149SAPE  H15X16548   0.847   2.829   7.814  0.0390  0.0726 -0.9208
  149SAPE  H15Y16549   0.732   2.950   7.867  2.6560  0.3269 -1.1415
  149SAPE  C31616550   0.658   2.743   7.843 -0.3540  0.5083 -0.6234
  149SAPE  H16X16551   0.562   2.762   7.896 -1.3795 -0.2651 -2.1549
  149SAPE  H16Y16552   0.692   2.642   7.876 -2.8620 -0.2862 -0.3551
  149SAPE  C31716553   0.627   2.734   7.691  0.7390  0.8243 -0.3558
  149SAPE  H17X16554   0.545   2.659   7.685 -0.2570  1.8305  0.4777
  149SAPE  H17Y16555   0.717   2.682   7.651 -1.0376 -1.1370 -1.9056
  149SAPE  C31816556   0.599   2.865   7.614 -0.3583  0.0317 -0.1614
  149SAPE  H18X16557   0.681   2.934   7.642  1.1665 -1.8798  0.1471
  149SAPE  H18Y16558   0.504   2.907   7.653  0.1059 -0.1362  1.1640
  149SAPE  H18Z16559   0.601   2.850   7.504  0.6329  0.6495 -0.2293
  150SAPE     N16560   1.644   1.100  10.149  0.1263 -0.3148  0.6210
  150SAPE   HN116561   1.566   1.048  10.103 -0.4338  0.1802  1.0081
  150SAPE   HN216562   1.735   1.066  10.110  0.9265 -0.8564  2.9032
  150SAPE   HN316563   1.639   1.077  10.250 -3.1013  0.3485  0.6513
  150SAPE   C1216564   1.622   1.247  10.135  0.3475  0.2785  0.0997
  150SAPE  H12A16565   1.689   1.303  10.204  2.9786  0.7550 -2.6858
  150SAPE  H12B16566   1.518   1.264  10.170 -0.1985  0.7036 -1.6644
  150SAPE   C1116567   1.642   1.305   9.992  0.4077 -0.8973  0.2797
  150SAPE  H11A16568   1.633   1.415  10.002 -0.9273 -0.8899 -0.8805
  150SAPE  H11B16569   1.550   1.275   9.937  0.3578  1.7269 -1.1513
  150SAPE     P16570   1.908   1.320   9.967  0.1541  0.6364 -0.3310
  150SAPE   O1316571   1.915   1.375  10.102  0.4007 -0.1413  0.9673
  150SAPE   O1416572   2.004   1.219   9.922 -0.2276 -0.1298 -0.3461
  150SAPE   O1216573   1.766   1.269   9.930  0.7198 -0.0618  0.5852
  150SAPE   O1116574   1.932   1.442   9.862 -0.2205  0.5600 -0.5977
  150SAPE    C116575   1.838   1.455   9.755  0.1817 -0.1700  0.0295
  150SAPE    HA16576   1.733   1.431   9.784 -1.0129  2.0462 -2.2382
  150SAPE    HB16577   1.830   1.561   9.724  0.7757 -0.2079 -0.2528
  150SAPE    C216578   1.892   1.372   9.629  0.2089  0.7507  0.2881
  150SAPE    HS16579   1.913   1.269   9.667  0.1221  1.7182  3.0649
  150SAPE   O2116580   2.022   1.422   9.588 -0.1545 -0.7037  0.2093
  150SAPE   C2116581   2.131   1.347   9.574 -0.4761  0.2027 -0.1836
  150SAPE   O2216582   2.139   1.227   9.603  0.8651 -1.1106 -0.0257
  150SAPE   C2216583   2.250   1.434   9.526 -0.4877  0.1516 -0.3674
  150SAPE   H2R16584   2.199   1.512   9.466 -0.6732  1.8546  1.9730
  150SAPE   H2S16585   2.306   1.478   9.611  1.2206 -1.4084 -0.6541
  150SAPE    C316586   1.798   1.376   9.510  0.2273 -0.1040 -0.3934
  150SAPE    HX16587   1.770   1.479   9.476  0.5765  0.2667  0.4342
  150SAPE    HY16588   1.709   1.319   9.542  0.9049 -0.1333  1.4906
  150SAPE   O3116589   1.863   1.297   9.403 -0.2527 -0.2362 -0.0053
  150SAPE   C3116590   1.862   1.165   9.424  0.0741 -0.2014  0.1325
  150SAPE   O3216591   1.804   1.105   9.511  0.3148  0.0354 -0.0972
  150SAPE   C3216592   1.960   1.102   9.320 -0.5220  0.3189 -0.1981
  150SAPE   H2X16593   1.978   0.998   9.355  2.2596  0.6057 -0.6381
  150SAPE   H2Y16594   2.054   1.160   9.310 -1.1411  1.4722  0.4836
  150SAPE   C2316595   2.340   1.351   9.432 -0.4550 -0.7726  0.7278
  150SAPE   H3R16596   2.283   1.279   9.370  0.2271 -0.5783 -0.1308
  150SAPE   H3S16597   2.403   1.279   9.489 -0.7615 -1.6070  0.0223
  150SAPE   C2416598   2.424   1.433   9.336 -0.2650  0.3658  0.7486
  150SAPE   H4R16599   2.511   1.376   9.297  0.6285  0.5712  2.3845
  150SAPE   H4S16600   2.475   1.515   9.391 -0.3773  1.7157 -1.1426
  150SAPE   C2516601   2.340   1.493   9.226 -0.7853 -0.0144  0.1395
  150SAPE   H5R16602   2.293   1.588   9.253  2.0656  0.3428  4.2827
  150SAPE   C2616603   2.311   1.436   9.115 -0.2848  0.2722  1.3821
  150SAPE   H6R16604   2.237   1.472   9.042  2.4757 -1.8187 -2.6406
  150SAPE   C2716605   2.356   1.299   9.078  0.0069 -0.0219 -0.2932
  150SAPE   H7R16606   2.393   1.247   9.169  0.6676  2.8349  1.1333
  150SAPE   H7S16607   2.444   1.321   9.012 -0.4704 -2.5736 -1.8536
  150SAPE   C2816608   2.254   1.208   9.008  0.4139 -0.0080  0.1184
  150SAPE   H8R16609   2.192   1.173   9.091  1.2647  0.1922  0.8498
  150SAPE   C2916610   2.216   1.184   8.880  0.2438 -0.4562 -0.0736
  150SAPE   H9R16611   2.141   1.108   8.855  0.0675 -0.1298 -0.5281
  150SAPE  C21016612   2.279   1.249   8.763  0.4519 -0.6245  1.0531
  150SAPE  H10R16613   2.331   1.342   8.795 -1.7409  0.3122  2.0135
  150SAPE  H10S16614   2.201   1.283   8.692 -0.5563 -2.1185  1.4142
  150SAPE  C21116615   2.391   1.169   8.692 -0.4861  0.2092  0.1185
  150SAPE  H11R16616   2.422   1.078   8.745  0.1790 -0.8912 -2.0719
  150SAPE  C21216617   2.427   1.191   8.560  0.1241 -0.6112 -0.5961
  150SAPE  H12R16618   2.502   1.128   8.510  0.3849 -0.8210  0.0617
  150SAPE  C21316619   2.356   1.294   8.471  0.2106 -0.2130 -0.1785
  150SAPE  H13R16620   2.439   1.356   8.432 -0.5703  0.5523 -0.6509
  150SAPE  H13S16621   2.291   1.360   8.534  0.9398  1.4643 -1.1409
  150SAPE  C21416622   2.271   1.221   8.365  0.0911  0.4457  0.1179
  150SAPE  H14R16623   2.169   1.192   8.391 -0.2660  0.3888 -1.3312
  150SAPE  C21516624   2.312   1.213   8.239 -0.2413  0.1827  0.1668
  150SAPE  H15R16625   2.238   1.168   8.172 -0.6813  1.0452  0.0656
  150SAPE  C21616626   2.438   1.266   8.181 -0.5245 -0.1712 -0.4699
  150SAPE  H16R16627   2.469   1.197   8.099 -2.1321 -0.2034 -1.0654
  150SAPE  H16S16628   2.520   1.267   8.256  0.1563 -1.0015 -1.1956
  150SAPE  C21716629   2.418   1.402   8.117  0.6287 -0.0619 -0.0292
  150SAPE  H17R16630   2.400   1.472   8.201  1.1825 -1.5790  1.3979
  150SAPE  H17S16631   2.330   1.411   8.050  0.5756  0.1050  0.0639
  150SAPE  C21816632   2.545   1.456   8.053  0.7424 -0.6729  0.3633
  150SAPE  H18R16633   2.521   1.555   8.008  1.8638  0.0612  1.3604
  150SAPE  H18S16634   2.565   1.389   7.967 -2.5772  1.0078 -1.8597
  150SAPE  C21916635   2.677   1.458   8.124 -0.0257 -0.1944 -0.6953
  150SAPE  H19R16636   2.768   1.482   8.064  0.4318 -0.9485 -0.3047
  150SAPE  H19S16637   2.689   1.357   8.168  1.4859  0.4536  0.4325
  150SAPE  C22016638   2.682   1.559   8.240  0.1743  0.6345  0.1983
  150SAPE  H20R16639   2.784   1.574   8.281  0.3227 -2.3129  1.0037
  150SAPE  H20S16640   2.604   1.537   8.316 -0.1853 -1.8719 -0.8630
  150SAPE  H20T16641   2.645   1.653   8.194 -1.2525  0.5445  1.1145
  150SAPE   C3316642   1.906   1.114   9.176 -0.1286  0.2415 -0.1681
  150SAPE   H3X16643   1.979   1.063   9.110  0.0413  0.1358  0.0984
  150SAPE   H3Y16644   1.909   1.221   9.146 -1.3323  0.1697 -0.5719
  150SAPE   C3416645   1.773   1.056   9.153  0.0282 -0.4236 -0.6503
  150SAPE   H4X16646   1.704   1.088   9.235  2.1867  0.1883  0.9746
  150SAPE   H4Y16647   1.777   0.945   9.153 -3.0135 -0.5653 -0.5982
  150SAPE   C3516648   1.695   1.106   9.030  0.5030  0.5817 -0.7114
  150SAPE   H5X16649   1.698   1.217   9.017  0.6427  0.4102 -2.2957
  150SAPE   H5Y16650   1.591   1.071   9.046  0.5780 -0.0126 -1.5207
  150SAPE   C3616651   1.736   1.044   8.899 -0.4692 -0.0452  0.0474
  150SAPE   H6X16652   1.709   0.937   8.899  1.4297 -0.5797  2.2739
  150SAPE   H6Y16653   1.845   1.030   8.879 -0.4886  0.3261 -0.3225
  150SAPE   C3716654   1.676   1.122   8.783 -0.9652 -0.9111  0.1113
  150SAPE   H7X16655   1.585   1.177   8.817 -0.1737 -1.0727  2.5980
  150SAPE   H7Y16656   1.634   1.049   8.710 -0.7314  0.2157 -1.1695
  150SAPE   C3816657   1.770   1.221   8.714  0.6065  0.4823  0.7181
  150SAPE   H8X16658   1.865   1.167   8.698  0.7306 -0.0699  3.1533
  150SAPE   H8Y16659   1.794   1.307   8.781 -0.5068 -0.1355  1.9416
  150SAPE   C3916660   1.714   1.277   8.582 -0.0432  0.4570 -0.1839
  150SAPE   H9X16661   1.662   1.373   8.604 -0.9886 -0.2619  0.8196
  150SAPE   H9Y16662   1.652   1.194   8.540 -0.2800  1.4154 -1.7391
  150SAPE  C31016663   1.826   1.293   8.479 -0.4686  0.4951 -0.7555
  150SAPE  H10X16664   1.880   1.200   8.452  0.0788  0.8041 -0.7355
  150SAPE  H10Y16665   1.895   1.372   8.515 -0.8642  1.2811 -1.6658
  150SAPE  C31116666   1.780   1.357   8.351 -0.4076  0.4010  0.2955
  150SAPE  H11X16667   1.865   1.366   8.279 -0.5368  3.8412  0.5299
  150SAPE  H11Y16668   1.732   1.454   8.372 -2.6247 -0.4641 -0.6549
  150SAPE  C31216669   1.668   1.273   8.290  0.5116  0.0885 -0.3724
  150SAPE  H12X16670   1.581   1.271   8.359  0.2863 -0.6615 -0.6692
  150SAPE  H12Y16671   1.705   1.168   8.283 -2.0893 -0.9004  0.0131
  150SAPE  C31316672   1.610   1.333   8.163  1.8989 -0.4854 -0.3305
  150SAPE  H13X16673   1.532   1.267   8.120  0.0950  1.7450 -0.5981
  150SAPE  H13Y16674   1.690   1.353   8.089  2.3586  1.1158  0.5806
  150SAPE  C31416675   1.535   1.466   8.177  0.6052 -1.2024 -0.4872
  150SAPE  H14X16676   1.603   1.553   8.189  0.3910 -1.1524  0.3562
  150SAPE  H14Y16677   1.456   1.470   8.254  1.9298 -0.6138  0.8745
  150SAPE  C31516678   1.461   1.520   8.054  0.7346  0.1110  0.6128
  150SAPE  H15X16679   1.406   1.439   8.003 -0.7533  1.7030 -0.3519
  150SAPE  H15Y16680   1.531   1.557   7.976  0.0981  2.1775  0.9965
  150SAPE  C31616681   1.367   1.631   8.086  0.0744  0.1251 -0.8064
  150SAPE  H16X16682   1.434   1.716   8.113 -2.1610  0.9229  2.4182
  150SAPE  H16Y16683   1.311   1.596   8.175  1.7625  0.4609  0.4282
  150SAPE  C31716684   1.266   1.670   7.977 -0.1281  0.4059  0.4699
  150SAPE  H17X16685   1.197   1.741   8.027 -0.3172  0.5287  0.0423
  150SAPE  H17Y16686   1.201   1.587   7.943  0.2308 -0.2377  1.3649
  150SAPE  C31816687   1.325   1.746   7.861 -0.3344  0.4113  0.1974
  150SAPE  H18X16688   1.347   1.849   7.896  0.7486  0.0503  0.5941
  150SAPE  H18Y16689   1.254   1.750   7.775 -0.9436 -0.8649  0.6326
  150SAPE  H18Z16690   1.407   1.682   7.820 -1.3242 -1.2781  0.7951
  151SAPE     N16691   5.440   5.393  10.071  0.3251 -0.3424  0.2410
  151SAPE   HN116692   5.492   5.414   9.983 -1.6845 -1.9874 -1.3791
  151SAPE   HN216693   5.338   5.389  10.051  0.1199  0.3571  1.1418
  151SAPE   HN316694   5.464   5.477  10.128  0.5296  0.1341 -0.5358
  151SAPE   C1216695   5.505   5.260  10.113  0.1971  0.3359  0.5089
  151SAPE  H12A16696   5.537   5.208  10.021  0.1937 -3.0492  2.3624
  151SAPE  H12B16697   5.425   5.198  10.158 -1.0632  2.8629  1.9009
  151SAPE   C1116698   5.625   5.276  10.202 -0.3511 -0.8008 -0.5354
  151SAPE  H11A16699   5.658   5.176  10.236  0.6142 -0.1559  0.4395
  151SAPE  H11B16700   5.590   5.331  10.291 -1.7087 -1.2787 -0.7633
  151SAPE     P16701   5.810   5.278  10.016  0.2216 -0.0673  0.0865
  151SAPE   O1316702   5.954   5.315  10.043  0.4425  0.1433 -0.6851
  151SAPE   O1416703   5.772   5.136  10.010  0.0736  0.1849 -0.2314
  151SAPE   O1216704   5.726   5.352  10.128 -0.0639 -0.1951  0.3408
  151SAPE   O1116705   5.768   5.342   9.877 -0.6339 -0.3181  0.4797
  151SAPE    C116706   5.860   5.426   9.799  0.0650 -0.9144 -0.0790
  151SAPE    HA16707   5.847   5.535   9.816 -0.5989 -1.2332  1.5785
  151SAPE    HB16708   5.966   5.402   9.823  0.6513  0.8752 -0.7627
  151SAPE    C216709   5.849   5.408   9.646 -0.2457 -0.0891 -0.8357
  151SAPE    HS16710   5.746   5.440   9.618  0.4079  1.0345 -1.9696
  151SAPE   O2116711   5.858   5.267   9.613 -0.1657  0.2520  0.4617
  151SAPE   C2116712   5.755   5.202   9.561 -0.8959 -0.2022 -0.1612
  151SAPE   O2216713   5.646   5.251   9.549  0.0136  0.1143  0.0531
  151SAPE   C2216714   5.794   5.066   9.508 -0.0594 -0.3096 -0.8202
  151SAPE   H2R16715   5.858   5.080   9.418  3.6108 -2.7452  1.3060
  151SAPE   H2S16716   5.864   5.026   9.584 -1.4973 -1.6495 -0.1608
  151SAPE    C316717   5.961   5.492   9.571  0.8394  0.0350 -0.4118
  151SAPE    HX16718   5.927   5.594   9.599 -0.8081 -0.8735  1.0133
  151SAPE    HY16719   5.941   5.479   9.463 -1.9379 -0.3364  0.0993
  151SAPE   O3116720   6.095   5.467   9.615  0.2664  0.2103  0.9646
  151SAPE   C3116721   6.164   5.383   9.542 -0.3167 -0.2275  0.2494
  151SAPE   O3216722   6.133   5.313   9.450 -0.5110 -0.6250  0.0335
  151SAPE   C3216723   6.308   5.383   9.595  0.0376  0.3247 -0.0412
  151SAPE   H2X16724   6.316   5.368   9.704 -1.3745 -0.7306 -0.0620
  151SAPE   H2Y16725   6.361   5.478   9.573 -1.6111  0.9606 -1.4288
  151SAPE   C2316726   5.671   4.977   9.472  0.1559 -0.2050  0.4692
  151SAPE   H3R16727   5.632   5.029   9.382 -1.0212  2.4551  2.4575
  151SAPE   H3S16728   5.585   4.984   9.543 -0.5378  1.6307 -0.5159
  151SAPE   C2416729   5.714   4.839   9.438  0.3432 -0.2755 -0.0933
  151SAPE   H4R16730   5.756   4.794   9.531  0.5785 -1.1640 -0.6183
  151SAPE   H4S16731   5.798   4.848   9.366 -0.4608  2.4086 -0.7177
  151SAPE   C2516732   5.596   4.754   9.395 -0.4173 -0.0798  0.0720
  151SAPE   H5R16733   5.566   4.676   9.466 -0.7155  0.6563  0.7622
  151SAPE   C2616734   5.527   4.755   9.281 -0.8241 -0.6511  0.2055
  151SAPE   H6R16735   5.455   4.674   9.264 -0.6798 -0.3604 -1.9991
  151SAPE   C2716736   5.553   4.845   9.164 -0.7355 -0.0484  0.0989
  151SAPE   H7R16737   5.572   4.781   9.076 -0.9519  0.4173 -0.2867
  151SAPE   H7S16738   5.655   4.885   9.184  0.4278 -3.2794  1.0683
  151SAPE   C2816739   5.449   4.952   9.129  0.1694 -0.0142 -0.1363
  151SAPE   H8R16740   5.345   4.933   9.158  1.1938 -1.7432  2.6510
  151SAPE   C2916741   5.469   5.069   9.064  0.1280  0.8614  0.8983
  151SAPE   H9R16742   5.387   5.143   9.065  0.5914  1.4117 -0.4760
  151SAPE  C21016743   5.602   5.110   9.003 -0.2751 -0.6027 -0.5055
  151SAPE  H10R16744   5.620   5.078   8.898  4.0452 -2.3807  0.6819
  151SAPE  H10S16745   5.685   5.067   9.062  0.4467  1.1020 -0.2503
  151SAPE  C21116746   5.603   5.257   9.024 -0.3780 -0.3630 -0.9468
  151SAPE  H11R16747   5.631   5.276   9.129 -0.1933 -1.4938 -0.7883
  151SAPE  C21216748   5.582   5.352   8.933 -0.5670  0.8634  0.4665
  151SAPE  H12R16749   5.583   5.458   8.961 -0.9075  0.6003  1.5160
  151SAPE  C21316750   5.547   5.334   8.791  0.8367 -0.2716 -0.1758
  151SAPE  H13R16751   5.462   5.401   8.765 -0.6154 -1.0248  2.3673
  151SAPE  H13S16752   5.517   5.228   8.776  0.9571 -0.3815  0.3441
  151SAPE  C21416753   5.661   5.365   8.701 -0.0788 -0.0751  0.1253
  151SAPE  H14R16754   5.751   5.305   8.721 -0.7505 -0.5790  1.8097
  151SAPE  C21516755   5.656   5.442   8.590 -0.0750  0.6566  0.8821
  151SAPE  H15R16756   5.745   5.437   8.525 -2.2938  1.2023 -2.3149
  151SAPE  C21616757   5.545   5.524   8.532 -0.1119 -0.2986 -0.0409
  151SAPE  H16R16758   5.453   5.527   8.594  2.1931 -0.9459  3.5662
  151SAPE  H16S16759   5.500   5.466   8.449 -3.1976  1.4908  0.3281
  151SAPE  C21716760   5.587   5.657   8.470 -0.0607 -0.0822  0.2895
  151SAPE  H17R16761   5.687   5.654   8.421 -0.7744 -0.8636 -1.1606
  151SAPE  H17S16762   5.605   5.733   8.549 -2.0776  0.1092  0.5893
  151SAPE  C21816763   5.489   5.721   8.369 -0.5069  0.2294 -0.7219
  151SAPE  H18R16764   5.462   5.639   8.299  0.7431  0.8213 -1.9135
  151SAPE  H18S16765   5.544   5.793   8.305 -0.0446  1.2770  0.8227
  151SAPE  C21916766   5.353   5.777   8.418  0.4618  0.1731 -0.4249
  151SAPE  H19R16767   5.366   5.861   8.489  0.8085  2.3795 -3.0220
  151SAPE  H19S16768   5.297   5.696   8.470  0.6617  0.7181  0.6300
  151SAPE  C22016769   5.257   5.833   8.309  0.2069 -0.6620  0.2068
  151SAPE  H20R16770   5.253   5.752   8.233 -1.3708  1.6035 -2.2211
  151SAPE  H20S16771   5.304   5.916   8.252 -2.1137  0.8495  0.4171
  151SAPE  H20T16772   5.159   5.863   8.351  0.6773  0.1374  0.7372
  151SAPE   C3316773   6.384   5.267   9.527  0.1398  0.1356 -0.1825
  151SAPE   H3X16774   6.372   5.263   9.417  0.6836  0.3844 -0.2547
  151SAPE   H3Y16775   6.333   5.176   9.567  0.0446  0.6245  0.8185
  151SAPE   C3416776   6.525   5.274   9.567 -0.2871 -0.4481  0.1062
  151SAPE   H4X16777   6.542   5.284   9.676 -0.1847 -2.7325  0.3164
  151SAPE   H4Y16778   6.564   5.370   9.525 -0.0110 -1.0788 -1.0952
  151SAPE   C3516779   6.617   5.160   9.515 -0.7607  0.0096 -0.8833
  151SAPE   H5X16780   6.582   5.057   9.537 -2.6386  0.4575 -1.6511
  151SAPE   H5Y16781   6.719   5.180   9.552 -1.7893  1.2846  1.3434
  151SAPE   C3616782   6.636   5.175   9.366  0.3574 -0.0217 -0.0693
  151SAPE   H6X16783   6.695   5.267   9.346 -1.7572  1.7244  1.4751
  151SAPE   H6Y16784   6.543   5.193   9.308  2.3555  2.3536 -2.6804
  151SAPE   C3716785   6.721   5.060   9.311  0.3133  0.1707  0.5192
  151SAPE   H7X16786   6.672   4.963   9.333 -0.0116  0.4851  1.1917
  151SAPE   H7Y16787   6.819   5.055   9.364  1.0778  1.7921 -0.6887
  151SAPE   C3816788   6.753   5.071   9.161 -0.4956 -0.1384 -0.4527
  151SAPE   H8X16789   6.819   5.156   9.135 -0.0541 -0.5665 -0.7305
  151SAPE   H8Y16790   6.653   5.087   9.114 -0.4887  4.1996  0.7606
  151SAPE   C3916791   6.812   4.950   9.098  0.1174  1.2489  1.2273
  151SAPE   H9X16792   6.796   4.851   9.148  1.5575  1.7937  2.8151
  151SAPE   H9Y16793   6.922   4.959   9.101  0.5017 -1.8829 -1.5954
  151SAPE  C31016794   6.774   4.937   8.944 -0.1512 -0.7231 -0.1555
  151SAPE  H10X16795   6.692   5.007   8.917  0.2073 -0.9921 -2.0175
  151SAPE  H10Y16796   6.737   4.835   8.920  1.3724 -1.2504 -0.2688
  151SAPE  C31116797   6.889   4.954   8.843  0.1063 -0.6515  0.1276
  151SAPE  H11X16798   6.963   4.875   8.869  1.1083 -0.4391 -2.0197
  151SAPE  H11Y16799   6.923   5.059   8.852 -2.7024  0.4006 -1.0143
  151SAPE  C31216800   6.849   4.931   8.697  0.2697  0.0636  0.2653
  151SAPE  H12X16801   6.776   5.006   8.662 -0.0457 -1.0386 -1.4846
  151SAPE  H12Y16802   6.794   4.835   8.692 -0.0565  0.2436  0.4129
  151SAPE  C31316803   6.966   4.921   8.599  0.1134 -0.2120  0.0679
  151SAPE  H13X16804   7.040   4.845   8.632 -0.3848 -1.6541 -2.0934
  151SAPE  H13Y16805   7.019   5.019   8.601 -0.0384 -0.1473  2.0339
  151SAPE  C31416806   6.926   4.902   8.454  0.3881  0.3774 -0.0008
  151SAPE  H14X16807   7.012   4.924   8.387  0.7181 -2.6896 -0.6524
  151SAPE  H14Y16808   6.845   4.977   8.436 -0.5150 -0.6386 -0.2480
  151SAPE  C31516809   6.873   4.763   8.417  0.3332 -0.2822 -0.1175
  151SAPE  H15X16810   6.785   4.734   8.478  0.5201  0.0632  0.3256
  151SAPE  H15Y16811   6.945   4.682   8.442  2.4867  2.0493  1.7024
  151SAPE  C31616812   6.856   4.752   8.264 -0.1897 -0.4208  0.0670
  151SAPE  H16X16813   6.953   4.764   8.212 -0.6915  0.9583 -0.5681
  151SAPE  H16Y16814   6.793   4.838   8.232  5.4033  3.2819 -1.6971
  151SAPE  C31716815   6.776   4.631   8.216  0.4492  1.7619  0.1448
  151SAPE  H17X16816   6.718   4.661   8.126 -1.0479  1.1043  0.8750
  151SAPE  H17Y16817   6.698   4.598   8.287 -1.1061 -1.9703 -3.0456
  151SAPE  C31816818   6.861   4.510   8.179  0.7327  0.2821  0.0651
  151SAPE  H18X16819   6.906   4.476   8.275  0.9316 -3.2754 -1.2355
  151SAPE  H18Y16820   6.948   4.541   8.118  0.8706 -1.7203 -0.7738
  151SAPE  H18Z16821   6.804   4.428   8.132 -1.5808  0.9643  1.5709
  152SAPE     N16822   7.090   5.274  10.063  0.2069 -0.8275  0.1386
  152SAPE   HN116823   6.987   5.276  10.074  0.2614  0.9270  0.4975
  152SAPE   HN216824   7.115   5.374  10.049 -1.8552 -0.4216 -0.7693
  152SAPE   HN316825   7.114   5.223   9.976  0.2234 -0.8029  0.1292
  152SAPE   C1216826   7.166   5.206  10.175 -0.0134  0.2996  0.2263
  152SAPE  H12A16827   7.103   5.130  10.226  1.2708 -0.1357  1.1751
  152SAPE  H12B16828   7.188   5.295  10.238  1.1009 -0.2031  0.5540
  152SAPE   C1116829   7.299   5.155  10.110  0.2065 -0.2056 -0.0453
  152SAPE  H11A16830   7.268   5.063  10.055  2.0854 -2.1774  2.0699
  152SAPE  H11B16831   7.367   5.130  10.195 -1.1111 -0.7608  0.8701
  152SAPE     P16832   7.474   5.220   9.919 -0.1477  0.0494  0.2735
  152SAPE   O1316833   7.417   5.234   9.784 -0.5698 -0.0366  0.1873
  152SAPE   O1416834   7.595   5.303   9.945  0.6319 -0.2571  0.3757
  152SAPE   O1216835   7.358   5.256  10.019 -0.8871  0.0117  0.6115
  152SAPE   O1116836   7.501   5.064   9.948 -0.0445  0.1634  0.5004
  152SAPE    C116837   7.629   5.008   9.978 -0.3322  0.1558  0.6040
  152SAPE    HA16838   7.688   5.082  10.036  0.0493  1.1338 -1.0151
  152SAPE    HB16839   7.608   4.925  10.050  0.2001  1.4776  2.3295
  152SAPE    C216840   7.708   4.966   9.850 -0.3830 -0.6450 -0.0583
  152SAPE    HS16841   7.797   4.906   9.880 -0.4074 -1.1788 -1.0380
  152SAPE   O2116842   7.735   5.080   9.766 -0.0433  0.0916  0.4260
  152SAPE   C2116843   7.828   5.157   9.818  0.6502 -0.2658 -0.3047
  152SAPE   O2216844   7.924   5.119   9.883  0.1265 -0.3645 -0.1888
  152SAPE   C2216845   7.821   5.295   9.758  1.0464 -0.2886 -0.1793
  152SAPE   H2R16846   7.717   5.317   9.726 -0.0479 -2.9130  1.4305
  152SAPE   H2S16847   7.837   5.366   9.843 -1.6503  0.1340  0.0208
  152SAPE    C316848   7.624   4.870   9.768 -0.3699  0.1619  0.0897
  152SAPE    HX16849   7.525   4.918   9.748  0.2474  0.4026 -2.5460
  152SAPE    HY16850   7.606   4.776   9.826  0.3926 -0.2303 -0.2971
  152SAPE   O3116851   7.697   4.828   9.648 -0.4740 -0.4818  0.0880
  152SAPE   C3116852   7.658   4.886   9.530 -1.0583  0.1422 -0.1724
  152SAPE   O3216853   7.568   4.964   9.525 -0.4303  0.1850 -0.1176
  152SAPE   C3216854   7.732   4.820   9.414 -0.7423  0.4845  0.6219
  152SAPE   H2X16855   7.679   4.840   9.318 -0.4124 -0.0181  0.3329
  152SAPE   H2Y16856   7.720   4.712   9.437  0.1327  0.5141  1.2328
  152SAPE   C2316857   7.933   5.317   9.652 -0.2380  0.0908  0.3871
  152SAPE   H3R16858   8.032   5.294   9.697  0.4614  0.7706 -0.7743
  152SAPE   H3S16859   7.941   5.423   9.622 -1.7225  0.5630  1.6229
  152SAPE   C2416860   7.930   5.223   9.533  0.4563 -0.7577 -0.1441
  152SAPE   H4R16861   7.944   5.116   9.563 -0.5272 -0.5925  0.9312
  152SAPE   H4S16862   8.015   5.259   9.472  0.6697 -0.8588  0.0935
  152SAPE   C2516863   7.797   5.235   9.458  1.1264 -0.4656  0.2201
  152SAPE   H5R16864   7.706   5.220   9.518  0.5143  3.0148  0.2505
  152SAPE   C2616865   7.786   5.277   9.327 -0.1672 -0.0048  0.6084
  152SAPE   H6R16866   7.693   5.254   9.273  0.1643 -1.7069  0.7418
  152SAPE   C2716867   7.904   5.314   9.238 -0.1494  0.1965  0.0316
  152SAPE   H7R16868   7.958   5.229   9.192 -0.3015  1.6680 -2.9640
  152SAPE   H7S16869   7.976   5.370   9.301 -0.9405  2.9207 -1.3998
  152SAPE   C2816870   7.864   5.408   9.129  0.0260  0.5782 -0.2830
  152SAPE   H8R16871   7.828   5.506   9.164 -1.9458 -0.6543  1.2176
  152SAPE   C2916872   7.862   5.387   8.998  0.2140 -0.0637 -0.0768
  152SAPE   H9R16873   7.832   5.470   8.932 -2.5082 -1.6615 -0.8996
  152SAPE  C21016874   7.887   5.265   8.910 -1.0218  0.4681  0.4924
  152SAPE  H10R16875   7.924   5.182   8.973 -0.1650 -0.3852 -1.0847
  152SAPE  H10S16876   7.977   5.284   8.847 -1.7526  0.0476 -0.7012
  152SAPE  C21116877   7.781   5.211   8.819  0.9125  0.2936  0.8479
  152SAPE  H11R16878   7.717   5.138   8.870 -0.3850  0.5677 -0.3671
  152SAPE  C21216879   7.756   5.227   8.687  0.0506 -0.8011  0.6277
  152SAPE  H12R16880   7.671   5.173   8.641 -0.6865  0.4716  0.4752
  152SAPE  C21316881   7.822   5.317   8.584  0.2758  0.7469 -0.4732
  152SAPE  H13R16882   7.881   5.252   8.516  0.4214 -0.0550  0.4044
  152SAPE  H13S16883   7.903   5.364   8.645  2.7213 -0.3362 -2.7759
  152SAPE  C21416884   7.736   5.407   8.508  0.2399 -0.0490 -0.1131
  152SAPE  H14R16885   7.686   5.372   8.416  1.1974 -2.5250  0.2788
  152SAPE  C21516886   7.689   5.526   8.549 -0.0442  0.3144 -0.0419
  152SAPE  H15R16887   7.630   5.595   8.487  1.7631 -0.2395 -2.4768
  152SAPE  C21616888   7.730   5.595   8.678 -0.0289 -0.1725  0.6175
  152SAPE  H16R16889   7.771   5.526   8.754 -3.2456 -0.8306  1.8537
  152SAPE  H16S16890   7.628   5.626   8.710  1.0629  0.8079  3.2274
  152SAPE  C21716891   7.815   5.724   8.658  0.2842  0.1865 -0.3415
  152SAPE  H17R16892   7.813   5.782   8.753 -0.0435  2.0625 -1.4764
  152SAPE  H17S16893   7.759   5.786   8.585  0.4462 -0.7383 -1.2753
  152SAPE  C21816894   7.961   5.697   8.606 -0.2186  0.6113 -0.3238
  152SAPE  H18R16895   8.009   5.793   8.577  2.3334 -1.0665 -1.8688
  152SAPE  H18S16896   7.958   5.626   8.520 -1.6111 -1.5889  1.4909
  152SAPE  C21916897   8.044   5.644   8.723 -0.0639 -0.2295 -0.0408
  152SAPE  H19R16898   8.140   5.619   8.673  0.4959  0.1471  0.8444
  152SAPE  H19S16899   8.013   5.541   8.754  0.7564 -0.9362 -1.5393
  152SAPE  C22016900   8.072   5.721   8.851  0.1012  0.4334  0.2902
  152SAPE  H20R16901   8.114   5.823   8.838 -0.1504  0.5031  0.0237
  152SAPE  H20S16902   8.155   5.667   8.902  0.8504  1.1473 -0.1514
  152SAPE  H20T16903   7.979   5.728   8.911 -1.9619 -1.9337 -2.5084
  152SAPE   C3316904   7.885   4.855   9.413  0.0741  0.6653  0.7311
  152SAPE   H3X16905   7.940   4.828   9.505  0.4558 -2.0803 -0.2487
  152SAPE   H3Y16906   7.893   4.964   9.393 -3.5284  0.6461 -1.3096
  152SAPE   C3416907   7.965   4.787   9.296  0.3424 -0.4093  0.8258
  152SAPE   H4X16908   7.978   4.677   9.303  0.8395 -0.1829  4.3222
  152SAPE   H4Y16909   8.059   4.844   9.284  1.1583 -1.7717  0.6689
  152SAPE   C3516910   7.904   4.814   9.156  0.1296 -0.2160  0.4043
  152SAPE   H5X16911   7.866   4.918   9.162  1.9292  0.4510  0.4011
  152SAPE   H5Y16912   7.819   4.745   9.140 -1.0244  1.2173  0.2320
  152SAPE   C3616913   7.996   4.795   9.033 -0.0246 -1.1270  0.1383
  152SAPE   H6X16914   8.036   4.692   9.040 -0.2330 -1.1277  1.3673
  152SAPE   H6Y16915   8.081   4.866   9.042 -1.0846  0.3764 -1.3882
  152SAPE   C3716916   7.915   4.825   8.901 -0.3999  0.1267  0.0354
  152SAPE   H7X16917   7.895   4.934   8.899 -1.8642 -0.1307 -0.6355
  152SAPE   H7Y16918   7.812   4.784   8.917  0.1865 -1.7470 -0.8066
  152SAPE   C3816919   7.977   4.761   8.774  0.5169  0.2995 -0.4029
  152SAPE   H8X16920   8.003   4.654   8.785  1.6701  0.4500 -1.5765
  152SAPE   H8Y16921   8.071   4.817   8.752 -0.4035  1.4623 -1.5031
  152SAPE   C3916922   7.870   4.778   8.660  0.4691 -0.2738 -0.6007
  152SAPE   H9X16923   7.850   4.887   8.674  0.8389 -0.4548  1.5686
  152SAPE   H9Y16924   7.789   4.713   8.699  0.5673  0.3373  0.6467
  152SAPE  C31016925   7.929   4.752   8.520 -0.1245 -0.0030  0.1833
  152SAPE  H10X16926   7.853   4.774   8.442 -0.6001 -0.9651  0.3668
  152SAPE  H10Y16927   7.952   4.645   8.505  3.7055  0.6220  1.0606
  152SAPE  C31116928   8.046   4.833   8.483 -0.5483  0.4793 -0.6772
  152SAPE  H11X16929   8.130   4.780   8.534 -1.3723 -0.8906 -0.7100
  152SAPE  H11Y16930   8.027   4.933   8.527 -4.2045  0.0360 -1.1013
  152SAPE  C31216931   8.073   4.830   8.330  0.6855  0.3828 -0.0629
  152SAPE  H12X16932   7.986   4.862   8.268  0.8924  0.0000 -0.5540
  152SAPE  H12Y16933   8.083   4.725   8.297  1.3967  0.3251  0.3536
  152SAPE  C31316934   8.188   4.913   8.292  0.4609 -0.5271  0.6431
  152SAPE  H13X16935   8.204   4.904   8.182 -0.5080 -1.1466  0.5410
  152SAPE  H13Y16936   8.273   4.864   8.343  0.2972  0.1393  1.5657
  152SAPE  C31416937   8.194   5.064   8.336 -0.4059  0.0849  0.1718
  152SAPE  H14X16938   8.193   5.067   8.448 -1.2442  0.5105  0.1530
  152SAPE  H14Y16939   8.095   5.102   8.305 -1.2954 -1.6270  0.8045
  152SAPE  C31516940   8.309   5.153   8.281  0.3688  0.3740 -0.6167
  152SAPE  H15X16941   8.305   5.150   8.170  0.5812  0.0577 -0.6165
  152SAPE  H15Y16942   8.403   5.100   8.307  1.0005  1.5559 -0.4830
  152SAPE  C31616943   8.303   5.305   8.321 -0.6209  0.2607  0.6701
  152SAPE  H16X16944   8.407   5.341   8.302 -0.0689 -1.2644  0.7467
  152SAPE  H16Y16945   8.274   5.309   8.428 -2.3157 -0.3368  0.2464
  152SAPE  C31716946   8.203   5.375   8.232 -0.7813  0.6769  0.2013
  152SAPE  H17X16947   8.133   5.306   8.180  0.7922 -1.3875  0.7480
  152SAPE  H17Y16948   8.258   5.414   8.144 -0.5208  0.6344  0.3457
  152SAPE  C31816949   8.117   5.488   8.293  0.3480 -0.2295  0.0510
  152SAPE  H18X16950   8.055   5.535   8.213 -0.4001  1.1594  1.4110
  152SAPE  H18Y16951   8.166   5.576   8.340  1.7356 -0.0233 -1.6962
  152SAPE  H18Z16952   8.056   5.448   8.376 -2.4311 -1.7084 -2.5957
  153SAPE     N16953   6.947   1.403   9.921  0.1199 -0.3204  0.7606
  153SAPE   HN116954   6.859   1.454   9.942 -0.1942 -0.3763 -0.3594
  153SAPE   HN216955   7.020   1.452   9.976  1.6515  0.1639 -1.6103
  153SAPE   HN316956   6.969   1.415   9.820  0.9579 -2.0738  0.7279
  153SAPE   C1216957   6.920   1.265   9.958 -0.2840 -0.8288  0.3485
  153SAPE  H12A16958   7.021   1.219   9.964 -0.6641 -1.7651 -0.3000
  153SAPE  H12B16959   6.862   1.215   9.877 -1.3761  0.8864  0.0475
  153SAPE   C1116960   6.838   1.257  10.086 -0.1608  0.4046  0.2919
  153SAPE  H11A16961   6.889   1.289  10.180 -0.9376  0.3968  0.7245
  153SAPE  H11B16962   6.811   1.150  10.102  1.4507  0.2338  2.0034
  153SAPE     P16963   6.579   1.280  10.135 -0.3786 -0.3889  0.2814
  153SAPE   O1316964   6.577   1.139  10.172 -0.0868 -0.1281  0.1544
  153SAPE   O1416965   6.525   1.376  10.230 -0.2728  0.3029 -0.4973
  153SAPE   O1216966   6.721   1.332  10.079  0.3826 -0.9065  1.0164
  153SAPE   O1116967   6.485   1.295  10.006  0.1530 -0.0680  0.4682
  153SAPE    C116968   6.533   1.233   9.884  0.2756 -0.1266  0.0306
  153SAPE    HA16969   6.485   1.308   9.817 -1.5463 -0.0460  1.3931
  153SAPE    HB16970   6.643   1.235   9.867 -0.0564  2.5837 -2.2294
  153SAPE    C216971   6.482   1.091   9.868 -0.0571  0.0058 -0.0214
  153SAPE    HS16972   6.536   1.031   9.945  0.4349  0.0364 -0.3427
  153SAPE   O2116973   6.500   1.039   9.733  0.1974  0.1114 -0.0649
  153SAPE   C2116974   6.627   1.025   9.690 -0.3133 -0.1508 -0.1551
  153SAPE   O2216975   6.725   1.035   9.763  0.7647  0.0582  0.2683
  153SAPE   C2216976   6.631   1.003   9.539  0.3886 -0.6026 -0.3505
  153SAPE   H2R16977   6.723   0.942   9.530  0.3935 -0.7518  0.5907
  153SAPE   H2S16978   6.537   0.958   9.502 -0.0627  0.3494 -0.3717
  153SAPE    C316979   6.331   1.085   9.884  0.0684  0.0187  0.0903
  153SAPE    HX16980   6.301   1.102   9.990  0.1639 -0.8869  0.2680
  153SAPE    HY16981   6.296   0.983   9.859 -0.6505  0.4769 -0.8322
  153SAPE   O3116982   6.269   1.188   9.803 -0.2886  0.0612 -0.3965
  153SAPE   C3116983   6.141   1.149   9.765  0.7234 -0.5308 -0.1826
  153SAPE   O3216984   6.078   1.048   9.802  0.1226 -0.5471 -0.9278
  153SAPE   C3216985   6.094   1.234   9.652 -0.2453  0.1998 -0.0134
  153SAPE   H2X16986   6.173   1.308   9.628  1.0057 -1.1962 -0.2612
  153SAPE   H2Y16987   5.996   1.282   9.672 -1.0304 -0.5962 -1.8124
  153SAPE   C2316988   6.638   1.145   9.470  0.3192  0.2427  0.2554
  153SAPE   H3R16989   6.719   1.207   9.515  0.2458  0.8438 -0.4306
  153SAPE   H3S16990   6.538   1.189   9.491  0.0894 -0.3185  0.3307
  153SAPE   C2416991   6.639   1.138   9.324 -0.0404  0.1470 -0.2283
  153SAPE   H4R16992   6.608   1.230   9.270  0.1065  0.2620 -0.1175
  153SAPE   H4S16993   6.562   1.061   9.307 -0.4617  0.7494 -1.0750
  153SAPE   C2516994   6.770   1.108   9.256 -0.2638  0.5281 -0.0134
  153SAPE   H5R16995   6.858   1.147   9.309 -1.8945  2.9168  1.0309
  153SAPE   C2616996   6.780   1.038   9.137  0.4257  0.0853 -0.2164
  153SAPE   H6R16997   6.883   1.023   9.100  0.3543 -0.4868 -0.1919
  153SAPE   C2716998   6.666   0.977   9.054 -0.0318 -0.4163 -0.1141
  153SAPE   H7R16999   6.573   1.035   9.075 -0.4789 -1.1614  0.0139
  153SAPE   H7S17000   6.642   0.881   9.105 -0.3425  0.9480  2.3883
  153SAPE   C2817001   6.706   0.958   8.916 -0.1918  0.2758  0.6608
  153SAPE   H8R17002   6.816   0.950   8.911 -0.0040 -0.5276  4.6127
  153SAPE   C2917003   6.639   0.943   8.798  0.0278 -0.1597  0.9625
  153SAPE   H9R17004   6.695   0.947   8.704 -0.5795  1.4245  0.6602
  153SAPE  C21017005   6.491   0.944   8.779 -0.4929  0.5662 -0.2298
  153SAPE  H10R17006   6.443   1.043   8.783  1.1222  1.3214  1.1072
  153SAPE  H10S17007   6.455   0.884   8.865  0.3198  0.5219  0.0781
  153SAPE  C21117008   6.444   0.872   8.652  0.0675  0.4216 -0.0625
  153SAPE  H11R17009   6.456   0.763   8.663  0.4125  0.2399 -2.0139
  153SAPE  C21217010   6.389   0.914   8.541 -0.1073  0.2058 -0.2096
  153SAPE  H12R17011   6.377   0.843   8.458  0.3400 -0.8834  0.6529
  153SAPE  C21317012   6.357   1.056   8.501 -0.5754  0.6965  0.4629
  153SAPE  H13R17013   6.331   1.116   8.591  0.9585 -0.6377  1.8333
  153SAPE  H13S17014   6.274   1.052   8.427 -0.5713 -3.3771  0.5950
  153SAPE  C21417015   6.471   1.127   8.443 -0.6052  0.1589  0.0292
  153SAPE  H14R17016   6.564   1.107   8.499 -0.9024  0.3550  0.6025
  153SAPE  C21517017   6.488   1.199   8.330 -0.0854  0.2642  0.0465
  153SAPE  H15R17018   6.586   1.242   8.303  0.3862 -1.2969 -0.7754
  153SAPE  C21617019   6.391   1.240   8.216 -0.3567 -0.1840 -0.0468
  153SAPE  H16R17020   6.398   1.350   8.204 -0.1651 -0.1691  0.2030
  153SAPE  H16S17021   6.289   1.209   8.247 -0.7066  1.3262  0.3206
  153SAPE  C21717022   6.428   1.184   8.071 -0.0051  0.5125 -0.4955
  153SAPE  H17R17023   6.529   1.219   8.041  0.6321 -0.7161  0.1638
  153SAPE  H17S17024   6.369   1.233   7.991 -1.6517 -1.2128 -0.3822
  153SAPE  C21817025   6.404   1.033   8.062  0.3973 -0.3574 -0.0168
  153SAPE  H18R17026   6.383   0.997   7.959 -0.5743 -1.0748  0.4177
  153SAPE  H18S17027   6.310   1.010   8.116 -0.4721 -0.0094 -1.3473
  153SAPE  C21917028   6.520   0.944   8.116 -0.3705  0.7448  0.0031
  153SAPE  H19R17029   6.525   0.977   8.222 -1.3661 -0.6646  0.4912
  153SAPE  H19S17030   6.617   0.964   8.066  0.3690  0.0832  1.1314
  153SAPE  C22017031   6.480   0.796   8.119  0.1115 -0.0367 -0.1048
  153SAPE  H20R17032   6.382   0.787   8.170  0.5922 -1.4430  0.5872
  153SAPE  H20S17033   6.554   0.741   8.181  0.1060 -0.3840 -0.3999
  153SAPE  H20T17034   6.491   0.753   8.017  0.2375 -0.3546  0.0397
  153SAPE   C3317035   6.067   1.144   9.533  1.1388 -0.0634  0.6088
  153SAPE   H3X17036   5.994   1.192   9.465  2.8878 -1.0148 -2.0284
  153SAPE   H3Y17037   6.025   1.047   9.568  1.2257 -0.8344 -1.3266
  153SAPE   C3417038   6.186   1.114   9.442  0.2735 -0.5710  0.3370
  153SAPE   H4X17039   6.272   1.074   9.499  1.8736 -2.5120 -3.2831
  153SAPE   H4Y17040   6.219   1.205   9.387 -1.5234 -0.5157 -0.7108
  153SAPE   C3517041   6.148   1.002   9.344 -0.2657 -0.0098  0.4393
  153SAPE   H5X17042   6.098   0.914   9.390 -1.0289  0.0282 -0.3146
  153SAPE   H5Y17043   6.241   0.955   9.305 -0.7263  1.3599 -2.4718
  153SAPE   C3617044   6.067   1.045   9.221 -0.6515 -0.2482 -0.3606
  153SAPE   H6X17045   5.960   1.033   9.249  0.0889 -0.3917  2.5378
  153SAPE   H6Y17046   6.079   0.965   9.144  0.6541 -0.2537 -0.1611
  153SAPE   C3717047   6.116   1.176   9.158 -0.7493 -0.5619  0.1201
  153SAPE   H7X17048   6.102   1.263   9.226 -1.2672 -0.1285 -0.5207
  153SAPE   H7Y17049   6.056   1.204   9.068  0.7726 -0.8162 -0.9798
  153SAPE   C3817050   6.265   1.171   9.108 -0.1934  0.1989  0.1181
  153SAPE   H8X17051   6.272   1.080   9.044  1.8662 -1.5271  2.6836
  153SAPE   H8Y17052   6.332   1.163   9.196  0.8905  0.6060 -0.6554
  153SAPE   C3917053   6.302   1.283   9.008 -0.0681 -0.6431  0.4633
  153SAPE   H9X17054   6.274   1.386   9.041 -0.2222 -0.3214 -0.6220
  153SAPE   H9Y17055   6.251   1.280   8.909  1.4828  1.7017 -0.4629
  153SAPE  C31017056   6.448   1.291   8.968  0.8378  0.0805 -0.1355
  153SAPE  H10X17057   6.463   1.190   8.924 -0.8964  0.0661 -0.7453
  153SAPE  H10Y17058   6.527   1.312   9.043  1.6730 -0.2288 -0.9044
  153SAPE  C31117059   6.469   1.397   8.853 -0.5944  0.4837 -0.2360
  153SAPE  H11X17060   6.447   1.496   8.898 -1.3740  0.9838 -1.6721
  153SAPE  H11Y17061   6.395   1.371   8.774  1.1321  0.8342 -1.9872
  153SAPE  C31217062   6.604   1.387   8.782  0.1183 -0.2007  0.1363
  153SAPE  H12X17063   6.620   1.299   8.717  1.1504 -0.1024  0.2487
  153SAPE  H12Y17064   6.688   1.389   8.855  1.1661 -0.4739 -1.0438
  153SAPE  C31317065   6.624   1.515   8.695  0.5590 -0.4095 -0.4512
  153SAPE  H13X17066   6.729   1.516   8.659  1.2892  1.8420  1.6152
  153SAPE  H13Y17067   6.626   1.603   8.762  0.1776 -0.7731  0.0415
  153SAPE  C31417068   6.539   1.525   8.568 -0.2790 -0.1839 -0.3731
  153SAPE  H14X17069   6.430   1.541   8.583  0.0666  0.5386  1.5480
  153SAPE  H14Y17070   6.545   1.428   8.515 -1.2929  0.0112 -0.8450
  153SAPE  C31517071   6.595   1.614   8.459 -0.6232 -0.1908 -0.4017
  153SAPE  H15X17072   6.705   1.610   8.443 -0.3598  0.4993  1.0962
  153SAPE  H15Y17073   6.568   1.719   8.484 -1.6100 -0.3586 -0.7586
  153SAPE  C31617074   6.536   1.577   8.324  0.1403 -0.0649  0.5303
  153SAPE  H16X17075   6.427   1.596   8.323  0.5280  2.3460  1.4405
  153SAPE  H16Y17076   6.539   1.466   8.310 -0.2225 -0.0285  0.1724
  153SAPE  C31717077   6.602   1.646   8.198  0.1575 -0.1159  0.0700
  153SAPE  H17X17078   6.541   1.637   8.106  1.4468  0.1916 -0.8220
  153SAPE  H17Y17079   6.702   1.603   8.176  1.0425  1.5464  0.7660
  153SAPE  C31817080   6.625   1.795   8.230 -0.7790  0.6964  0.2666
  153SAPE  H18X17081   6.679   1.814   8.325  0.7105  4.0142 -1.1712
  153SAPE  H18Y17082   6.536   1.860   8.228 -0.6219  0.9351  0.9316
  153SAPE  H18Z17083   6.692   1.834   8.150 -0.0053  1.5668  1.3263
  154SAPE     N17084   0.673   0.339  10.081 -0.5989  0.3740  0.4494
  154SAPE   HN117085   0.578   0.327  10.041 -1.0965  0.2628  1.6324
  154SAPE   HN217086   0.688   0.264  10.152 -1.6835 -0.2272  0.0537
  154SAPE   HN317087   0.679   0.431  10.129 -1.7102  0.3247  0.6946
  154SAPE   C1217088   0.780   0.324   9.976  0.0508  1.0364  0.3128
  154SAPE  H12A17089   0.752   0.395   9.896 -2.3675 -2.8381 -2.4251
  154SAPE  H12B17090   0.769   0.223   9.931  0.0410  0.6434  1.1750
  154SAPE   C1117091   0.917   0.356  10.027  0.3656  0.2714  1.3110
  154SAPE  H11A17092   1.000   0.331   9.958 -0.0257  1.0532  0.5517
  154SAPE  H11B17093   0.945   0.288  10.110  0.4388 -0.3700  0.7561
  154SAPE     P17094   1.001   0.601   9.985 -0.3544  0.1303 -0.0519
  154SAPE   O1317095   0.938   0.734  10.014  0.1605 -0.0974  0.3044
  154SAPE   O1417096   1.150   0.583  10.003  0.7963  0.6237  0.2381
  154SAPE   O1217097   0.922   0.492  10.066  0.2542  0.4697  0.3013
  154SAPE   O1117098   0.973   0.567   9.834  0.1211  0.0359 -0.6233
  154SAPE    C117099   1.028   0.653   9.739 -0.3999  0.4950  0.8041
  154SAPE    HA17100   0.982   0.753   9.723  0.2717  0.8811  1.2574
  154SAPE    HB17101   1.138   0.662   9.752 -0.2172  0.9359 -0.8797
  154SAPE    C217102   1.025   0.581   9.598 -0.2156 -0.1768 -0.6039
  154SAPE    HS17103   1.105   0.634   9.541 -1.4798  1.5007 -0.8408
  154SAPE   O2117104   0.888   0.599   9.550 -0.3025  0.2878  0.0954
  154SAPE   C2117105   0.866   0.708   9.483  0.5628  0.1269 -0.0137
  154SAPE   O2217106   0.944   0.799   9.463  0.0371 -0.2042 -0.2306
  154SAPE   C2217107   0.725   0.694   9.435 -0.7835  0.3345 -0.6827
  154SAPE   H2R17108   0.724   0.634   9.341 -0.5274  0.8884 -1.0394
  154SAPE   H2S17109   0.666   0.627   9.502 -1.3752  1.1069 -0.4246
  154SAPE    C317110   1.054   0.427   9.602  0.3866  0.1494 -0.8175
  154SAPE    HX17111   0.962   0.378   9.640  0.4923  0.4221 -0.2050
  154SAPE    HY17112   1.137   0.416   9.675 -0.5262 -0.1618  0.1774
  154SAPE   O3117113   1.090   0.364   9.475 -0.1577  0.2547 -0.4795
  154SAPE   C3117114   1.043   0.242   9.440 -1.0343 -0.7886 -0.2010
  154SAPE   O3217115   0.985   0.164   9.513  0.4846 -0.2236 -0.3285
  154SAPE   C3217116   1.053   0.221   9.287 -0.1892 -0.2744 -0.0007
  154SAPE   H2X17117   0.960   0.172   9.252 -0.0732 -1.7835  1.7139
  154SAPE   H2Y17118   1.136   0.147   9.276  1.1575  1.3051 -0.6447
  154SAPE   C2317119   0.653   0.827   9.414  0.3031 -0.5758  0.2384
  154SAPE   H3R17120   0.711   0.908   9.366 -1.9370  3.8633  4.4978
  154SAPE   H3S17121   0.637   0.877   9.512 -1.9534  0.5837 -0.6748
  154SAPE   C2417122   0.509   0.797   9.362  0.1682 -0.2560  0.0049
  154SAPE   H4R17123   0.448   0.890   9.362 -0.5253 -0.6825  1.8410
  154SAPE   H4S17124   0.466   0.728   9.438 -0.4916  1.7156  1.4860
  154SAPE   C2517125   0.522   0.747   9.220  0.1643 -0.2222 -1.2566
  154SAPE   H5R17126   0.624   0.737   9.179  1.9061 -0.9155  2.9756
  154SAPE   C2617127   0.412   0.736   9.144 -0.5258  1.0829 -0.3570
  154SAPE   H6R17128   0.431   0.688   9.046  1.0317  1.2653 -0.1619
  154SAPE   C2717129   0.272   0.782   9.178 -0.2142 -0.5548 -0.0547
  154SAPE   H7R17130   0.270   0.888   9.145  0.4628 -1.0363 -1.6919
  154SAPE   H7S17131   0.260   0.783   9.288 -0.0661  2.1490 -0.0294
  154SAPE   C2817132   0.147   0.721   9.124 -0.6183  0.1384  0.1140
  154SAPE   H8R17133   0.090   0.657   9.193 -1.3064 -1.8331 -2.2338
  154SAPE   C2917134   0.097   0.726   8.999  0.2362  0.9660  0.0570
  154SAPE   H9R17135  -0.004   0.687   8.983  1.1528 -1.3525 -0.2957
  154SAPE  C21017136   0.144   0.788   8.871 -0.9126  0.4514 -0.1479
  154SAPE  H10R17137   0.240   0.835   8.903 -1.7005  1.4108  0.8275
  154SAPE  H10S17138   0.072   0.868   8.844  0.0160  1.7683  1.2041
  154SAPE  C21117139   0.154   0.695   8.754 -0.6468  0.5919  0.3737
  154SAPE  H11R17140   0.201   0.599   8.780 -1.1323  0.3834  0.4914
  154SAPE  C21217141   0.119   0.722   8.631  0.1594 -0.2357  0.3955
  154SAPE  H12R17142   0.115   0.644   8.554  1.4093 -0.6030  0.6959
  154SAPE  C21317143   0.063   0.850   8.577 -0.1306  0.0853  0.2842
  154SAPE  H13R17144   0.057   0.932   8.652  1.0737  1.2600 -0.8775
  154SAPE  H13S17145  -0.039   0.819   8.545  0.0581 -0.1713 -0.0717
  154SAPE  C21417146   0.134   0.912   8.455 -1.4209  0.0583 -0.1018
  154SAPE  H14R17147   0.184   1.009   8.469 -1.1109 -0.2821  1.2451
  154SAPE  C21517148   0.134   0.872   8.327  0.2220 -0.0522  1.0373
  154SAPE  H15R17149   0.210   0.915   8.259  0.2137 -0.0724  1.0158
  154SAPE  C21617150   0.076   0.747   8.276  0.1939  0.5320 -0.0595
  154SAPE  H16R17151   0.017   0.771   8.184  0.9551 -1.0882 -0.9989
  154SAPE  H16S17152   0.019   0.689   8.352  0.6048 -2.2602 -1.7926
  154SAPE  C21717153   0.191   0.660   8.223  0.0225  0.2239 -0.0282
  154SAPE  H17R17154   0.267   0.724   8.175  0.1543 -0.2715 -0.4901
  154SAPE  H17S17155   0.149   0.590   8.148  1.0542 -0.2086 -0.2159
  154SAPE  C21817156   0.258   0.570   8.332 -0.1144 -1.2602 -0.2253
  154SAPE  H18R17157   0.186   0.498   8.377 -0.6483 -0.8388 -0.3934
  154SAPE  H18S17158   0.307   0.631   8.411 -0.6904 -0.8086 -0.2070
  154SAPE  C21917159   0.368   0.494   8.255  1.1553 -0.6904  0.0297
  154SAPE  H19R17160   0.451   0.562   8.227  0.7145  0.5703  1.6851
  154SAPE  H19S17161   0.327   0.459   8.158 -0.9749 -0.3586  0.7835
  154SAPE  C22017162   0.416   0.375   8.339 -0.4441  0.3311  1.1312
  154SAPE  H20R17163   0.510   0.331   8.298 -0.3763  0.7450  0.8336
  154SAPE  H20S17164   0.341   0.293   8.331  0.5439 -0.4513 -0.6360
  154SAPE  H20T17165   0.443   0.399   8.444  2.6043  1.8665  0.0898
  154SAPE   C3317166   1.102   0.342   9.203  0.5119 -0.6348  0.0991
  154SAPE   H3X17167   1.131   0.305   9.102  1.8601 -0.7133  0.5033
  154SAPE   H3Y17168   1.194   0.392   9.241 -1.1453  1.3810  1.5400
  154SAPE   C3417169   0.990   0.447   9.172  0.2901 -0.1589 -0.0335
  154SAPE   H4X17170   0.966   0.512   9.259 -1.2102 -0.6406 -0.0592
  154SAPE   H4Y17171   0.899   0.395   9.134 -0.5548  1.7487 -0.6931
  154SAPE   C3517172   1.027   0.553   9.065 -0.2386  0.0150  0.3133
  154SAPE   H5X17173   1.060   0.508   8.969 -1.1527 -1.1035  0.5041
  154SAPE   H5Y17174   1.099   0.627   9.105 -1.0334 -0.1124  2.0103
  154SAPE   C3617175   0.903   0.639   9.031 -0.5540 -0.1458  0.8508
  154SAPE   H6X17176   0.860   0.665   9.130 -1.4424  0.7085  0.2507
  154SAPE   H6Y17177   0.826   0.584   8.973 -1.5392 -0.4469  2.4012
  154SAPE   C3717178   0.939   0.765   8.953 -0.6400  0.8253  0.1714
  154SAPE   H7X17179   0.988   0.724   8.862 -0.7276  0.1991  0.4040
  154SAPE   H7Y17180   1.014   0.830   9.003  0.5365 -1.9849  2.1918
  154SAPE   C3817181   0.803   0.840   8.914 -0.6467  0.1764  0.5111
  154SAPE   H8X17182   0.822   0.908   8.828 -0.6901  2.4652  2.2813
  154SAPE   H8Y17183   0.764   0.897   9.000 -4.1311  1.6649 -1.9537
  154SAPE   C3917184   0.684   0.753   8.873 -0.1693  0.6571  0.4264
  154SAPE   H9X17185   0.642   0.692   8.955 -2.4697  1.6279  0.0111
  154SAPE   H9Y17186   0.716   0.676   8.799 -0.4208  2.0370 -1.1507
  154SAPE  C31017187   0.563   0.833   8.832  0.0011 -0.5666 -0.5118
  154SAPE  H10X17188   0.539   0.894   8.922  0.4246 -0.8655 -0.1983
  154SAPE  H10Y17189   0.481   0.759   8.818 -0.0197 -0.8168  0.8546
  154SAPE  C31117190   0.574   0.920   8.705 -0.1183  0.0905 -0.8408
  154SAPE  H11X17191   0.671   0.974   8.711 -1.9587  3.3878 -0.1178
  154SAPE  H11Y17192   0.488   0.989   8.697  1.4304  1.9406 -2.0129
  154SAPE  C31217193   0.552   0.844   8.576 -0.0899  0.3547  0.4651
  154SAPE  H12X17194   0.460   0.783   8.585  1.0000 -1.3895  0.0276
  154SAPE  H12Y17195   0.632   0.771   8.554  0.9958  1.1473  1.6662
  154SAPE  C31317196   0.548   0.947   8.464  0.6219  0.3979  0.4880
  154SAPE  H13X17197   0.634   1.017   8.472  0.2982  0.8904 -0.2561
  154SAPE  H13Y17198   0.457   1.008   8.478 -0.8368 -1.3293 -1.1789
  154SAPE  C31417199   0.526   0.891   8.316  0.0559  0.1325 -0.4695
  154SAPE  H14X17200   0.434   0.831   8.300  0.1422 -0.7320  2.0812
  154SAPE  H14Y17201   0.605   0.819   8.288  0.6816 -0.2912  2.2237
  154SAPE  C31517202   0.541   1.008   8.213 -0.1789  0.1899 -0.3666
  154SAPE  H15X17203   0.623   1.080   8.234 -0.7966  0.9411 -0.4672
  154SAPE  H15Y17204   0.450   1.073   8.216 -1.3392 -1.4565  0.5499
  154SAPE  C31617205   0.543   0.951   8.074 -0.5855  0.1764 -0.4477
  154SAPE  H16X17206   0.463   0.875   8.080  0.3998 -0.9036 -0.9280
  154SAPE  H16Y17207   0.640   0.898   8.067 -0.4871  0.1095  1.1772
  154SAPE  C31717208   0.518   1.050   7.965  0.4927 -0.6622  0.3845
  154SAPE  H17X17209   0.418   1.093   7.987  0.1571 -1.0070 -0.4230
  154SAPE  H17Y17210   0.507   0.991   7.871 -1.7536 -0.4179  0.4799
  154SAPE  C31817211   0.630   1.156   7.944 -0.0436 -0.2429 -0.5448
  154SAPE  H18X17212   0.731   1.109   7.949  0.5116  0.6214 -2.6482
  154SAPE  H18Y17213   0.632   1.231   8.026  0.2326 -0.5012 -0.3179
  154SAPE  H18Z17214   0.628   1.205   7.844 -0.1571 -1.6059 -1.2192
  155SAPE     N17215   1.395   6.951   9.943 -0.3939  0.0999  0.5553
  155SAPE   HN117216   1.442   6.901   9.866  1.2988  0.5139  1.2981
  155SAPE   HN217217   1.451   7.034   9.968 -1.6620  1.7325 -1.8584
  155SAPE   HN317218   1.396   6.890  10.028  0.2863  1.4511  1.5400
  155SAPE   C1217219   1.251   6.995   9.907  0.6814 -0.0931 -0.0160
  155SAPE  H12A17220   1.188   6.910   9.941  0.1566  0.7450  1.1379
  155SAPE  H12B17221   1.232   6.995   9.797 -2.1850 -0.1807  0.4206
  155SAPE   C1117222   1.214   7.123   9.977 -0.7843  0.5508 -0.5330
  155SAPE  H11A17223   1.225   7.121  10.088 -0.7794 -2.2949 -0.5396
  155SAPE  H11B17224   1.105   7.128   9.955 -1.6164 -2.5654  2.4526
  155SAPE     P17225   1.216   7.372   9.889 -0.0524  0.1186 -0.3685
  155SAPE   O1317226   1.072   7.363   9.901  0.5641  1.1677  0.7540
  155SAPE   O1417227   1.277   7.464   9.985 -0.0743 -0.1079  0.4726
  155SAPE   O1217228   1.286   7.234   9.912 -0.0392 -1.2702  0.0406
  155SAPE   O1117229   1.260   7.408   9.743 -0.4747 -0.0698 -0.2975
  155SAPE    C117230   1.255   7.311   9.637  0.4387 -0.0171 -0.2795
  155SAPE    HA17231   1.275   7.204   9.658  2.5312  0.3909 -0.1676
  155SAPE    HB17232   1.157   7.307   9.585  0.3565 -1.1416 -0.0470
  155SAPE    C217233   1.354   7.342   9.529 -0.1075  0.7999  0.5388
  155SAPE    HS17234   1.334   7.446   9.495 -0.3495  0.9098  1.0063
  155SAPE   O2117235   1.342   7.253   9.419 -0.4050  0.6209  0.0335
  155SAPE   C2117236   1.398   7.294   9.304 -0.2394 -0.0046 -0.0407
  155SAPE   O2217237   1.439   7.404   9.275  0.0064  0.3007  0.5411
  155SAPE   C2217238   1.406   7.176   9.208  0.5600  0.2377  0.9362
  155SAPE   H2R17239   1.429   7.209   9.105  0.8319  0.7908  1.1714
  155SAPE   H2S17240   1.505   7.133   9.235  0.8643 -0.3798 -1.0774
  155SAPE    C317241   1.503   7.332   9.586  0.3346  0.0243 -0.4370
  155SAPE    HX17242   1.524   7.225   9.603  1.8689 -0.2327 -3.5573
  155SAPE    HY17243   1.494   7.389   9.681 -0.6012 -0.4590 -0.2306
  155SAPE   O3117244   1.595   7.402   9.503 -0.0466  0.0650  0.1247
  155SAPE   C3117245   1.691   7.334   9.455 -0.0479  0.9690 -0.2292
  155SAPE   O3217246   1.722   7.219   9.479 -0.4245  0.4309 -0.1577
  155SAPE   C3217247   1.773   7.432   9.374 -0.1585  0.2050 -0.0936
  155SAPE   H2X17248   1.812   7.504   9.449 -1.7219  0.1203  0.8256
  155SAPE   H2Y17249   1.706   7.484   9.303  0.3581  0.3560 -0.4676
  155SAPE   C2317250   1.283   7.080   9.208  0.3851  0.0687 -0.5557
  155SAPE   H3R17251   1.229   7.081   9.306 -1.0700 -1.3674 -1.3143
  155SAPE   H3S17252   1.329   6.979   9.210  1.0078  0.1832 -5.0929
  155SAPE   C2417253   1.196   7.093   9.089  0.1617 -0.6688  0.0034
  155SAPE   H4R17254   1.130   7.004   9.082 -2.9622  1.6537 -1.4450
  155SAPE   H4S17255   1.266   7.082   9.003  2.2510 -1.6487  1.7907
  155SAPE   C2517256   1.102   7.213   9.088  0.0507 -0.4407 -0.8776
  155SAPE   H5R17257   1.062   7.239   9.188  1.9837  2.1802 -0.7083
  155SAPE   C2617258   1.067   7.301   8.997 -0.5679  0.4811 -0.3214
  155SAPE   H6R17259   0.996   7.383   9.017 -2.1157 -0.5339 -1.5055
  155SAPE   C2717260   1.102   7.297   8.849 -0.0367  0.1361 -0.1329
  155SAPE   H7R17261   1.051   7.203   8.819  0.6440 -0.6587  1.1326
  155SAPE   H7S17262   1.212   7.288   8.835 -0.2248 -0.2176 -1.3645
  155SAPE   C2817263   1.034   7.410   8.783  1.0128 -0.5086 -0.0654
  155SAPE   H8R17264   0.925   7.404   8.770  1.1705 -2.0761 -0.7609
  155SAPE   C2917265   1.096   7.509   8.716  0.0401  0.1174  0.8513
  155SAPE   H9R17266   1.027   7.583   8.673 -1.0579 -1.2424  0.2413
  155SAPE  C21017267   1.242   7.525   8.692 -0.1795 -1.1889 -0.2646
  155SAPE  H10R17268   1.262   7.453   8.609  0.4123 -2.0468  0.6052
  155SAPE  H10S17269   1.293   7.496   8.786 -0.2335  2.4179  0.9202
  155SAPE  C21117270   1.301   7.660   8.644  0.0714  0.3838  0.2400
  155SAPE  H11R17271   1.264   7.708   8.552 -0.6190 -1.4449 -0.4825
  155SAPE  C21217272   1.381   7.742   8.704  0.1786  0.5014 -0.6641
  155SAPE  H12R17273   1.409   7.838   8.658  0.5225  0.3539 -0.7666
  155SAPE  C21317274   1.443   7.725   8.838  1.5016  0.5057 -0.4973
  155SAPE  H13R17275   1.456   7.618   8.865  0.0285  0.8733  1.9165
  155SAPE  H13S17276   1.377   7.770   8.916  2.8538 -1.4438  1.8322
  155SAPE  C21417277   1.573   7.789   8.857  0.2418 -0.1870  0.1164
  155SAPE  H14R17278   1.658   7.724   8.830 -2.1089 -2.7263 -1.4248
  155SAPE  C21517279   1.601   7.919   8.883  0.4679 -0.7016 -0.0402
  155SAPE  H15R17280   1.708   7.930   8.910  0.1579  3.0350 -0.0836
  155SAPE  C21617281   1.504   8.030   8.906  1.0820 -0.1241 -0.1867
  155SAPE  H16R17282   1.399   8.003   8.879  1.0596  1.6401 -2.0860
  155SAPE  H16S17283   1.535   8.118   8.845  1.9042  0.1067  0.5512
  155SAPE  C21717284   1.498   8.058   9.055 -0.3461  0.0301 -0.2990
  155SAPE  H17R17285   1.585   8.116   9.092  1.1432 -1.4523 -1.3872
  155SAPE  H17S17286   1.489   7.966   9.116  0.5257  1.2665  1.7428
  155SAPE  C21817287   1.372   8.141   9.090 -0.5577  0.1227 -0.1335
  155SAPE  H18R17288   1.290   8.067   9.078 -0.5741  0.3309 -1.3358
  155SAPE  H18S17289   1.366   8.231   9.025  1.0968 -2.9602 -4.7770
  155SAPE  C21917290   1.365   8.185   9.233  0.2796 -0.8607  0.2004
  155SAPE  H19R17291   1.291   8.269   9.231 -0.6363 -1.6721 -0.5567
  155SAPE  H19S17292   1.458   8.234   9.269 -1.2170  1.0828  1.5801
  155SAPE  C22017293   1.320   8.075   9.336  0.9327 -0.0406  0.5163
  155SAPE  H20R17294   1.289   8.121   9.433  3.2498  0.2313  1.1585
  155SAPE  H20S17295   1.407   8.011   9.365 -0.1868 -2.0518 -0.5199
  155SAPE  H20T17296   1.244   8.009   9.289  0.3597  0.9470  0.0638
  155SAPE   C3317297   1.871   7.347   9.286  0.4712  0.2923  0.2123
  155SAPE   H3X17298   1.816   7.262   9.241  0.3378 -0.1685  1.2192
  155SAPE   H3Y17299   1.954   7.308   9.350  1.1925  2.5253  0.6930
  155SAPE   C3417300   1.942   7.446   9.193  0.3917 -0.4965 -0.5194
  155SAPE   H4X17301   2.004   7.510   9.259 -2.3900 -0.3692  2.1389
  155SAPE   H4Y17302   1.871   7.491   9.120 -1.9866 -2.7190  0.3363
  155SAPE   C3517303   2.059   7.378   9.107 -0.4183 -0.4176  0.5071
  155SAPE   H5X17304   2.047   7.268   9.118  1.5130 -0.7474 -0.3517
  155SAPE   H5Y17305   2.156   7.403   9.157 -0.2797 -0.3344  0.1980
  155SAPE   C3617306   2.067   7.423   8.959 -0.0692 -0.3896 -0.0759
  155SAPE   H6X17307   2.160   7.399   8.902  0.3238 -0.3053  0.5196
  155SAPE   H6Y17308   2.068   7.534   8.953 -3.3271 -0.4003 -1.5527
  155SAPE   C3717309   1.944   7.388   8.871 -0.3050 -0.4279 -0.1996
  155SAPE   H7X17310   1.851   7.400   8.929  0.1356 -2.3422  0.9248
  155SAPE   H7Y17311   1.944   7.283   8.834 -1.7238 -0.1538 -1.0010
  155SAPE   C3817312   1.918   7.481   8.743  0.3680 -0.4555  0.2916
  155SAPE   H8X17313   1.993   7.445   8.668 -0.0373 -1.0103  0.1521
  155SAPE   H8Y17314   1.930   7.589   8.764  0.3383 -0.4171  0.1126
  155SAPE   C3917315   1.791   7.454   8.670 -0.6112  0.3404 -0.0268
  155SAPE   H9X17316   1.709   7.475   8.742  0.6554  2.2471  0.8963
  155SAPE   H9Y17317   1.797   7.351   8.630 -0.6399 -0.8184  2.8882
  155SAPE  C31017318   1.760   7.546   8.545 -0.3323  0.1206 -0.2960
  155SAPE  H10X17319   1.859   7.557   8.496  0.1844  0.4151  0.7949
  155SAPE  H10Y17320   1.739   7.648   8.585  2.3546  0.7611 -0.3891
  155SAPE  C31117321   1.649   7.503   8.453 -0.4487  0.5257  0.3759
  155SAPE  H11X17322   1.547   7.518   8.495 -0.9882  0.2625 -0.8274
  155SAPE  H11Y17323   1.650   7.395   8.428 -1.1128  0.4900  0.4965
  155SAPE  C31217324   1.652   7.571   8.313 -0.5756  0.3262 -0.0787
  155SAPE  H12X17325   1.733   7.531   8.249 -1.7444  1.1001 -2.0767
  155SAPE  H12Y17326   1.666   7.680   8.331  3.2293 -0.7456  4.6568
  155SAPE  C31317327   1.519   7.534   8.245 -0.4829  0.1279 -0.6055
  155SAPE  H13X17328   1.426   7.558   8.300 -0.0465 -0.9838  0.6409
  155SAPE  H13Y17329   1.523   7.423   8.237 -0.0606  0.0476  0.7157
  155SAPE  C31417330   1.499   7.596   8.104 -0.0373  0.2287 -0.2277
  155SAPE  H14X17331   1.400   7.568   8.063  0.4365 -0.0542 -1.2030
  155SAPE  H14Y17332   1.583   7.558   8.042 -0.5516 -0.9685 -0.1854
  155SAPE  C31517333   1.513   7.748   8.092  0.9506 -0.0002  0.1016
  155SAPE  H15X17334   1.615   7.781   8.122  1.6636 -1.8021 -0.2904
  155SAPE  H15Y17335   1.438   7.795   8.160  0.3743  0.6331 -0.9521
  155SAPE  C31617336   1.480   7.802   7.954  0.1827  0.0487  0.5984
  155SAPE  H16X17337   1.544   7.741   7.887  0.0931  0.5050  0.0988
  155SAPE  H16Y17338   1.512   7.908   7.946  0.5084 -0.2178 -1.8722
  155SAPE  C31717339   1.328   7.795   7.917 -0.6723  0.1655 -0.1009
  155SAPE  H17X17340   1.261   7.835   7.996  1.3237 -1.1547  2.3597
  155SAPE  H17Y17341   1.303   7.688   7.896 -0.1890 -0.0513  0.4222
  155SAPE  C31817342   1.292   7.867   7.785 -0.5748  0.1886 -0.1709
  155SAPE  H18X17343   1.304   7.977   7.796 -1.8464  0.8516 -4.2510
  155SAPE  H18Y17344   1.186   7.841   7.765 -0.6877  0.7652 -0.3499
  155SAPE  H18Z17345   1.355   7.837   7.698  0.5444 -2.3734  1.4832
  156SAPE     N17346   0.197   5.839  10.207 -0.3116 -0.3376  0.0067
  156SAPE   HN117347   0.272   5.885  10.263 -0.3368  2.3083 -2.0420
  156SAPE   HN217348   0.208   5.882  10.114  1.7449 -2.1445 -0.6403
  156SAPE   HN317349   0.100   5.852  10.242 -1.0869 -1.8978 -1.5246
  156SAPE   C1217350   0.219   5.690  10.188 -0.5101  0.1471  0.7178
  156SAPE  H12A17351   0.190   5.639  10.282  2.1818 -2.3801  0.2610
  156SAPE  H12B17352   0.328   5.674  10.170 -0.5316  1.2878 -0.4795
  156SAPE   C1117353   0.138   5.625  10.074  0.4524 -0.5767  0.2761
  156SAPE  H11A17354   0.034   5.615  10.113  0.0634 -0.4760 -0.7302
  156SAPE  H11B17355   0.178   5.523  10.056  0.3915 -0.2443 -1.7509
  156SAPE     P17356   0.038   5.678   9.843  0.5552 -0.0120 -0.3999
  156SAPE   O1317357  -0.092   5.650   9.908 -0.7707 -0.1585 -0.3255
  156SAPE   O1417358   0.045   5.795   9.756  0.5101  0.3532 -0.0523
  156SAPE   O1217359   0.144   5.704   9.957 -0.2901  0.4602 -0.4059
  156SAPE   O1117360   0.092   5.555   9.769 -0.4215  0.4509 -0.1120
  156SAPE    C117361   0.226   5.541   9.713  0.0485  0.7087 -0.4260
  156SAPE    HA17362   0.293   5.564   9.799 -0.5053 -1.1054  0.4975
  156SAPE    HB17363   0.255   5.442   9.673  2.3929  1.5421 -0.9068
  156SAPE    C217364   0.257   5.630   9.590  0.4485 -0.1285 -0.4169
  156SAPE    HS17365   0.284   5.728   9.634 -1.1166  1.1305 -2.1812
  156SAPE   O2117366   0.138   5.638   9.505  0.0705  0.4654  0.1613
  156SAPE   C2117367   0.115   5.760   9.458  0.3502  0.6928  0.5226
  156SAPE   O2217368   0.191   5.857   9.473 -0.0175  0.4823 -0.0602
  156SAPE   C2217369  -0.013   5.759   9.367  0.0436 -0.6686  0.3315
  156SAPE   H2R17370   0.005   5.677   9.295  2.0783 -1.9661  2.2253
  156SAPE   H2S17371  -0.096   5.729   9.434 -0.9331 -1.6706 -1.2869
  156SAPE    C317372   0.366   5.568   9.508 -0.1319 -0.4880 -0.4255
  156SAPE    HX17373   0.332   5.474   9.461 -0.3528 -0.6841  0.1266
  156SAPE    HY17374   0.446   5.534   9.578 -0.3249  0.4793  0.2872
  156SAPE   O3117375   0.428   5.651   9.398  0.0936 -0.5822 -0.0448
  156SAPE   C3117376   0.511   5.745   9.447 -0.9223 -0.2846 -0.2760
  156SAPE   O3217377   0.543   5.760   9.564 -0.3754  0.2753  0.3207
  156SAPE   C3217378   0.578   5.827   9.328  0.0959  0.0290 -0.2766
  156SAPE   H2X17379   0.686   5.804   9.321  0.3659  0.5547  1.8813
  156SAPE   H2Y17380   0.561   5.935   9.349 -0.4484  0.6269 -3.4946
  156SAPE   C2317381  -0.028   5.900   9.308  0.4934  0.3065 -0.2475
  156SAPE   H3R17382   0.070   5.927   9.263  0.7911 -1.8949 -0.9770
  156SAPE   H3S17383  -0.059   5.973   9.386  0.9880  1.3803 -1.0373
  156SAPE   C2417384  -0.129   5.890   9.203  0.2442  0.2560  0.2003
  156SAPE   H4R17385  -0.225   5.856   9.249  1.2125 -1.5054  0.9694
  156SAPE   H4S17386  -0.115   5.808   9.130 -2.1054 -1.1053  1.2076
  156SAPE   C2517387  -0.147   6.018   9.123  0.1231 -0.2697  0.1303
  156SAPE   H5R17388  -0.208   6.096   9.170 -1.0184  0.7763 -2.9953
  156SAPE   C2617389  -0.108   6.040   9.003 -0.5370  1.0691  0.2032
  156SAPE   H6R17390  -0.145   6.129   8.951 -1.4489  0.0361 -0.9591
  156SAPE   C2717391  -0.049   5.940   8.900  0.4168  0.1186 -0.5243
  156SAPE   H7R17392  -0.134   5.895   8.845  0.6374 -2.6560  1.2645
  156SAPE   H7S17393  -0.016   5.845   8.947 -2.4246 -0.9294 -0.5591
  156SAPE   C2817394   0.065   5.978   8.811 -0.4362  0.4647 -0.0894
  156SAPE   H8R17395   0.112   6.072   8.843 -0.1001  0.2718 -0.0144
  156SAPE   C2917396   0.091   5.912   8.696 -0.3606  0.6591  0.1877
  156SAPE   H9R17397   0.167   5.954   8.629  0.3187 -1.0011 -0.1123
  156SAPE  C21017398   0.027   5.787   8.638 -0.4934  0.3096 -0.1345
  156SAPE  H10R17399  -0.025   5.731   8.718  1.2157 -2.2567 -0.7592
  156SAPE  H10S17400   0.104   5.715   8.602 -0.4732  0.0472  0.4386
  156SAPE  C21117401  -0.068   5.808   8.528 -0.2320  0.7125  0.2052
  156SAPE  H11R17402  -0.174   5.825   8.552 -0.3659 -1.0259  0.9371
  156SAPE  C21217403  -0.041   5.789   8.397 -0.8122 -0.2789  0.1717
  156SAPE  H12R17404  -0.119   5.805   8.321  0.1838  1.3236 -0.5369
  156SAPE  C21317405   0.090   5.742   8.338 -0.4215 -0.1562  0.5953
  156SAPE  H13R17406   0.093   5.632   8.350  0.7034 -0.3273 -1.0345
  156SAPE  H13S17407   0.176   5.790   8.388 -0.2214  0.5525 -0.3985
  156SAPE  C21417408   0.109   5.775   8.188  0.6075  0.3092 -0.3142
  156SAPE  H14R17409   0.041   5.852   8.147 -1.3027 -1.1255  0.0789
  156SAPE  C21517410   0.196   5.716   8.106  0.7442  1.0595  0.4223
  156SAPE  H15R17411   0.193   5.742   8.000  0.5612  1.1038  0.4391
  156SAPE  C21617412   0.288   5.607   8.148 -0.9065 -0.5238  0.4043
  156SAPE  H16R17413   0.232   5.536   8.213 -1.2184 -2.5720 -2.0192
  156SAPE  H16S17414   0.375   5.652   8.201 -0.9630  0.8414 -0.6359
  156SAPE  C21717415   0.345   5.517   8.034 -0.6868 -0.0792  0.2957
  156SAPE  H17R17416   0.420   5.455   8.087  1.9768  4.2306  1.9016
  156SAPE  H17S17417   0.406   5.584   7.969  0.5725 -0.7509  0.7758
  156SAPE  C21817418   0.231   5.437   7.967  0.4171  0.5673 -0.2956
  156SAPE  H18R17419   0.184   5.515   7.903 -2.3219 -0.5704  0.2723
  156SAPE  H18S17420   0.161   5.401   8.046 -0.4527 -1.6552 -2.0274
  156SAPE  C21917421   0.269   5.310   7.890 -0.4225  0.3778  0.3963
  156SAPE  H19R17422   0.169   5.291   7.846  0.0812  0.2648 -0.7218
  156SAPE  H19S17423   0.301   5.224   7.952  2.5805  0.6073 -0.7349
  156SAPE  C22017424   0.363   5.345   7.779 -0.3747  0.5105  0.3134
  156SAPE  H20R17425   0.469   5.365   7.805  0.5469 -2.3633 -0.9977
  156SAPE  H20S17426   0.334   5.440   7.730 -0.9184  1.0667  1.6839
  156SAPE  H20T17427   0.360   5.266   7.701  0.8834  0.5191  0.2482
  156SAPE   C3317428   0.513   5.806   9.187 -0.1133 -0.6635 -0.7576
  156SAPE   H3X17429   0.514   5.698   9.160 -2.9551 -1.0974  0.6208
  156SAPE   H3Y17430   0.575   5.859   9.113 -1.6063 -1.2470 -2.4561
  156SAPE   C3417431   0.372   5.862   9.173  0.2391  0.0887 -0.8752
  156SAPE   H4X17432   0.360   5.969   9.201 -0.8871 -0.4222  0.6572
  156SAPE   H4Y17433   0.307   5.816   9.251 -0.7292  0.4371 -1.4703
  156SAPE   C3517434   0.313   5.834   9.032 -0.6374 -0.6252 -0.2797
  156SAPE   H5X17435   0.380   5.879   8.956  0.2602  0.6815  1.2543
  156SAPE   H5Y17436   0.223   5.899   9.034 -0.4402 -0.3569 -0.0137
  156SAPE   C3617437   0.278   5.691   8.993  0.1417 -0.3066  0.5032
  156SAPE   H6X17438   0.376   5.642   9.009 -1.2684 -4.0586 -1.6049
  156SAPE   H6Y17439   0.234   5.687   8.891 -0.0082  0.1072  0.5511
  156SAPE   C3717440   0.162   5.623   9.071  0.1756 -0.0668  0.3598
  156SAPE   H7X17441   0.072   5.680   9.040  0.6467 -0.1723 -1.2486
  156SAPE   H7Y17442   0.181   5.652   9.177 -2.5629  3.2461  0.0145
  156SAPE   C3817443   0.171   5.474   9.047 -0.2133 -0.0103  0.3363
  156SAPE   H8X17444   0.115   5.416   9.123 -3.7939  0.2546 -2.0241
  156SAPE   H8Y17445   0.281   5.459   9.058 -0.1503  0.7287  0.7312
  156SAPE   C3917446   0.145   5.431   8.903  0.5987 -1.2026  0.3079
  156SAPE   H9X17447   0.187   5.329   8.895 -0.3401 -1.5787  0.1088
  156SAPE   H9Y17448   0.205   5.490   8.830  1.6132  0.1500  2.1943
  156SAPE  C31017449  -0.004   5.421   8.867 -0.4823  0.0241  0.4677
  156SAPE  H10X17450  -0.052   5.519   8.888 -1.7138 -0.3743 -0.4576
  156SAPE  H10Y17451  -0.041   5.334   8.925 -0.2940  0.8232  1.8041
  156SAPE  C31117452  -0.022   5.404   8.714 -0.3984  0.0413  0.1276
  156SAPE  H11X17453   0.046   5.324   8.675 -0.5255  1.1801 -2.5340
  156SAPE  H11Y17454   0.015   5.503   8.678  0.0192  0.0407  0.5517
  156SAPE  C31217455  -0.165   5.384   8.673  0.3327 -0.2717  0.1467
  156SAPE  H12X17456  -0.222   5.439   8.751 -2.2287 -2.0721 -0.3817
  156SAPE  H12Y17457  -0.194   5.278   8.692  3.0621 -0.7772  1.7989
  156SAPE  C31317458  -0.189   5.428   8.528  0.1432  0.0738  0.1664
  156SAPE  H13X17459  -0.148   5.531   8.518  0.9787 -0.2091  0.6132
  156SAPE  H13Y17460  -0.299   5.434   8.511 -0.0575 -1.4316  0.8759
  156SAPE  C31417461  -0.128   5.339   8.413  0.1842  0.7626 -0.7946
  156SAPE  H14X17462  -0.186   5.244   8.410 -0.1615  0.9500 -0.0852
  156SAPE  H14Y17463  -0.018   5.324   8.423 -0.0374  0.6579  2.1466
  156SAPE  C31517464  -0.161   5.396   8.270  0.2297 -0.4560 -0.0904
  156SAPE  H15X17465  -0.134   5.503   8.258 -0.1987 -0.1597  1.4823
  156SAPE  H15Y17466  -0.272   5.396   8.263  0.3392 -2.1875 -2.3635
  156SAPE  C31617467  -0.110   5.304   8.154  0.0896 -0.2806 -0.6752
  156SAPE  H16X17468  -0.168   5.212   8.176  1.2531 -1.3914 -2.1559
  156SAPE  H16Y17469  -0.000   5.288   8.160  0.0204 -0.1794  1.1103
  156SAPE  C31717470  -0.147   5.370   8.017 -0.6547  0.5389  0.3904
  156SAPE  H17X17471  -0.104   5.472   8.006  1.3627 -0.3917 -0.6787
  156SAPE  H17Y17472  -0.258   5.383   8.016 -0.6470  0.7584  1.4497
  156SAPE  C31817473  -0.118   5.288   7.892 -0.0834 -0.3780  0.5457
  156SAPE  H18X17474  -0.015   5.247   7.902  1.0465  1.5736 -2.4984
  156SAPE  H18Y17475  -0.123   5.347   7.798  0.3340 -3.3385 -1.4131
  156SAPE  H18Z17476  -0.203   5.216   7.890  0.3001 -0.8179 -0.5919
  157SAPE     N17477   6.359   5.895  10.058  0.4892 -0.2103  0.5660
  157SAPE   HN117478   6.367   5.866  10.158  1.2440  2.4819  1.3261
  157SAPE   HN217479   6.271   5.949  10.050  0.2676 -0.4504  1.3568
  157SAPE   HN317480   6.347   5.819   9.988  1.2143  0.8404 -0.7190
  157SAPE   C1217481   6.475   5.969  10.002  0.0804 -0.3727  0.5534
  157SAPE  H12A17482   6.482   6.070  10.050 -2.0124 -0.6589  1.5048
  157SAPE  H12B17483   6.442   5.981   9.897 -0.0126  1.4445  0.7620
  157SAPE   C1117484   6.610   5.893  10.023 -0.8321  0.1211 -0.1175
  157SAPE  H11A17485   6.610   5.801   9.961  0.0219 -0.3605  0.5825
  157SAPE  H11B17486   6.610   5.862  10.130 -1.1932 -0.4368 -0.2728
  157SAPE     P17487   6.799   6.075  10.071 -0.0357 -0.0997  0.1313
  157SAPE   O1317488   6.708   6.156  10.159 -0.4171  0.8375 -0.0267
  157SAPE   O1417489   6.912   6.003  10.136 -0.0265 -0.8780 -0.0178
  157SAPE   O1217490   6.707   5.982   9.978 -0.4403  0.4814  0.2077
  157SAPE   O1117491   6.858   6.177   9.971  0.7029 -0.3574  0.4744
  157SAPE    C117492   6.889   6.140   9.838 -0.4425 -0.0045  0.0322
  157SAPE    HA17493   6.991   6.177   9.819 -1.2454  1.3973 -1.6662
  157SAPE    HB17494   6.894   6.030   9.821 -1.5598 -0.0506 -0.0772
  157SAPE    C217495   6.794   6.203   9.735 -0.3611  0.3268 -0.0863
  157SAPE    HS17496   6.698   6.152   9.757  0.9796 -2.5737 -0.6476
  157SAPE   O2117497   6.847   6.178   9.604  0.1933 -0.1650  0.3121
  157SAPE   C2117498   6.826   6.045   9.564  0.0406  0.5377  0.2040
  157SAPE   O2217499   6.755   5.970   9.628 -0.3264 -0.0226 -0.4256
  157SAPE   C2217500   6.895   6.008   9.440 -0.1883  0.5585  0.0747
  157SAPE   H2R17501   6.977   6.080   9.415  0.5436  0.5346  2.2814
  157SAPE   H2S17502   6.949   5.913   9.455 -1.1797  0.1798  1.2292
  157SAPE    C317503   6.777   6.356   9.758  0.5624  0.7459 -0.1188
  157SAPE    HX17504   6.873   6.404   9.733  0.4429  1.0500 -0.0002
  157SAPE    HY17505   6.751   6.366   9.866  2.1879  0.5166  0.2995
  157SAPE   O3117506   6.665   6.417   9.694 -0.3642  0.3428  0.2900
  157SAPE   C3117507   6.693   6.463   9.568 -0.5270  0.0855 -0.2661
  157SAPE   O3217508   6.801   6.450   9.513 -0.2669 -0.1088  0.2331
  157SAPE   C3217509   6.574   6.520   9.493  0.3487 -0.4304  0.4290
  157SAPE   H2X17510   6.531   6.608   9.546 -1.1024  0.0086 -1.4062
  157SAPE   H2Y17511   6.497   6.440   9.490  0.0301 -0.2595  3.0486
  157SAPE   C2317512   6.800   5.985   9.316  0.0645  0.1541  0.0617
  157SAPE   H3R17513   6.727   5.904   9.336 -0.1505  1.0981  3.3138
  157SAPE   H3S17514   6.862   5.952   9.229  1.5831 -1.5995  1.7630
  157SAPE   C2417515   6.723   6.114   9.275  0.3844 -0.7721 -0.3712
  157SAPE   H4R17516   6.655   6.142   9.358 -0.5042 -1.5328 -0.8298
  157SAPE   H4S17517   6.657   6.076   9.194 -0.1756 -2.8808  1.0415
  157SAPE   C2517518   6.812   6.227   9.229  0.1774 -0.0904  0.2573
  157SAPE   H5R17519   6.858   6.284   9.311 -0.2823 -1.2144  1.3113
  157SAPE   C2617520   6.826   6.285   9.107 -0.5270  0.2286 -0.0030
  157SAPE   H6R17521   6.894   6.368   9.081 -0.7606 -0.1215 -1.8655
  157SAPE   C2717522   6.758   6.241   8.979 -0.3186  0.3111  0.5457
  157SAPE   H7R17523   6.740   6.325   8.909  1.4182 -0.8634 -1.3544
  157SAPE   H7S17524   6.652   6.217   9.006 -0.9263  3.7690  1.4824
  157SAPE   C2817525   6.807   6.112   8.915  0.0203  0.5832 -0.2007
  157SAPE   H8R17526   6.804   6.014   8.965 -0.0980  0.3990 -0.5620
  157SAPE   C2917527   6.884   6.108   8.805  0.3632  0.1999 -0.1868
  157SAPE   H9R17528   6.911   6.017   8.750 -1.0233 -0.0388 -0.5117
  157SAPE  C21017529   6.915   6.238   8.730  0.3261  0.8907  0.3589
  157SAPE  H10R17530   6.938   6.320   8.801  0.9580 -1.5795  3.0973
  157SAPE  H10S17531   6.821   6.269   8.680 -0.6692 -0.1902  1.5385
  157SAPE  C21117532   7.041   6.220   8.645 -0.3017 -0.2512  0.4575
  157SAPE  H11R17533   7.128   6.276   8.684  0.1680 -2.0951  2.0988
  157SAPE  C21217534   7.045   6.148   8.528  0.6055  1.1441 -0.1410
  157SAPE  H12R17535   7.134   6.143   8.464 -0.6952 -1.9249 -1.8168
  157SAPE  C21317536   6.930   6.069   8.472  0.0247  0.2789 -0.1533
  157SAPE  H13R17537   6.884   6.008   8.552 -1.1589  3.0595  1.3590
  157SAPE  H13S17538   6.968   5.992   8.402 -0.6486  2.4281 -2.9799
  157SAPE  C21417539   6.831   6.165   8.414  0.1913  0.4213  0.1223
  157SAPE  H14R17540   6.752   6.200   8.482 -0.5806 -0.4138 -0.3457
  157SAPE  C21517541   6.849   6.223   8.293  0.0171  0.0568  0.3929
  157SAPE  H15R17542   6.769   6.294   8.269 -0.0694 -0.5416 -1.1417
  157SAPE  C21617543   6.960   6.206   8.194  0.0208 -0.3172 -0.7483
  157SAPE  H16R17544   7.049   6.160   8.242 -0.4471 -0.4341  0.0269
  157SAPE  H16S17545   7.003   6.306   8.172  1.2477 -0.3907  1.1465
  157SAPE  C21717546   6.916   6.134   8.067 -0.1092 -0.1901 -0.3691
  157SAPE  H17R17547   6.818   6.181   8.040  0.0892  0.9590  0.8449
  157SAPE  H17S17548   6.909   6.026   8.094  1.1885  0.0291  0.8856
  157SAPE  C21817549   7.015   6.160   7.947 -0.0139 -0.4946  0.3996
  157SAPE  H18R17550   7.006   6.087   7.863 -0.7659  1.3772 -1.2020
  157SAPE  H18S17551   7.119   6.149   7.984  0.5453  0.8685 -0.7444
  157SAPE  C21917552   6.992   6.292   7.892 -0.3195  0.6733  0.1180
  157SAPE  H19R17553   7.004   6.369   7.971 -0.5479 -0.8483  1.6885
  157SAPE  H19S17554   6.889   6.305   7.854 -0.4149  4.5286  1.4793
  157SAPE  C22017555   7.088   6.330   7.778  0.1764  0.2802 -0.1772
  157SAPE  H20R17556   7.195   6.344   7.803 -0.1722  2.4626  0.2368
  157SAPE  H20S17557   7.054   6.427   7.735  0.0332 -0.5486 -1.9798
  157SAPE  H20T17558   7.083   6.252   7.700 -1.0908 -0.0753  0.2433
  157SAPE   C3317559   6.615   6.551   9.348 -0.7047  0.3801 -0.0404
  157SAPE   H3X17560   6.634   6.456   9.293 -2.3256 -0.6699  1.1698
  157SAPE   H3Y17561   6.699   6.623   9.346 -0.6030  0.4555  3.6633
  157SAPE   C3417562   6.503   6.614   9.268 -0.0958  0.2945  0.5123
  157SAPE   H4X17563   6.474   6.711   9.313 -2.3319 -0.6730  1.2300
  157SAPE   H4Y17564   6.415   6.545   9.268 -1.8370  2.4500 -0.4860
  157SAPE   C3517565   6.536   6.659   9.122 -0.0320 -0.0427  0.2039
  157SAPE   H5X17566   6.626   6.722   9.105  1.4133 -1.9582  0.5583
  157SAPE   H5Y17567   6.444   6.711   9.088 -0.4730 -0.8494  0.1403
  157SAPE   C3617568   6.557   6.542   9.032 -0.5416 -0.3582  0.0515
  157SAPE   H6X17569   6.484   6.462   9.058 -1.5863  0.1807 -1.1910
  157SAPE   H6Y17570   6.656   6.501   9.062 -0.9577 -0.2108  1.7224
  157SAPE   C3717571   6.539   6.568   8.883  0.0791 -0.0430  0.5705
  157SAPE   H7X17572   6.630   6.606   8.831 -1.7572 -0.6022 -3.2371
  157SAPE   H7Y17573   6.459   6.643   8.863  0.3887  0.6369  1.8362
  157SAPE   C3817574   6.499   6.443   8.799 -0.0823  0.0228  0.9751
  157SAPE   H8X17575   6.401   6.423   8.849  0.0455  1.8696  2.0385
  157SAPE   H8Y17576   6.561   6.355   8.829 -0.8231 -0.9974 -0.4602
  157SAPE   C3917577   6.488   6.477   8.649  0.7962 -0.2728  0.4780
  157SAPE   H9X17578   6.426   6.566   8.624 -1.8823 -2.5905 -1.5679
  157SAPE   H9Y17579   6.433   6.393   8.602 -0.0182  0.3658  0.2577
  157SAPE  C31017580   6.618   6.512   8.577 -0.1565  0.6716 -1.0870
  157SAPE  H10X17581   6.702   6.443   8.599 -0.9729  0.0264  0.0465
  157SAPE  H10Y17582   6.651   6.614   8.609 -0.4881  0.8633 -1.3527
  157SAPE  C31117583   6.583   6.518   8.421  0.0545  0.7950 -0.3435
  157SAPE  H11X17584   6.491   6.581   8.422 -0.4914  0.0364 -1.5320
  157SAPE  H11Y17585   6.546   6.417   8.395  0.7900  0.2946  0.5118
  157SAPE  C31217586   6.700   6.576   8.337 -0.2478  0.4308  0.3419
  157SAPE  H12X17587   6.787   6.514   8.366  2.4179  3.7401 -0.2643
  157SAPE  H12Y17588   6.722   6.679   8.373 -0.9392  0.8147 -0.3079
  157SAPE  C31317589   6.672   6.577   8.189 -0.5222  0.5653 -0.0185
  157SAPE  H13X17590   6.576   6.631   8.176 -1.5143 -1.8094 -3.0188
  157SAPE  H13Y17591   6.656   6.475   8.149  0.6199 -0.6467  2.4840
  157SAPE  C31417592   6.777   6.653   8.099  0.6680  0.4593 -0.1842
  157SAPE  H14X17593   6.882   6.627   8.121  1.5753  3.0500 -1.1554
  157SAPE  H14Y17594   6.756   6.761   8.115 -0.6106  0.0760  0.7940
  157SAPE  C31517595   6.764   6.627   7.948 -0.6993  0.5877  0.4161
  157SAPE  H15X17596   6.664   6.658   7.910 -1.3051 -1.5628  0.2177
  157SAPE  H15Y17597   6.761   6.522   7.913 -2.1640  1.8143 -3.3626
  157SAPE  C31617598   6.855   6.716   7.859  0.1629 -0.2589  0.2203
  157SAPE  H16X17599   6.837   6.684   7.754  0.1587  1.6420 -0.3768
  157SAPE  H16Y17600   6.964   6.707   7.873  0.0753  1.5881  2.3501
  157SAPE  C31717601   6.821   6.866   7.856 -0.2358 -0.7565 -0.3897
  157SAPE  H17X17602   6.837   6.907   7.958 -0.4603  0.3368 -0.7944
  157SAPE  H17Y17603   6.713   6.875   7.829 -0.1774  1.5176  0.0847
  157SAPE  C31817604   6.914   6.945   7.755  0.2272 -0.6092 -0.1294
  157SAPE  H18X17605   6.889   6.916   7.650 -1.2513 -2.3069  0.6713
  157SAPE  H18Y17606   7.018   6.921   7.785  0.6709 -1.4674 -2.2296
  157SAPE  H18Z17607   6.904   7.055   7.771  0.3346 -0.7021  0.5581
  158SAPE     N17608   0.139   6.032   9.704 -0.3216 -0.0299 -0.6944
  158SAPE   HN117609   0.117   5.935   9.734  1.0324  0.4059  1.8488
  158SAPE   HN217610   0.098   6.099   9.772  0.4765  1.0630 -1.2841
  158SAPE   HN317611   0.096   6.051   9.611 -0.3686  1.7411 -0.3328
  158SAPE   C1217612   0.288   6.051   9.721  0.5059  0.3467 -0.2673
  158SAPE  H12A17613   0.316   6.158   9.713 -0.1028  0.6558  1.4816
  158SAPE  H12B17614   0.340   5.989   9.644 -0.8899  1.3772 -2.0683
  158SAPE   C1117615   0.340   6.018   9.859 -0.4381  0.2228  0.9518
  158SAPE  H11A17616   0.450   6.005   9.864 -0.3280 -0.0521 -1.6122
  158SAPE  H11B17617   0.299   5.923   9.900 -0.3746  0.7964  2.4033
  158SAPE     P17618   0.172   6.166  10.013  0.0536  0.0596  0.2799
  158SAPE   O1317619   0.107   6.040  10.050 -0.1759  0.4509 -0.0708
  158SAPE   O1417620   0.195   6.267  10.120 -0.6691  0.3892 -0.2730
  158SAPE   O1217621   0.311   6.128   9.944  0.0404  0.0870 -0.1249
  158SAPE   O1117622   0.089   6.217   9.888 -0.1703 -0.1214 -0.1547
  158SAPE    C117623  -0.026   6.299   9.886  0.2015  0.3208  0.0892
  158SAPE    HA17624  -0.097   6.255   9.812  2.4768 -0.5280 -1.6568
  158SAPE    HB17625  -0.077   6.313   9.984 -0.6058 -0.2927 -0.2338
  158SAPE    C217626  -0.003   6.445   9.824 -0.6218  0.3170  0.0943
  158SAPE    HS17627   0.063   6.499   9.895 -1.2901  2.4797 -0.8817
  158SAPE   O2117628  -0.130   6.516   9.806  0.3110 -0.0291  0.4735
  158SAPE   C2117629  -0.110   6.650   9.793  0.3533 -0.2250 -0.1989
  158SAPE   O2217630  -0.015   6.712   9.849 -0.1228 -0.2411 -0.7148
  158SAPE   C2217631  -0.218   6.702   9.690  0.2223  0.0514 -0.6107
  158SAPE   H2R17632  -0.213   6.622   9.613 -0.6259  2.0981 -2.8636
  158SAPE   H2S17633  -0.318   6.701   9.739  0.5645  0.2753  0.1091
  158SAPE    C317634   0.072   6.443   9.691  0.4129 -0.2798  0.3354
  158SAPE    HX17635   0.152   6.367   9.681  1.4582  1.0039 -1.4142
  158SAPE    HY17636   0.131   6.537   9.699 -0.4967  0.2287  1.2557
  158SAPE   O3117637  -0.009   6.446   9.575  0.0576 -0.6335  0.1382
  158SAPE   C3117638  -0.023   6.336   9.505  0.1063 -0.1853 -0.1941
  158SAPE   O3217639   0.040   6.232   9.526  0.6591  0.2960 -0.3380
  158SAPE   C3217640  -0.115   6.359   9.387  0.2244 -0.3477  0.6715
  158SAPE   H2X17641  -0.207   6.418   9.405 -1.0587 -2.2911  0.6573
  158SAPE   H2Y17642  -0.138   6.259   9.345  2.5344  0.9357 -4.0372
  158SAPE   C2317643  -0.200   6.843   9.627  0.2511 -0.3224  0.0874
  158SAPE   H3R17644  -0.226   6.906   9.715 -1.2637 -0.1437 -0.4786
  158SAPE   H3S17645  -0.279   6.873   9.554  1.5491  1.8112 -0.4879
  158SAPE   C2417646  -0.056   6.874   9.574  0.0016  0.5041  0.1722
  158SAPE   H4R17647   0.025   6.840   9.642 -1.0920 -0.8091  0.8288
  158SAPE   H4S17648  -0.049   6.985   9.578 -0.1946  0.5697 -1.0763
  158SAPE   C2517649  -0.032   6.822   9.431  0.0817  0.0579 -0.0705
  158SAPE   H5R17650  -0.021   6.713   9.421 -4.0480 -0.6601  2.0755
  158SAPE   C2617651   0.001   6.903   9.319 -0.1104 -0.8883  0.3872
  158SAPE   H6R17652   0.011   6.852   9.222 -1.9168 -1.4595  0.4853
  158SAPE   C2717653   0.017   7.056   9.307  0.4331  0.2777  0.6565
  158SAPE   H7R17654   0.105   7.067   9.374  0.5763  0.7627  0.3895
  158SAPE   H7S17655  -0.068   7.118   9.341  0.1011  0.7465 -0.9638
  158SAPE   C2817656   0.076   7.086   9.163 -0.2538 -0.5669 -0.6706
  158SAPE   H8R17657   0.105   6.997   9.106  0.5722  1.5375 -3.6239
  158SAPE   C2917658   0.088   7.208   9.107  0.2401  0.1098 -0.0609
  158SAPE   H9R17659   0.129   7.220   9.006 -0.3524 -1.4603 -0.5144
  158SAPE  C21017660   0.048   7.340   9.165  0.2195  0.0904 -0.2621
  158SAPE  H10R17661   0.139   7.396   9.194  0.3782  0.6759 -1.8151
  158SAPE  H10S17662  -0.012   7.322   9.256  0.2460 -0.0274 -0.2699
  158SAPE  C21117663  -0.029   7.427   9.072  0.7373  0.1554  0.7885
  158SAPE  H11R17664  -0.137   7.414   9.086  0.4470 -0.7982 -2.0568
  158SAPE  C21217665   0.021   7.507   8.975 -0.6042 -0.2097  0.0064
  158SAPE  H12R17666  -0.044   7.571   8.914  0.3842  0.3114 -0.5220
  158SAPE  C21317667   0.169   7.522   8.938  0.1497  0.2958  0.2042
  158SAPE  H13R17668   0.187   7.553   8.833 -0.8737  0.5395  0.0988
  158SAPE  H13S17669   0.214   7.421   8.948 -2.7295 -1.0816 -0.2775
  158SAPE  C21417670   0.230   7.623   9.036  0.8959  0.1278  0.1854
  158SAPE  H14R17671   0.205   7.621   9.143  1.1897  1.5797  0.2950
  158SAPE  C21517672   0.339   7.700   8.990  0.4349 -0.4387 -0.2303
  158SAPE  H15R17673   0.365   7.792   9.043 -0.1396  0.0407 -0.7708
  158SAPE  C21617674   0.415   7.697   8.856 -0.2022 -0.1936 -0.8212
  158SAPE  H16R17675   0.401   7.794   8.803  2.0638 -0.4960 -2.0303
  158SAPE  H16S17676   0.392   7.613   8.787 -0.8724 -0.7967  0.1211
  158SAPE  C21717677   0.567   7.687   8.876  0.3091 -0.1552 -0.3135
  158SAPE  H17R17678   0.592   7.593   8.930 -0.7063  0.1905  0.7726
  158SAPE  H17S17679   0.609   7.759   8.950  1.5532 -1.1729 -0.0175
  158SAPE  C21817680   0.635   7.692   8.741 -0.3813  0.1350 -0.0741
  158SAPE  H18R17681   0.746   7.698   8.746 -0.2794  0.4851 -2.2330
  158SAPE  H18S17682   0.599   7.786   8.695 -0.8309  1.0216  2.0172
  158SAPE  C21917683   0.612   7.569   8.653  0.2385  0.8140  0.5318
  158SAPE  H19R17684   0.506   7.568   8.621 -0.0306  0.9589  1.4210
  158SAPE  H19S17685   0.636   7.479   8.713 -0.6921 -0.2621 -0.6925
  158SAPE  C22017686   0.704   7.556   8.535 -0.4317  0.2718 -0.3797
  158SAPE  H20R17687   0.665   7.470   8.477  0.2620 -0.3788  0.1203
  158SAPE  H20S17688   0.807   7.524   8.558 -0.4514 -1.7415 -2.9217
  158SAPE  H20T17689   0.701   7.636   8.457  0.5157 -1.3419 -2.1020
  158SAPE   C3317690  -0.039   6.437   9.276 -0.4448  0.8967  0.5865
  158SAPE   H3X17691   0.008   6.361   9.210 -0.0793  1.5370  0.1081
  158SAPE   H3Y17692   0.033   6.510   9.318 -1.2745  0.6293  2.5144
  158SAPE   C3417693  -0.137   6.517   9.186 -0.0409  0.3796  0.1035
  158SAPE   H4X17694  -0.166   6.615   9.231  0.2737 -0.1588  1.5218
  158SAPE   H4Y17695  -0.224   6.450   9.179  0.3837 -0.1290 -0.3338
  158SAPE   C3517696  -0.083   6.523   9.038 -0.2092 -0.3002 -0.2811
  158SAPE   H5X17697  -0.057   6.421   9.002  0.9773 -0.2155  0.2995
  158SAPE   H5Y17698   0.009   6.584   9.026 -1.0927  1.1713  0.3696
  158SAPE   C3617699  -0.181   6.595   8.946 -0.3322 -0.6456  0.2275
  158SAPE   H6X17700  -0.185   6.704   8.964  2.7036 -0.3694 -0.4995
  158SAPE   H6Y17701  -0.272   6.536   8.969 -0.8393 -0.3191 -0.9049
  158SAPE   C3717702  -0.173   6.571   8.795  0.1701 -0.2686 -0.2991
  158SAPE   H7X17703  -0.211   6.468   8.775 -0.2173  0.3628 -2.9634
  158SAPE   H7Y17704  -0.072   6.600   8.759 -0.3377  2.1055  0.1305
  158SAPE   C3817705  -0.262   6.662   8.705 -0.1625 -0.4855  0.1497
  158SAPE   H8X17706  -0.230   6.768   8.714  1.2863 -0.7150 -1.8797
  158SAPE   H8Y17707  -0.366   6.665   8.745  0.0089 -1.6374  0.7070
  158SAPE   C3917708  -0.273   6.623   8.561  0.3333 -0.5825  0.1700
  158SAPE   H9X17709  -0.333   6.697   8.504 -0.4891 -2.3088 -1.2149
  158SAPE   H9Y17710  -0.315   6.521   8.554 -0.9032 -0.1130  0.6764
  158SAPE  C31017711  -0.135   6.601   8.491 -0.1506 -0.6589 -0.0099
  158SAPE  H10X17712  -0.076   6.518   8.533 -1.2760 -2.4515 -1.8900
  158SAPE  H10Y17713  -0.088   6.702   8.501 -1.7932  0.0762  0.4976
  158SAPE  C31117714  -0.168   6.571   8.345 -0.1956  0.4618  0.0517
  158SAPE  H11X17715  -0.238   6.648   8.306 -1.1039 -1.0823 -1.4405
  158SAPE  H11Y17716  -0.220   6.475   8.327 -1.3616  1.1571 -0.2991
  158SAPE  C31217717  -0.047   6.576   8.242 -0.4721  0.8363 -0.1707
  158SAPE  H12X17718   0.027   6.650   8.280 -0.1326  0.6943 -0.5488
  158SAPE  H12Y17719  -0.098   6.609   8.149  1.4937 -1.4389 -2.1146
  158SAPE  C31317720   0.023   6.437   8.212 -0.1151  1.1415 -0.0797
  158SAPE  H13X17721  -0.059   6.369   8.180  0.8759  0.0175 -0.2915
  158SAPE  H13Y17722   0.066   6.402   8.308  0.6172 -1.1278 -1.1879
  158SAPE  C31417723   0.120   6.454   8.094  0.2687 -0.1282 -0.7131
  158SAPE  H14X17724   0.213   6.503   8.130  1.1991 -2.1826 -0.2454
  158SAPE  H14Y17725   0.075   6.516   8.013 -0.1895  0.1411 -0.2508
  158SAPE  C31517726   0.163   6.322   8.028  0.8418  0.5679  0.0594
  158SAPE  H15X17727   0.068   6.269   8.007 -0.1262  2.9736 -1.6765
  158SAPE  H15Y17728   0.233   6.263   8.093  0.9455  0.4573 -0.1509
  158SAPE  C31617729   0.235   6.352   7.894  0.4745  0.2810  0.2316
  158SAPE  H16X17730   0.330   6.402   7.923  0.9536 -1.0380  0.9872
  158SAPE  H16Y17731   0.175   6.428   7.839 -3.4978 -2.5536  0.4897
  158SAPE  C31717732   0.270   6.226   7.809 -0.2349 -0.4930  0.0700
  158SAPE  H17X17733   0.182   6.176   7.764  0.7636 -1.4538 -0.8388
  158SAPE  H17Y17734   0.311   6.154   7.883 -1.5916 -0.5159  0.8158
  158SAPE  C31817735   0.377   6.251   7.700  0.1744 -0.5729  0.5697
  158SAPE  H18X17736   0.342   6.335   7.635 -0.2281  0.4898  2.1354
  158SAPE  H18Y17737   0.389   6.159   7.639 -2.6994  0.7628 -2.1550
  158SAPE  H18Z17738   0.469   6.283   7.753  0.1248 -1.1243  0.9866
  159SAPE     N17739   3.667   2.713   5.759 -0.3727  0.3501 -0.2144
  159SAPE   HN117740   3.729   2.634   5.733  1.2363  2.1307 -1.9236
  159SAPE   HN217741   3.600   2.668   5.825 -0.3242 -0.9189 -1.0048
  159SAPE   HN317742   3.604   2.738   5.680  0.3671 -0.3073 -1.0207
  159SAPE   C1217743   3.739   2.835   5.819 -0.0706  0.1310 -0.5737
  159SAPE  H12A17744   3.838   2.837   5.769 -0.4855  1.9759 -1.3472
  159SAPE  H12B17745   3.756   2.812   5.927  1.6817  1.5265 -0.5359
  159SAPE   C1117746   3.667   2.964   5.790  0.6295  0.4312  0.0821
  159SAPE  H11A17747   3.681   3.001   5.686 -0.0136 -1.2817 -0.6423
  159SAPE  H11B17748   3.709   3.044   5.854 -1.8340  1.0810  0.9268
  159SAPE     P17749   3.473   2.999   5.968  0.3256  0.4432 -0.1250
  159SAPE   O1317750   3.450   3.145   5.949  0.1167  0.0506  0.5958
  159SAPE   O1417751   3.350   2.922   6.009 -0.3972  0.1529 -0.3818
  159SAPE   O1217752   3.520   2.947   5.825  0.4264 -1.1729 -0.3455
  159SAPE   O1117753   3.587   2.968   6.080  0.2765  0.0103  0.7576
  159SAPE    C117754   3.542   2.968   6.219 -0.0573  0.1088 -0.7552
  159SAPE    HA17755   3.610   3.035   6.275 -1.1668  0.2323  0.4521
  159SAPE    HB17756   3.439   3.011   6.225 -0.7955 -1.3873 -2.1222
  159SAPE    C217757   3.551   2.819   6.275 -0.4030  0.1663  0.8346
  159SAPE    HS17758   3.489   2.752   6.212  0.8081 -1.8547  1.7675
  159SAPE   O2117759   3.491   2.816   6.408 -0.3004  0.0158 -0.5581
  159SAPE   C2117760   3.461   2.690   6.446  0.2248  0.3228 -0.1971
  159SAPE   O2217761   3.471   2.596   6.375 -0.5662 -0.2566 -0.3375
  159SAPE   C2217762   3.419   2.689   6.593 -0.1855  0.7306 -0.7652
  159SAPE   H2R17763   3.419   2.581   6.617 -0.3391  0.2706 -2.7909
  159SAPE   H2S17764   3.506   2.737   6.644 -1.4720  1.3535  0.9049
  159SAPE    C317765   3.705   2.775   6.275 -0.2345  0.3875 -0.3905
  159SAPE    HX17766   3.739   2.763   6.170  0.7823  1.1737 -0.1603
  159SAPE    HY17767   3.724   2.683   6.334  2.2034  1.7356  0.9886
  159SAPE   O3117768   3.790   2.882   6.331  0.6114 -0.5938  0.2906
  159SAPE   C3117769   3.814   2.873   6.465  0.1684 -0.3461 -0.1005
  159SAPE   O3217770   3.802   2.776   6.533  0.5157 -0.8583  0.0392
  159SAPE   C3217771   3.849   3.014   6.520 -0.1224 -0.2395 -0.0735
  159SAPE   H2X17772   3.897   3.072   6.438 -0.3636  0.0263 -0.0260
  159SAPE   H2Y17773   3.914   2.997   6.609  1.8343  1.1200 -1.2023
  159SAPE   C2317774   3.288   2.773   6.620 -0.0438 -0.4050 -0.3293
  159SAPE   H3R17775   3.199   2.713   6.590 -0.4056  0.4803 -1.0307
  159SAPE   H3S17776   3.285   2.862   6.554 -0.0242  0.4074  0.7689
  159SAPE   C2417777   3.278   2.819   6.764 -0.4441 -0.5074 -0.2786
  159SAPE   H4R17778   3.270   2.732   6.834 -2.7835 -0.4037 -0.3734
  159SAPE   H4S17779   3.181   2.872   6.774 -0.9954 -1.3135 -1.2617
  159SAPE   C2517780   3.384   2.920   6.802 -0.0269  0.3922 -0.4396
  159SAPE   H5R17781   3.372   3.016   6.749  0.4996  0.3182 -0.6981
  159SAPE   C2617782   3.480   2.904   6.894  0.4340  0.0224 -0.2712
  159SAPE   H6R17783   3.552   2.985   6.913  0.9562 -1.0146  2.3149
  159SAPE   C2717784   3.503   2.777   6.968  0.5457 -0.5262  0.2908
  159SAPE   H7R17785   3.506   2.690   6.899  3.2209  1.4900 -2.2744
  159SAPE   H7S17786   3.421   2.753   7.039  0.0291  0.9424  0.2102
  159SAPE   C2817787   3.636   2.787   7.039  0.2969  0.2508  0.2970
  159SAPE   H8R17788   3.723   2.802   6.974  0.4831 -0.3815  0.4066
  159SAPE   C2917789   3.656   2.770   7.174  0.1494  0.3209  0.1554
  159SAPE   H9R17790   3.762   2.765   7.200  0.3512 -0.0945 -0.7214
  159SAPE  C21017791   3.559   2.744   7.286  0.2038 -0.2032  0.0667
  159SAPE  H10R17792   3.462   2.706   7.248  0.8109 -2.8088  1.0540
  159SAPE  H10S17793   3.528   2.844   7.323 -0.7508  0.5317 -2.6041
  159SAPE  C21117794   3.617   2.660   7.396 -0.1383 -1.0146  0.7754
  159SAPE  H11R17795   3.585   2.555   7.405 -1.3287 -0.7358 -0.1070
  159SAPE  C21217796   3.687   2.693   7.497  0.2197  0.2874 -0.9264
  159SAPE  H12R17797   3.735   2.613   7.554  0.3547  1.3339  0.4557
  159SAPE  C21317798   3.747   2.828   7.539  0.0146 -0.6405  0.1954
  159SAPE  H13R17799   3.686   2.911   7.496 -0.7238  0.1236  2.6483
  159SAPE  H13S17800   3.854   2.833   7.508 -0.8069  1.2706 -2.5830
  159SAPE  C21417801   3.722   2.841   7.689 -0.0720  0.1213  0.6078
  159SAPE  H14R17802   3.619   2.821   7.722 -0.2223 -0.4745 -0.2038
  159SAPE  C21517803   3.820   2.889   7.769 -0.0390  0.7880 -0.1588
  159SAPE  H15R17804   3.797   2.907   7.875  1.7865 -0.1877  0.4310
  159SAPE  C21617805   3.953   2.931   7.739  1.5230 -0.4562  0.2496
  159SAPE  H16R17806   3.974   3.017   7.807 -1.4150  0.4077  0.1349
  159SAPE  H16S17807   3.961   2.975   7.637  0.1011 -1.8427 -0.4847
  159SAPE  C21717808   4.053   2.817   7.760 -0.7449  0.4599 -0.0864
  159SAPE  H17R17809   4.018   2.736   7.692 -0.8523  1.3377 -1.0905
  159SAPE  H17S17810   4.050   2.775   7.863  0.0971  1.2361  0.2623
  159SAPE  C21817811   4.200   2.859   7.731  0.0073  0.5777  0.0362
  159SAPE  H18R17812   4.196   2.940   7.656 -0.5022 -2.3094 -3.2176
  159SAPE  H18S17813   4.243   2.768   7.683 -0.1736 -0.0388  1.0157
  159SAPE  C21917814   4.277   2.897   7.857 -0.4684 -0.4241  0.9781
  159SAPE  H19R17815   4.284   2.806   7.919  1.6113 -1.1695 -0.3019
  159SAPE  H19S17816   4.219   2.968   7.920  1.3191 -0.2949  2.5126
  159SAPE  C22017817   4.420   2.939   7.811  0.1961 -0.1452 -0.6102
  159SAPE  H20R17818   4.486   2.948   7.901 -0.2002 -0.1296 -0.3205
  159SAPE  H20S17819   4.420   3.028   7.745  2.3556 -0.5835 -1.2642
  159SAPE  H20T17820   4.469   2.855   7.756  0.6520 -0.7981  0.7604
  159SAPE   C3317821   3.724   3.097   6.561  0.0076  0.7353  0.3443
  159SAPE   H3X17822   3.644   3.029   6.597  1.0094 -1.4385 -1.4599
  159SAPE   H3Y17823   3.679   3.150   6.474 -1.0679 -0.8717 -0.0954
  159SAPE   C3417824   3.750   3.209   6.665  0.1993 -0.1323  0.2608
  159SAPE   H4X17825   3.662   3.277   6.659 -1.0519 -1.6124  1.2295
  159SAPE   H4Y17826   3.842   3.258   6.626  1.2708 -1.5225  1.0149
  159SAPE   C3517827   3.773   3.161   6.803  0.2114  0.4006  0.6594
  159SAPE   H5X17828   3.851   3.083   6.813 -1.5665 -1.4912  0.1720
  159SAPE   H5Y17829   3.674   3.129   6.841  0.0578  1.6080  1.3034
  159SAPE   C3617830   3.811   3.273   6.904 -0.0908 -0.5832  0.4822
  159SAPE   H6X17831   3.722   3.340   6.912  0.2532 -0.0319 -0.2184
  159SAPE   H6Y17832   3.901   3.334   6.883  0.6418 -0.7852  2.8468
  159SAPE   C3717833   3.830   3.214   7.044  0.1853  0.0645  0.7978
  159SAPE   H7X17834   3.932   3.173   7.059  0.3271  1.1276  2.9640
  159SAPE   H7Y17835   3.752   3.136   7.055 -0.8691  0.3294 -3.8503
  159SAPE   C3817836   3.813   3.313   7.159  0.1839  0.1062 -0.3012
  159SAPE   H8X17837   3.714   3.364   7.164 -0.6948 -1.0500 -4.1719
  159SAPE   H8Y17838   3.882   3.397   7.136  3.1520 -1.8525  1.2227
  159SAPE   C3917839   3.848   3.244   7.292 -0.4277 -0.1882 -0.2542
  159SAPE   H9X17840   3.952   3.204   7.285 -0.2313 -0.0793  1.7166
  159SAPE   H9Y17841   3.778   3.158   7.291  0.8736 -1.2664 -2.2908
  159SAPE  C31017842   3.834   3.338   7.417  0.5274  0.1674  0.5181
  159SAPE  H10X17843   3.725   3.357   7.431  0.7331  1.0695  0.9353
  159SAPE  H10Y17844   3.894   3.432   7.412  2.4520 -1.1005 -0.6265
  159SAPE  C31117845   3.888   3.273   7.540 -0.4824  0.3795  0.3811
  159SAPE  H11X17846   3.989   3.227   7.530 -1.0317 -0.8581  0.3726
  159SAPE  H11Y17847   3.825   3.184   7.563 -0.2732  0.0035 -0.4556
  159SAPE  C31217848   3.901   3.373   7.655 -0.2641 -0.4712  0.0478
  159SAPE  H12X17849   3.801   3.422   7.658 -0.1761  0.0309 -3.0545
  159SAPE  H12Y17850   3.972   3.454   7.629  0.0713 -0.1248  1.9936
  159SAPE  C31317851   3.925   3.314   7.791 -0.0154  0.2908  0.6306
  159SAPE  H13X17852   4.027   3.271   7.798  1.2295  2.9963 -0.3657
  159SAPE  H13Y17853   3.861   3.223   7.790  0.8118 -0.3015  0.3790
  159SAPE  C31417854   3.901   3.410   7.911 -0.1423  0.0281 -0.0892
  159SAPE  H14X17855   3.901   3.345   8.000  0.5149 -0.2490 -0.2868
  159SAPE  H14Y17856   3.799   3.453   7.900  0.3425  0.9663 -1.1201
  159SAPE  C31517857   4.011   3.515   7.910 -0.3143 -0.3143 -1.2299
  159SAPE  H15X17858   3.998   3.577   7.819 -1.6958  0.2330 -0.6682
  159SAPE  H15Y17859   4.110   3.465   7.899  0.0069  0.3868 -1.5712
  159SAPE  C31617860   4.003   3.610   8.033  0.0893 -0.4460 -0.2617
  159SAPE  H16X17861   3.969   3.544   8.116  2.4176 -1.3040  0.0786
  159SAPE  H16Y17862   3.935   3.694   8.011  0.8592 -0.0946 -1.3722
  159SAPE  C31717863   4.137   3.674   8.067 -0.0785 -0.0415 -0.3099
  159SAPE  H17X17864   4.129   3.735   8.160  1.6337 -1.1591  0.5908
  159SAPE  H17Y17865   4.167   3.742   7.984 -0.3426 -0.1175 -0.4694
  159SAPE  C31817866   4.260   3.587   8.079  0.0661  0.1351  0.1276
  159SAPE  H18X17867   4.231   3.487   8.118 -1.6429  1.0803  1.3514
  159SAPE  H18Y17868   4.350   3.634   8.126  0.9231  0.0780 -1.4197
  159SAPE  H18Z17869   4.294   3.559   7.977 -0.0063  0.1913  0.0888
  160SAPE     N17870   3.020   4.205   5.937 -0.0247 -1.2181  0.4143
  160SAPE   HN117871   2.920   4.217   5.913 -0.2328  1.4260  2.4123
  160SAPE   HN217872   3.032   4.251   6.029 -1.3389 -0.0177  0.0090
  160SAPE   HN317873   3.071   4.271   5.873 -0.4304 -0.8876  0.4275
  160SAPE   C1217874   3.056   4.065   5.930 -0.2488  0.6636  0.9287
  160SAPE  H12A17875   3.165   4.050   5.949  0.0518  0.6106 -0.7936
  160SAPE  H12B17876   3.020   4.023   5.834  1.0830  1.7717 -0.0716
  160SAPE   C1117877   2.970   4.002   6.038  0.1667 -0.9907 -0.1794
  160SAPE  H11A17878   2.990   4.044   6.139 -0.5621 -1.0411 -0.0120
  160SAPE  H11B17879   3.005   3.896   6.040  0.9738 -0.7396 -0.6585
  160SAPE     P17880   2.745   3.915   5.927 -0.0893 -0.1017  0.3298
  160SAPE   O1317881   2.703   3.971   5.794  0.2042  0.1144 -0.8462
  160SAPE   O1417882   2.824   3.787   5.918 -0.4898 -0.1118 -0.3437
  160SAPE   O1217883   2.835   4.020   6.001  0.4902 -0.7448  0.3919
  160SAPE   O1117884   2.617   3.896   6.012  0.0135 -0.3131 -0.2312
  160SAPE    C117885   2.608   3.789   6.110  0.3522 -0.0656 -0.2197
  160SAPE    HA17886   2.504   3.763   6.137 -0.2664  1.5343 -0.9822
  160SAPE    HB17887   2.666   3.698   6.083  0.1109 -0.2604 -0.0875
  160SAPE    C217888   2.635   3.839   6.254 -0.5843 -0.6074  0.3317
  160SAPE    HS17889   2.572   3.779   6.323  1.6206 -3.7136 -0.2566
  160SAPE   O2117890   2.625   3.984   6.267 -0.9775  0.6543 -0.4834
  160SAPE   C2117891   2.505   4.034   6.251  0.3258  0.2490  0.2090
  160SAPE   O2217892   2.401   3.970   6.255 -0.0486  0.4271  0.5730
  160SAPE   C2217893   2.512   4.188   6.226  0.1451 -0.5559 -0.1589
  160SAPE   H2R17894   2.585   4.199   6.143  1.2438 -0.8113  0.7722
  160SAPE   H2S17895   2.411   4.225   6.198 -0.4552 -0.9057  1.4877
  160SAPE    C317896   2.775   3.802   6.293  0.6202  0.1773  0.4924
  160SAPE    HX17897   2.845   3.858   6.227 -1.4212  2.2056  0.0060
  160SAPE    HY17898   2.783   3.694   6.269  0.6491  0.4753 -0.9085
  160SAPE   O3117899   2.804   3.824   6.434  0.3576 -0.1597  0.3120
  160SAPE   C3117900   2.936   3.828   6.467  0.7962 -0.2831  0.4791
  160SAPE   O3217901   3.028   3.798   6.399 -0.1472  0.4164  0.5773
  160SAPE   C3217902   2.949   3.894   6.604 -0.1805  0.0464 -0.1284
  160SAPE   H2X17903   2.886   3.836   6.674  0.8219  1.6204  2.1386
  160SAPE   H2Y17904   2.897   3.991   6.588 -2.1372 -0.8696  0.5295
  160SAPE   C2317905   2.555   4.275   6.347 -0.4486 -0.3913 -1.2311
  160SAPE   H3R17906   2.593   4.368   6.300  0.7700 -0.2233  0.0511
  160SAPE   H3S17907   2.639   4.230   6.404  0.2148  0.9919 -1.0948
  160SAPE   C2417908   2.445   4.323   6.448  0.1982 -0.4724  0.1197
  160SAPE   H4R17909   2.382   4.389   6.385  0.8615 -0.2070 -0.2756
  160SAPE   H4S17910   2.486   4.379   6.535  1.5652 -0.6578 -0.3894
  160SAPE   C2517911   2.369   4.196   6.491  0.0151  0.1534  0.4598
  160SAPE   H5R17912   2.294   4.151   6.424  0.9124  0.3589 -0.7104
  160SAPE   C2617913   2.397   4.123   6.601 -1.0930 -0.1637 -0.4290
  160SAPE   H6R17914   2.332   4.034   6.609  1.3596 -1.8477  1.3844
  160SAPE   C2717915   2.493   4.154   6.717 -0.1118  0.7559  0.3418
  160SAPE   H7R17916   2.436   4.184   6.808 -1.5238 -0.1544 -0.2163
  160SAPE   H7S17917   2.554   4.239   6.680  2.1246 -0.9309  0.0833
  160SAPE   C2817918   2.576   4.032   6.750  0.5978 -0.1835  0.6674
  160SAPE   H8R17919   2.608   3.968   6.666  1.7218  0.2309  0.7751
  160SAPE   C2917920   2.627   4.013   6.881 -0.0509 -0.6483 -0.1572
  160SAPE   H9R17921   2.667   3.913   6.903  1.0048  0.2550  2.1913
  160SAPE  C21017922   2.603   4.109   6.996 -0.8766 -0.9532 -0.6132
  160SAPE  H10R17923   2.505   4.088   7.043 -0.1256 -0.5544  1.1692
  160SAPE  H10S17924   2.572   4.208   6.954 -0.1680 -0.0827  0.8863
  160SAPE  C21117925   2.711   4.144   7.094 -0.5019  0.1086  0.2266
  160SAPE  H11R17926   2.797   4.203   7.057  0.7794 -1.8406  0.0497
  160SAPE  C21217927   2.715   4.114   7.228 -0.0441 -0.0475  0.1444
  160SAPE  H12R17928   2.800   4.140   7.292  0.9986  1.4236 -1.7605
  160SAPE  C21317929   2.615   4.040   7.306 -0.8153  0.4335 -0.2105
  160SAPE  H13R17930   2.537   3.994   7.241  0.8274 -1.2826 -1.0230
  160SAPE  H13S17931   2.566   4.113   7.374  1.3597  1.7575 -0.0189
  160SAPE  C21417932   2.673   3.925   7.392  0.1197 -0.0058  0.3284
  160SAPE  H14R17933   2.686   3.827   7.344 -1.0549 -0.7191  1.4170
  160SAPE  C21517934   2.715   3.932   7.517  0.3835 -0.9674 -0.3739
  160SAPE  H15R17935   2.732   3.835   7.566  0.0080 -1.5195 -1.3204
  160SAPE  C21617936   2.715   4.058   7.607 -0.4606 -0.5503  0.2145
  160SAPE  H16R17937   2.680   4.147   7.552 -1.4071  0.4584  2.4025
  160SAPE  H16S17938   2.819   4.070   7.644 -0.4376  0.3331 -0.1228
  160SAPE  C21717939   2.627   4.053   7.726  0.5562 -0.7151  0.3644
  160SAPE  H17R17940   2.642   4.147   7.784  1.2406 -0.0742 -0.8067
  160SAPE  H17S17941   2.652   3.963   7.786 -1.3953 -2.1470 -0.9142
  160SAPE  C21817942   2.482   4.051   7.682 -0.4284 -0.4212 -0.0259
  160SAPE  H18R17943   2.459   3.954   7.632  0.6928 -0.5699 -0.2824
  160SAPE  H18S17944   2.460   4.128   7.605  0.0401 -1.8265 -1.6081
  160SAPE  C21917945   2.388   4.064   7.795 -0.0671  0.3812 -0.5859
  160SAPE  H19R17946   2.429   4.148   7.855  1.8350 -0.4351 -0.7068
  160SAPE  H19S17947   2.391   3.977   7.864 -1.8453  1.7823  1.3216
  160SAPE  C22017948   2.244   4.092   7.771 -0.3748  0.2022 -0.2296
  160SAPE  H20R17949   2.189   4.113   7.865  1.1005 -1.7462  1.1011
  160SAPE  H20S17950   2.181   4.007   7.737  1.2926 -1.1275 -0.0304
  160SAPE  H20T17951   2.224   4.178   7.702 -2.3922  1.4291  1.8249
  160SAPE   C3317952   3.092   3.900   6.667 -0.6672  0.0102  0.0006
  160SAPE   H3X17953   3.165   3.966   6.616 -0.6480  0.5163  0.6776
  160SAPE   H3Y17954   3.141   3.800   6.661 -0.3432  0.1214  0.7057
  160SAPE   C3417955   3.083   3.950   6.817  0.1424  0.0818 -0.7527
  160SAPE   H4X17956   3.011   4.034   6.822  0.6971  0.4554  1.5845
  160SAPE   H4Y17957   3.183   3.992   6.838 -0.2184  0.7356 -0.3385
  160SAPE   C3517958   3.041   3.846   6.926  0.4445 -0.0635  0.4133
  160SAPE   H5X17959   3.113   3.762   6.915  0.1709 -0.2092 -0.2519
  160SAPE   H5Y17960   2.936   3.813   6.914 -0.1425  1.2874  1.7086
  160SAPE   C3617961   3.026   3.907   7.064 -0.3240 -0.7300 -0.6527
  160SAPE   H6X17962   2.977   3.823   7.117  2.0212 -0.2907  2.3565
  160SAPE   H6Y17963   2.961   3.997   7.055 -0.0178 -0.4026  0.4045
  160SAPE   C3717964   3.158   3.939   7.131  0.2661  0.0496  0.6951
  160SAPE   H7X17965   3.211   4.022   7.080 -0.4850  1.0286  1.4904
  160SAPE   H7Y17966   3.220   3.847   7.127 -1.4212 -1.0601 -0.3895
  160SAPE   C3817967   3.144   4.010   7.269 -0.0670  0.8326  0.5618
  160SAPE   H8X17968   3.069   4.092   7.276  1.8901  2.5915  1.3248
  160SAPE   H8Y17969   3.243   4.047   7.302  0.3407  1.2792 -1.1579
  160SAPE   C3917970   3.090   3.928   7.390  0.0664 -0.3225  0.2254
  160SAPE   H9X17971   3.159   3.850   7.427 -0.3996 -0.9420 -0.1929
  160SAPE   H9Y17972   2.995   3.874   7.366  1.3551 -1.8557 -1.5527
  160SAPE  C31017973   3.072   4.022   7.505  0.5218 -0.1510  0.2155
  160SAPE  H10X17974   2.984   4.088   7.489 -0.3563 -1.2466  0.4130
  160SAPE  H10Y17975   3.163   4.084   7.516  1.3530 -1.1593 -0.7362
  160SAPE  C31117976   3.068   3.955   7.649  0.0251  0.3127 -0.8104
  160SAPE  H11X17977   3.148   3.878   7.648 -0.9997 -0.7746 -0.4401
  160SAPE  H11Y17978   2.972   3.904   7.671  0.0351  1.4953  2.3268
  160SAPE  C31217979   3.108   4.054   7.756  0.0194  0.2218 -0.7723
  160SAPE  H12X17980   3.032   4.135   7.758 -0.9468 -0.6818 -0.2516
  160SAPE  H12Y17981   3.208   4.098   7.741  0.1587 -0.1306 -0.8876
  160SAPE  C31317982   3.118   3.989   7.894 -0.3248  0.9779 -0.2934
  160SAPE  H13X17983   3.195   3.909   7.889 -0.5192  0.8247 -0.8970
  160SAPE  H13Y17984   3.020   3.939   7.908  0.0517 -0.2715 -1.8990
  160SAPE  C31417985   3.150   4.085   8.012 -0.4171 -0.2593  0.3250
  160SAPE  H14X17986   3.055   4.138   8.033 -1.7940 -2.3269 -0.5004
  160SAPE  H14Y17987   3.228   4.153   7.972  0.3211 -0.7229  0.9479
  160SAPE  C31517988   3.202   4.014   8.134 -0.2257 -0.0622 -0.0028
  160SAPE  H15X17989   3.218   4.085   8.217 -1.2501 -0.3054  0.4112
  160SAPE  H15Y17990   3.296   3.963   8.102 -2.0493 -2.8819 -1.1416
  160SAPE  C31617991   3.101   3.914   8.203 -0.4991 -0.2905  0.0163
  160SAPE  H16X17992   3.081   3.822   8.143  0.7083  0.5672 -1.7423
  160SAPE  H16Y17993   3.003   3.965   8.196 -0.1098  0.1194 -3.3595
  160SAPE  C31717994   3.134   3.879   8.346 -0.0511 -0.2247 -0.1639
  160SAPE  H17X17995   3.147   3.966   8.413  1.7801 -0.5771 -0.0173
  160SAPE  H17Y17996   3.236   3.835   8.339  0.7889  2.0103 -3.3711
  160SAPE  C31817997   3.039   3.772   8.398  0.6256 -0.3251  0.2784
  160SAPE  H18X17998   3.020   3.684   8.334  2.0500  0.2776 -1.0026
  160SAPE  H18Y17999   2.938   3.813   8.418  0.0758 -1.7978  0.6246
  160SAPE  H18Z18000   3.074   3.735   8.497  0.8938 -0.3416  0.1795
  161SAPE     N18001   3.141   2.023   5.855  0.0935 -0.1237  0.3051
  161SAPE   HN118002   3.165   2.048   5.757 -2.5595 -1.1431 -0.6568
  161SAPE   HN218003   3.073   1.946   5.841  0.5219 -0.1480 -1.8206
  161SAPE   HN318004   3.105   2.112   5.897  3.4095  0.6135  1.7410
  161SAPE   C1218005   3.265   1.960   5.912 -0.5874 -0.3899  0.9289
  161SAPE  H12A18006   3.318   1.909   5.829 -0.9647  0.3879  0.1937
  161SAPE  H12B18007   3.232   1.899   5.998 -0.1052 -2.0689 -0.0619
  161SAPE   C1118008   3.350   2.064   5.982  0.1581  0.4701  0.2252
  161SAPE  H11A18009   3.272   2.101   6.052 -1.9080 -1.0099 -1.2491
  161SAPE  H11B18010   3.381   2.142   5.909 -0.8851  0.7000  0.0230
  161SAPE     P18011   3.599   1.993   5.976  0.0199 -0.1041 -0.1400
  161SAPE   O1318012   3.581   1.895   5.868 -0.4484 -0.0911 -0.1274
  161SAPE   O1418013   3.649   2.122   5.932  0.3527  0.0723 -0.5097
  161SAPE   O1218014   3.459   2.004   6.059 -0.1045  0.0320  0.1818
  161SAPE   O1118015   3.704   1.927   6.074  0.7733  0.0596 -0.1478
  161SAPE    C118016   3.726   1.951   6.209  0.2868  0.0172  0.2102
  161SAPE    HA18017   3.630   1.939   6.264  0.2245  0.2141  0.1445
  161SAPE    HB18018   3.797   1.877   6.251 -2.0669 -1.6811  1.3011
  161SAPE    C218019   3.789   2.087   6.242  0.3067  0.0954 -0.2324
  161SAPE    HS18020   3.827   2.087   6.346 -1.9047 -1.6376  0.6306
  161SAPE   O2118021   3.688   2.188   6.224 -0.7370  0.4040  0.0304
  161SAPE   C2118022   3.596   2.203   6.313 -0.0044  0.3634 -0.5459
  161SAPE   O2218023   3.593   2.152   6.424  0.2565 -0.6449  0.7623
  161SAPE   C2218024   3.480   2.286   6.260 -0.8584 -0.4374 -0.3737
  161SAPE   H2R18025   3.518   2.385   6.228  1.6168 -1.6411 -1.3209
  161SAPE   H2S18026   3.446   2.219   6.178 -1.8675 -2.5928  1.7374
  161SAPE    C318027   3.910   2.112   6.153 -0.1301 -0.0968 -0.1560
  161SAPE    HX18028   3.874   2.107   6.048  1.9133  0.7061 -0.9197
  161SAPE    HY18029   3.978   2.025   6.166 -0.3673 -0.2234  0.2409
  161SAPE   O3118030   3.964   2.242   6.175 -0.5052  0.9129  0.2826
  161SAPE   C3118031   4.065   2.252   6.265  0.2845 -0.2769  0.5685
  161SAPE   O3218032   4.135   2.162   6.303  0.1887 -0.4302  0.1881
  161SAPE   C3218033   4.080   2.404   6.304  0.6402 -0.0198 -0.2227
  161SAPE   H2X18034   3.981   2.454   6.298 -0.0544 -1.3509  0.0010
  161SAPE   H2Y18035   4.147   2.450   6.227  0.6421 -0.3996 -0.4552
  161SAPE   C2318036   3.366   2.294   6.357  0.0939 -0.1050  0.5530
  161SAPE   H3R18037   3.402   2.346   6.448 -1.1319  2.5834 -0.4432
  161SAPE   H3S18038   3.347   2.187   6.380  1.8386 -0.9449 -1.7134
  161SAPE   C2418039   3.236   2.355   6.292 -0.2256 -1.2539  0.3978
  161SAPE   H4R18040   3.240   2.299   6.196 -0.8075  2.6850 -2.0422
  161SAPE   H4S18041   3.245   2.463   6.268 -0.6736 -0.6239  2.8532
  161SAPE   C2518042   3.106   2.334   6.365 -0.1759 -1.1279  0.1228
  161SAPE   H5R18043   3.027   2.296   6.299  0.2740 -2.2101  0.1937
  161SAPE   C2618044   3.079   2.354   6.495  0.0878  0.0386  0.8187
  161SAPE   H6R18045   2.980   2.325   6.534 -0.8774 -2.3073 -3.1260
  161SAPE   C2718046   3.168   2.415   6.599 -0.1467 -0.0918  0.4642
  161SAPE   H7R18047   3.114   2.496   6.652  0.5088  1.3873 -1.0781
  161SAPE   H7S18048   3.241   2.476   6.541 -0.1260  0.5971  1.2157
  161SAPE   C2818049   3.249   2.327   6.688  0.4690 -0.6139 -0.0423
  161SAPE   H8R18050   3.295   2.241   6.637  0.1333 -1.3611  0.9184
  161SAPE   C2918051   3.248   2.322   6.820 -0.6005  0.2692 -0.4473
  161SAPE   H9R18052   3.292   2.232   6.866 -1.9983  0.0189  0.4391
  161SAPE  C21018053   3.174   2.416   6.919 -0.0083  0.8822  0.8611
  161SAPE  H10R18054   3.085   2.373   6.970 -0.5804  2.1918  0.9714
  161SAPE  H10S18055   3.131   2.491   6.850  0.8751 -0.3095 -1.0481
  161SAPE  C21118056   3.252   2.480   7.031 -0.0868  0.1355  0.0221
  161SAPE  H11R18057   3.305   2.573   7.006 -0.2225  0.8710  2.3716
  161SAPE  C21218058   3.260   2.437   7.157  0.6504  0.4063 -0.3119
  161SAPE  H12R18059   3.323   2.480   7.236 -0.0940  1.6063 -0.3668
  161SAPE  C21318060   3.184   2.309   7.196  0.1449 -0.2381 -0.9879
  161SAPE  H13R18061   3.165   2.227   7.124 -0.8958 -1.4755  0.6603
  161SAPE  H13S18062   3.083   2.351   7.217 -0.1229 -0.8052 -1.1527
  161SAPE  C21418063   3.248   2.257   7.323 -0.4612 -0.4300  0.0014
  161SAPE  H14R18064   3.337   2.194   7.304  0.0892  0.4002 -0.2238
  161SAPE  C21518065   3.215   2.281   7.452  0.6251  0.5098 -0.3948
  161SAPE  H15R18066   3.278   2.239   7.532  1.0234 -0.3119 -1.1287
  161SAPE  C21618067   3.101   2.372   7.503  0.3907 -0.0077 -0.1795
  161SAPE  H16R18068   3.015   2.312   7.541  0.4408  0.9180  1.4168
  161SAPE  H16S18069   3.052   2.439   7.430  1.3039  0.5369 -0.2988
  161SAPE  C21718070   3.133   2.457   7.633  0.3044  0.5740 -0.1906
  161SAPE  H17R18071   3.057   2.537   7.651  0.3006  0.3263  0.9413
  161SAPE  H17S18072   3.233   2.505   7.627  1.6519 -2.1614 -0.1522
  161SAPE  C21818073   3.150   2.377   7.756  0.3736 -0.4565 -0.1849
  161SAPE  H18R18074   3.180   2.447   7.837 -1.1657  0.3260 -0.2824
  161SAPE  H18S18075   3.233   2.305   7.737 -0.4256 -1.3017 -0.5303
  161SAPE  C21918076   3.023   2.308   7.804  0.0359 -0.7757  0.6641
  161SAPE  H19R18077   2.973   2.248   7.725  1.5180  0.2558 -1.0869
  161SAPE  H19S18078   2.961   2.394   7.836 -0.8364 -1.2522  0.2870
  161SAPE  C22018079   3.050   2.209   7.918 -0.2738 -0.1812 -0.4531
  161SAPE  H20R18080   3.117   2.257   7.992  1.2623  0.4014 -2.1861
  161SAPE  H20S18081   3.098   2.115   7.884  0.7659  0.7471 -1.6118
  161SAPE  H20T18082   2.951   2.186   7.961 -0.4730 -0.0581 -0.8364
  161SAPE   C3318083   4.154   2.419   6.438  0.1973  0.3831 -0.7273
  161SAPE   H3X18084   4.179   2.525   6.458 -1.8590  0.4595  1.6959
  161SAPE   H3Y18085   4.254   2.371   6.442 -0.3427 -0.8374 -1.4138
  161SAPE   C3418086   4.073   2.382   6.565  0.1349 -0.0269 -0.1105
  161SAPE   H4X18087   4.136   2.388   6.656 -1.9172 -0.8269  1.3808
  161SAPE   H4Y18088   4.040   2.277   6.551  1.5515 -0.3682 -1.0572
  161SAPE   C3518089   3.950   2.475   6.573  0.3453  0.4052  0.0134
  161SAPE   H5X18090   3.877   2.464   6.490  1.8245 -2.6136 -0.9529
  161SAPE   H5Y18091   3.989   2.577   6.551 -0.0494  1.1126  2.4547
  161SAPE   C3618092   3.869   2.480   6.704 -1.1460  0.0182 -0.0097
  161SAPE   H6X18093   3.808   2.572   6.698 -0.4130  0.4256 -1.4788
  161SAPE   H6Y18094   3.942   2.488   6.788 -2.4573 -1.7027  1.3169
  161SAPE   C3718095   3.776   2.358   6.714 -0.3292 -0.7574  0.6849
  161SAPE   H7X18096   3.832   2.265   6.736 -1.4935 -1.9380 -1.2155
  161SAPE   H7Y18097   3.722   2.345   6.618 -0.7788  2.3313  0.4548
  161SAPE   C3818098   3.682   2.380   6.835  0.1660 -0.0760  0.6177
  161SAPE   H8X18099   3.598   2.307   6.826 -1.0598  1.3546  0.1665
  161SAPE   H8Y18100   3.633   2.480   6.838  0.2464 -0.0914  3.0366
  161SAPE   C3918101   3.756   2.348   6.965  0.1355 -0.1203  0.1287
  161SAPE   H9X18102   3.838   2.421   6.981  1.8016 -1.7771 -0.7124
  161SAPE   H9Y18103   3.800   2.246   6.959 -1.5889 -0.8788  0.0815
  161SAPE  C31018104   3.663   2.340   7.076 -0.2417  1.1654 -0.0455
  161SAPE  H10X18105   3.602   2.248   7.068 -1.3271  1.8880 -0.2623
  161SAPE  H10Y18106   3.594   2.427   7.066 -0.5082  0.7041 -2.4551
  161SAPE  C31118107   3.724   2.341   7.211  0.3229 -0.5273 -0.5876
  161SAPE  H11X18108   3.748   2.444   7.245  2.1403 -1.0716 -0.1629
  161SAPE  H11Y18109   3.821   2.286   7.206 -0.0595 -1.0552 -2.8915
  161SAPE  C31218110   3.641   2.269   7.307 -0.3185 -0.5323 -0.0304
  161SAPE  H12X18111   3.617   2.167   7.271 -2.7537 -0.2379  0.6649
  161SAPE  H12Y18112   3.541   2.317   7.315  0.6155  1.0339  3.4165
  161SAPE  C31318113   3.699   2.273   7.449 -0.3326 -0.4880 -0.3751
  161SAPE  H13X18114   3.733   2.376   7.471  2.9168 -1.5505 -0.0863
  161SAPE  H13Y18115   3.794   2.217   7.432  0.5469  0.1953  2.2060
  161SAPE  C31418116   3.620   2.207   7.559  0.2523 -0.6214 -0.2308
  161SAPE  H14X18117   3.539   2.276   7.591 -0.6427 -0.6993 -2.3112
  161SAPE  H14Y18118   3.684   2.181   7.646 -1.0078 -0.7334  0.6783
  161SAPE  C31518119   3.533   2.090   7.536 -0.5425  0.7040 -0.4686
  161SAPE  H15X18120   3.590   2.022   7.469 -1.3189  1.6080 -2.1036
  161SAPE  H15Y18121   3.443   2.105   7.472 -2.2439  0.0029  1.7257
  161SAPE  C31618122   3.483   2.011   7.660  0.0261  0.9233  0.4069
  161SAPE  H16X18123   3.432   2.079   7.731  1.3913  1.1336  1.2134
  161SAPE  H16Y18124   3.570   1.963   7.711  1.5205  0.8003 -2.2094
  161SAPE  C31718125   3.389   1.894   7.631 -0.5214 -0.3810  0.1534
  161SAPE  H17X18126   3.433   1.796   7.658 -1.2844 -0.8371 -0.2660
  161SAPE  H17Y18127   3.362   1.897   7.523 -0.7735 -2.6530  0.1298
  161SAPE  C31818128   3.244   1.899   7.705 -0.1086 -0.6616 -0.3987
  161SAPE  H18X18129   3.174   1.852   7.633 -0.0937 -1.8319  0.3301
  161SAPE  H18Y18130   3.219   2.006   7.723  1.4227 -0.4603  0.6559
  161SAPE  H18Z18131   3.251   1.834   7.795 -0.4735  0.1006  0.1841
  162SAPE     N18132   2.963   5.642   6.178  0.1289 -0.3008  0.1071
  162SAPE   HN118133   3.060   5.626   6.211 -0.0130 -1.5276 -0.0649
  162SAPE   HN218134   2.888   5.586   6.223 -0.8215  0.2515 -0.7626
  162SAPE   HN318135   2.966   5.619   6.076  2.1624 -0.7350  0.2592
  162SAPE   C1218136   2.911   5.786   6.177  0.2376 -0.6411 -0.1185
  162SAPE  H12A18137   2.989   5.857   6.142 -2.1593  1.2804 -1.7488
  162SAPE  H12B18138   2.884   5.821   6.279  0.8848 -0.5678  0.0313
  162SAPE   C1118139   2.793   5.804   6.075 -0.5720  0.1294  0.6431
  162SAPE  H11A18140   2.757   5.909   6.078  0.2553  0.3742  2.6844
  162SAPE  H11B18141   2.700   5.746   6.090  0.4049 -2.0939 -1.4676
  162SAPE     P18142   2.834   5.663   5.858  0.0396  0.4012 -0.5087
  162SAPE   O1318143   2.711   5.595   5.906 -0.1934 -0.2626 -0.3771
  162SAPE   O1418144   2.845   5.703   5.715  0.2336 -0.2655 -0.8214
  162SAPE   O1218145   2.849   5.795   5.944 -0.2013  0.7368 -0.9078
  162SAPE   O1118146   2.964   5.579   5.891 -0.1228  0.7302 -0.1682
  162SAPE    C118147   3.094   5.627   5.868  0.1855  0.1417  0.2723
  162SAPE    HA18148   3.092   5.678   5.769 -0.8087  1.5770  1.0107
  162SAPE    HB18149   3.124   5.697   5.949  0.9350 -0.9548  0.9585
  162SAPE    C218150   3.200   5.512   5.863 -0.4782 -0.4235  0.6461
  162SAPE    HS18151   3.160   5.438   5.790 -0.9409 -1.0488  1.5293
  162SAPE   O2118152   3.190   5.449   5.989 -0.1153 -0.8355  0.1720
  162SAPE   C2118153   3.239   5.332   6.001 -0.3676  0.5003  0.5267
  162SAPE   O2218154   3.274   5.263   5.903  0.2526 -0.5433  0.2077
  162SAPE   C2218155   3.267   5.287   6.144  0.4646 -0.5066 -0.5581
  162SAPE   H2R18156   3.265   5.176   6.145  0.2910 -0.4983  0.0419
  162SAPE   H2S18157   3.365   5.315   6.187 -0.3636  1.7651 -0.0815
  162SAPE    C318158   3.340   5.554   5.821 -0.3651 -0.6935 -0.4472
  162SAPE    HX18159   3.325   5.599   5.720  1.3763 -0.2614 -0.5316
  162SAPE    HY18160   3.399   5.460   5.818 -0.5286 -0.7708 -1.2117
  162SAPE   O3118161   3.387   5.659   5.907  0.1957  0.1698  0.3153
  162SAPE   C3118162   3.515   5.695   5.883 -0.4538 -0.8766  0.8241
  162SAPE   O3218163   3.573   5.662   5.786 -0.0029 -0.3796  0.3319
  162SAPE   C3218164   3.568   5.785   5.994 -0.0657  0.4940 -0.3123
  162SAPE   H2X18165   3.486   5.806   6.067 -0.6121 -0.7983 -0.5382
  162SAPE   H2Y18166   3.601   5.876   5.940 -0.9665  1.6741  1.0687
  162SAPE   C2318167   3.155   5.345   6.240 -0.1288  0.4116  0.3473
  162SAPE   H3R18168   3.055   5.326   6.194  0.2241 -0.8902  0.1120
  162SAPE   H3S18169   3.166   5.456   6.238  2.0454  0.2817  3.1727
  162SAPE   C2418170   3.163   5.298   6.384 -0.3204 -0.2904  0.0029
  162SAPE   H4R18171   3.273   5.306   6.401 -0.4820  0.7176  0.6730
  162SAPE   H4S18172   3.142   5.191   6.406  0.7899 -0.3875  0.6534
  162SAPE   C2518173   3.090   5.389   6.479  0.4273 -0.2018  0.3066
  162SAPE   H5R18174   2.989   5.360   6.513  0.6617 -2.1981 -0.6156
  162SAPE   C2618175   3.143   5.496   6.534  0.7767  0.0667  0.2111
  162SAPE   H6R18176   3.072   5.554   6.594  0.0208  2.4736 -2.8250
  162SAPE   C2718177   3.276   5.558   6.509 -0.1187 -0.5004  0.3923
  162SAPE   H7R18178   3.312   5.534   6.407 -2.2295 -0.3839 -0.3929
  162SAPE   H7S18179   3.339   5.502   6.582 -0.5549  0.1120  1.2455
  162SAPE   C2818180   3.289   5.703   6.538 -0.2495 -0.3002  0.7345
  162SAPE   H8R18181   3.270   5.774   6.457  0.2700  0.8733  1.6331
  162SAPE   C2918182   3.314   5.766   6.650  0.1958  0.2140  0.4459
  162SAPE   H9R18183   3.312   5.875   6.636 -0.4853 -0.0180 -1.3182
  162SAPE  C21018184   3.335   5.714   6.792 -0.2752 -0.1034 -0.0928
  162SAPE  H10R18185   3.444   5.710   6.816 -0.8578 -2.5383  2.3706
  162SAPE  H10S18186   3.286   5.615   6.809 -0.2400 -0.1967 -0.5461
  162SAPE  C21118187   3.277   5.810   6.897 -0.7606  0.3387 -0.2322
  162SAPE  H11R18188   3.267   5.915   6.866  1.2215  0.9534  1.1262
  162SAPE  C21218189   3.257   5.777   7.028 -0.2319  0.2590 -0.8255
  162SAPE  H12R18190   3.222   5.862   7.088  1.5383  0.7645 -0.4990
  162SAPE  C21318191   3.279   5.650   7.100  0.9721 -0.7755  0.2011
  162SAPE  H13R18192   3.316   5.572   7.030 -2.4533 -0.7304 -1.7680
  162SAPE  H13S18193   3.186   5.605   7.142  0.2383 -1.5098 -2.1057
  162SAPE  C21418194   3.380   5.675   7.205  0.0634 -0.4011  0.5199
  162SAPE  H14R18195   3.478   5.720   7.180 -0.6404  1.1842  0.5286
  162SAPE  C21518196   3.373   5.634   7.335  0.4155  0.6897 -0.9108
  162SAPE  H15R18197   3.459   5.653   7.402  1.1481  2.3276 -2.2747
  162SAPE  C21618198   3.258   5.564   7.396 -0.3531  1.0970  0.3368
  162SAPE  H16R18199   3.254   5.456   7.369  0.4828  0.8669  1.0923
  162SAPE  H16S18200   3.169   5.618   7.359 -0.3227 -0.3028 -1.8558
  162SAPE  C21718201   3.264   5.569   7.551 -0.7583  0.0530  0.3092
  162SAPE  H17R18202   3.238   5.674   7.577 -2.2463 -0.1219 -0.4349
  162SAPE  H17S18203   3.365   5.541   7.589 -1.9151 -2.4854  1.5775
  162SAPE  C21818204   3.159   5.475   7.613  0.5336  0.0082  0.8388
  162SAPE  H18R18205   3.188   5.373   7.580 -2.9148 -0.5232 -0.6708
  162SAPE  H18S18206   3.065   5.500   7.560  0.4726  0.1109  0.9966
  162SAPE  C21918207   3.137   5.498   7.769  0.5617  0.7421 -0.0797
  162SAPE  H19R18208   3.043   5.443   7.789  0.4280  1.1755  0.5015
  162SAPE  H19S18209   3.119   5.604   7.797  0.5692  0.2794  1.7407
  162SAPE  C22018210   3.256   5.442   7.846  0.1599 -0.4157 -0.5895
  162SAPE  H20R18211   3.238   5.465   7.953  3.6779 -1.4691  0.3081
  162SAPE  H20S18212   3.349   5.495   7.818  0.1347 -0.5132 -0.8595
  162SAPE  H20T18213   3.267   5.331   7.845 -2.8281 -0.7625  0.1730
  162SAPE   C3318214   3.691   5.725   6.069 -0.3611 -0.0747  0.3064
  162SAPE   H3X18215   3.714   5.796   6.151  1.8833 -0.4985  0.0871
  162SAPE   H3Y18216   3.778   5.705   6.003 -0.0144 -1.1963  1.0755
  162SAPE   C3418217   3.676   5.589   6.130  0.0115  0.1223 -0.0690
  162SAPE   H4X18218   3.645   5.524   6.045  0.4151 -0.4904  0.2483
  162SAPE   H4Y18219   3.598   5.583   6.208 -1.0955 -1.9598 -1.2690
  162SAPE   C3518220   3.807   5.533   6.203 -0.0560 -0.3969  0.4303
  162SAPE   H5X18221   3.845   5.621   6.260 -1.2848  0.0186  0.6277
  162SAPE   H5Y18222   3.875   5.498   6.123 -0.1026 -1.7561  0.9604
  162SAPE   C3618223   3.769   5.420   6.299 -0.9046  0.2384 -0.7759
  162SAPE   H6X18224   3.705   5.472   6.373  0.6077  0.7435  0.1927
  162SAPE   H6Y18225   3.862   5.380   6.345 -1.0649 -2.3691 -2.6113
  162SAPE   C3718226   3.680   5.307   6.231 -0.4222 -0.4715  0.9637
  162SAPE   H7X18227   3.744   5.255   6.156 -2.4144  0.4500 -1.4716
  162SAPE   H7Y18228   3.599   5.362   6.178 -0.3688 -0.2829  1.0766
  162SAPE   C3818229   3.632   5.202   6.333  0.0044  0.0197 -0.4305
  162SAPE   H8X18230   3.717   5.135   6.360 -0.6558  0.3018  2.5048
  162SAPE   H8Y18231   3.552   5.138   6.290 -2.4219  0.2365  3.5820
  162SAPE   C3918232   3.583   5.267   6.463  0.3042 -0.4217  0.6538
  162SAPE   H9X18233   3.509   5.347   6.440  0.3190  0.4939  3.5876
  162SAPE   H9Y18234   3.670   5.316   6.511  1.7210 -0.8754 -1.3770
  162SAPE  C31018235   3.516   5.172   6.561  0.4493 -0.1207  0.8545
  162SAPE  H10X18236   3.586   5.088   6.583 -0.4312 -0.6096  1.7898
  162SAPE  H10Y18237   3.430   5.130   6.506  1.3743  0.3173 -0.9610
  162SAPE  C31118238   3.462   5.236   6.689 -0.4214 -0.0602  0.0239
  162SAPE  H11X18239   3.389   5.312   6.655 -1.4942 -0.9896  0.2448
  162SAPE  H11Y18240   3.543   5.289   6.744 -2.1791  1.5481  1.1084
  162SAPE  C31218241   3.385   5.137   6.770  0.3607 -0.6277  0.3906
  162SAPE  H12X18242   3.455   5.054   6.792  1.6695  0.7123  1.3767
  162SAPE  H12Y18243   3.298   5.105   6.709  1.8612  0.3469 -2.3579
  162SAPE  C31318244   3.322   5.181   6.892 -0.5613 -0.6489 -0.3608
  162SAPE  H13X18245   3.238   5.250   6.873 -0.4428  0.2351  2.1441
  162SAPE  H13Y18246   3.388   5.232   6.966 -1.2766 -1.4076  0.8088
  162SAPE  C31418247   3.262   5.060   6.963 -0.7424 -0.5930  0.3482
  162SAPE  H14X18248   3.329   4.972   6.964  2.9640  2.1306 -0.4454
  162SAPE  H14Y18249   3.170   5.037   6.905 -1.4727 -0.8731  1.5991
  162SAPE  C31518250   3.218   5.089   7.105  0.2183  0.1091  0.1825
  162SAPE  H15X18251   3.138   5.166   7.108  1.0626  1.1259 -2.2366
  162SAPE  H15Y18252   3.311   5.124   7.156  0.2323 -1.5095  1.2977
  162SAPE  C31618253   3.174   4.959   7.182  0.1277  0.0482  0.0559
  162SAPE  H16X18254   3.249   4.878   7.169 -0.0998 -0.2226  0.4139
  162SAPE  H16Y18255   3.076   4.929   7.138 -0.2025  2.3324 -0.8274
  162SAPE  C31718256   3.173   4.968   7.329 -0.8934  0.0878 -0.2644
  162SAPE  H17X18257   3.096   5.045   7.352 -1.0828 -0.4252  0.8667
  162SAPE  H17Y18258   3.268   5.006   7.370  0.1105 -2.0755 -0.4887
  162SAPE  C31818259   3.141   4.837   7.395 -0.3349  0.6990  0.3397
  162SAPE  H18X18260   3.039   4.795   7.385  0.6627 -1.6785 -0.1946
  162SAPE  H18Y18261   3.153   4.839   7.506  0.9846 -1.3858  0.2695
  162SAPE  H18Z18262   3.210   4.762   7.352 -2.1309 -0.3219 -0.8173
  163SAPE     N18263   1.650   4.583   6.168 -0.0752  0.4805  0.2966
  163SAPE   HN118264   1.752   4.571   6.178  0.0184  0.2038 -0.9281
  163SAPE   HN218265   1.633   4.675   6.214  1.1085  1.0209 -0.3421
  163SAPE   HN318266   1.603   4.514   6.230  2.2107  0.1468  1.7224
  163SAPE   C1218267   1.607   4.575   6.023  0.3389 -0.0872  0.5810
  163SAPE  H12A18268   1.679   4.634   5.962 -0.1709 -3.0781 -3.1152
  163SAPE  H12B18269   1.508   4.627   6.023  1.4815  2.1751  1.0031
  163SAPE   C1118270   1.605   4.435   5.969  0.4724  0.7273  0.3360
  163SAPE  H11A18271   1.713   4.415   5.954  0.4317  1.5415 -1.2419
  163SAPE  H11B18272   1.557   4.422   5.869 -0.0495  0.6871  0.5922
  163SAPE     P18273   1.537   4.195   6.032  0.1194 -0.3096 -0.2166
  163SAPE   O1318274   1.444   4.142   6.130 -0.7994 -0.4817  0.1458
  163SAPE   O1418275   1.498   4.169   5.894 -0.5536 -0.1763 -0.3615
  163SAPE   O1218276   1.559   4.345   6.069 -0.1299  0.0820 -1.0727
  163SAPE   O1118277   1.685   4.147   6.042  0.1874 -0.1803 -0.4609
  163SAPE    C118278   1.719   4.060   6.155  0.0716 -0.0532  0.7311
  163SAPE    HA18279   1.632   4.039   6.220 -1.2883  0.9989 -0.7235
  163SAPE    HB18280   1.765   3.967   6.113 -1.3392 -0.1521 -0.6493
  163SAPE    C218281   1.822   4.118   6.249  0.3021 -0.1195  0.2779
  163SAPE    HS18282   1.917   4.131   6.193  1.2485  1.7361  2.2653
  163SAPE   O2118283   1.834   4.029   6.363 -0.4362 -0.6184 -0.2108
  163SAPE   C2118284   1.947   4.052   6.432 -0.0385 -1.1704  0.7461
  163SAPE   O2218285   2.038   4.126   6.406 -0.3597 -0.0513 -0.0117
  163SAPE   C2218286   1.925   3.983   6.568  0.1557 -0.0778  0.4580
  163SAPE   H2R18287   1.834   4.035   6.606 -0.7701 -0.9889 -0.4538
  163SAPE   H2S18288   1.896   3.877   6.553  0.6478 -0.0792 -0.5496
  163SAPE    C318289   1.767   4.255   6.296  0.3035  0.2217  0.2288
  163SAPE    HX18290   1.751   4.322   6.209 -1.8565  0.7737  1.0268
  163SAPE    HY18291   1.839   4.308   6.362 -0.4074 -0.6414  1.7314
  163SAPE   O3118292   1.640   4.223   6.372 -0.5774 -0.4029 -0.3566
  163SAPE   C3118293   1.558   4.323   6.393  0.0827  0.0519 -0.4603
  163SAPE   O3218294   1.579   4.438   6.379  0.4029 -0.0660 -0.5016
  163SAPE   C3218295   1.425   4.277   6.448 -0.6467 -0.0752 -0.3024
  163SAPE   H2X18296   1.377   4.229   6.360  0.6364 -2.6015  0.2960
  163SAPE   H2Y18297   1.370   4.366   6.484  0.6369  0.3290  0.7124
  163SAPE   C2318298   2.033   4.013   6.672  0.1589 -0.6864 -0.4801
  163SAPE   H3R18299   1.978   4.059   6.757 -1.0919 -0.4891 -1.3741
  163SAPE   H3S18300   2.114   4.081   6.641  0.8662 -0.1461  2.4136
  163SAPE   C2418301   2.091   3.889   6.739  0.3457  0.5387 -0.1497
  163SAPE   H4R18302   2.152   3.834   6.663  1.6405  2.8164 -0.8056
  163SAPE   H4S18303   2.008   3.815   6.748  0.1729  0.5606 -1.4141
  163SAPE   C2518304   2.168   3.917   6.864 -0.3997 -0.1720 -1.3087
  163SAPE   H5R18305   2.238   4.003   6.859 -0.1743 -0.3361 -1.0003
  163SAPE   C2618306   2.145   3.858   6.981 -0.0332 -0.2979 -0.1010
  163SAPE   H6R18307   2.206   3.892   7.066 -0.8950 -1.4951  1.0160
  163SAPE   C2718308   2.044   3.752   7.007 -0.3435  0.7208 -0.1209
  163SAPE   H7R18309   2.052   3.674   6.928 -0.9988  1.6517 -1.1305
  163SAPE   H7S18310   1.940   3.790   6.998 -0.4422  0.5650  0.4060
  163SAPE   C2818311   2.061   3.682   7.138 -0.6661  0.7689 -0.4711
  163SAPE   H8R18312   2.161   3.638   7.145 -0.8381  0.6410  1.7559
  163SAPE   C2918313   1.978   3.672   7.243  0.5560  0.4112 -0.2325
  163SAPE   H9R18314   2.026   3.633   7.333  2.6812  0.6081 -1.2537
  163SAPE  C21018315   1.850   3.742   7.247 -0.3747  0.0052  0.0937
  163SAPE  H10R18316   1.863   3.840   7.195  0.8380 -0.4090 -0.3883
  163SAPE  H10S18317   1.824   3.763   7.353 -3.2668  0.9680 -0.7497
  163SAPE  C21118318   1.746   3.659   7.181 -0.5750 -0.0218  0.3206
  163SAPE  H11R18319   1.746   3.671   7.072  0.3630  1.4953  0.4692
  163SAPE  C21218320   1.652   3.575   7.231  0.0638 -0.3442 -0.5290
  163SAPE  H12R18321   1.581   3.534   7.158  3.0620 -0.2588 -3.6680
  163SAPE  C21318322   1.630   3.550   7.375 -0.5801  0.3589 -0.5520
  163SAPE  H13R18323   1.528   3.512   7.396 -0.3875  0.6186  0.9749
  163SAPE  H13S18324   1.644   3.640   7.439  0.8550 -1.9854  2.5775
  163SAPE  C21418325   1.714   3.440   7.441 -0.7277 -0.6523 -0.0839
  163SAPE  H14R18326   1.776   3.389   7.366  1.3980  1.1727  0.3773
  163SAPE  C21518327   1.718   3.406   7.574 -0.1716 -0.3671 -0.1173
  163SAPE  H15R18328   1.789   3.325   7.595 -0.6457 -0.6900  0.2332
  163SAPE  C21618329   1.655   3.472   7.698  0.4136  0.5104 -0.3394
  163SAPE  H16R18330   1.556   3.517   7.676 -0.7226 -0.3420  2.7845
  163SAPE  H16S18331   1.720   3.556   7.731 -1.9550  1.1547  2.8435
  163SAPE  C21718332   1.635   3.373   7.815 -0.1113 -1.1594 -0.7035
  163SAPE  H17R18333   1.566   3.290   7.791  2.0919 -2.6025 -2.1607
  163SAPE  H17S18334   1.579   3.416   7.901  1.6928 -1.1840  0.5296
  163SAPE  C21818335   1.778   3.318   7.868 -0.2089  0.3694  0.5037
  163SAPE  H18R18336   1.843   3.402   7.901  0.9273 -0.4484  0.3712
  163SAPE  H18S18337   1.823   3.257   7.788  1.2424  0.2367  1.4092
  163SAPE  C21918338   1.766   3.216   7.981 -0.2676 -0.4479 -0.2401
  163SAPE  H19R18339   1.861   3.176   8.022 -0.0519  1.7207  1.4713
  163SAPE  H19S18340   1.718   3.128   7.933  0.4827 -1.5638  1.0018
  163SAPE  C22018341   1.681   3.266   8.097  0.8619  0.0782 -0.4624
  163SAPE  H20R18342   1.572   3.247   8.086  0.7878 -0.6821  1.4392
  163SAPE  H20S18343   1.695   3.375   8.118  4.1157 -0.4969  0.5616
  163SAPE  H20T18344   1.708   3.223   8.195 -0.2355  0.4165 -0.0069
  163SAPE   C3318345   1.442   4.166   6.558  0.1215 -0.1289  0.6031
  163SAPE   H3X18346   1.493   4.087   6.499 -2.8483 -0.4660 -1.6342
  163SAPE   H3Y18347   1.344   4.127   6.592  0.8104 -1.9349  0.5403
  163SAPE   C3418348   1.527   4.209   6.679 -0.1133  1.0700  0.8530
  163SAPE   H4X18349   1.468   4.280   6.740 -0.0731 -0.4595  2.7111
  163SAPE   H4Y18350   1.624   4.258   6.655  0.7370  0.1385  2.3521
  163SAPE   C3518351   1.558   4.085   6.763 -0.5174 -0.7592 -0.3962
  163SAPE   H5X18352   1.635   4.021   6.716 -0.3655 -0.6935 -0.2412
  163SAPE   H5Y18353   1.478   4.010   6.776  0.0272 -1.2112  0.4376
  163SAPE   C3618354   1.608   4.126   6.905 -0.5474  0.4404  0.6012
  163SAPE   H6X18355   1.680   4.210   6.896 -0.4595  0.1862 -1.4016
  163SAPE   H6Y18356   1.656   4.033   6.943  1.8013  1.4268  0.1340
  163SAPE   C3718357   1.489   4.161   6.995  0.5255  0.3166  0.0608
  163SAPE   H7X18358   1.428   4.068   7.000  1.1751 -0.1406 -0.4352
  163SAPE   H7Y18359   1.423   4.236   6.947  0.2794 -0.3979 -0.7276
  163SAPE   C3818360   1.522   4.198   7.140  0.0055 -0.4402  0.1227
  163SAPE   H8X18361   1.608   4.268   7.138  0.9086 -1.5409  0.2460
  163SAPE   H8Y18362   1.538   4.108   7.203  1.4162 -0.1001  0.2687
  163SAPE   C3918363   1.408   4.280   7.207  0.0040  0.0455 -0.0664
  163SAPE   H9X18364   1.407   4.384   7.169 -1.5059 -0.5536 -1.7331
  163SAPE   H9Y18365   1.425   4.282   7.317 -0.0746 -0.4556 -0.0455
  163SAPE  C31018366   1.271   4.221   7.180 -0.8836  0.4184 -0.2484
  163SAPE  H10X18367   1.252   4.128   7.238 -1.5594  0.3673 -0.5508
  163SAPE  H10Y18368   1.236   4.195   7.078 -1.7603  0.7908 -0.0510
  163SAPE  C31118369   1.153   4.313   7.240 -0.3303 -0.1129 -0.0568
  163SAPE  H11X18370   1.060   4.272   7.196  0.1749 -0.5615 -0.7278
  163SAPE  H11Y18371   1.167   4.416   7.200 -0.2573 -0.4940 -1.0128
  163SAPE  C31218372   1.152   4.329   7.393  0.2292  0.1389  0.6294
  163SAPE  H12X18373   1.211   4.255   7.451  0.2969 -1.3072 -1.2292
  163SAPE  H12Y18374   1.047   4.321   7.430 -0.2660  0.3649 -0.6966
  163SAPE  C31318375   1.213   4.465   7.431 -0.1631 -0.4623  0.0725
  163SAPE  H13X18376   1.166   4.553   7.381  2.1671  0.9837  0.3420
  163SAPE  H13Y18377   1.319   4.456   7.398 -0.2304 -0.1938 -0.2243
  163SAPE  C31418378   1.225   4.505   7.581  0.2949  0.0800  0.5621
  163SAPE  H14X18379   1.237   4.402   7.621  0.9447 -0.0842 -0.0310
  163SAPE  H14Y18380   1.132   4.545   7.625 -0.3154 -1.3106  0.5694
  163SAPE  C31518381   1.337   4.598   7.621  0.7876  0.3174  0.3940
  163SAPE  H15X18382   1.313   4.693   7.568 -2.4073 -0.3801  0.4936
  163SAPE  H15Y18383   1.443   4.574   7.596  0.4874  0.5786 -1.1875
  163SAPE  C31618384   1.341   4.635   7.773  0.4759  0.2590 -0.5732
  163SAPE  H16X18385   1.242   4.679   7.799  0.4155 -1.7175  2.8679
  163SAPE  H16Y18386   1.409   4.718   7.800 -0.2318  0.9081 -0.7666
  163SAPE  C31718387   1.382   4.523   7.865 -0.3090 -0.3170 -0.5588
  163SAPE  H17X18388   1.485   4.498   7.832  0.2358  1.4669 -0.2486
  163SAPE  H17Y18389   1.310   4.439   7.854 -1.2860  0.7011 -2.2112
  163SAPE  C31818390   1.382   4.560   8.016  0.3621  0.1969 -0.3891
  163SAPE  H18X18391   1.397   4.471   8.081 -1.6016 -0.1143 -0.3079
  163SAPE  H18Y18392   1.282   4.601   8.042  0.7602  1.8511 -1.4247
  163SAPE  H18Z18393   1.467   4.624   8.045 -2.3547  3.3588  0.8670
  164SAPE     N18394   5.505   0.764   5.933  0.9892  0.2689 -0.0033
  164SAPE   HN118395   5.439   0.812   5.998 -1.1437 -1.4131 -0.8441
  164SAPE   HN218396   5.472   0.667   5.914  0.8620  0.2050  0.5077
  164SAPE   HN318397   5.594   0.772   5.986  0.9257  2.6253 -0.2124
  164SAPE   C1218398   5.509   0.846   5.805 -0.2952 -0.2953 -0.0006
  164SAPE  H12A18399   5.454   0.797   5.722 -0.4757 -0.1494  0.0337
  164SAPE  H12B18400   5.615   0.868   5.779  0.0738 -0.1434  1.6222
  164SAPE   C1118401   5.438   0.982   5.835  0.0637 -0.0706  0.3016
  164SAPE  H11A18402   5.331   0.957   5.852 -0.2663  0.8778 -0.3138
  164SAPE  H11B18403   5.436   1.059   5.755 -1.1423 -0.0863  0.3062
  164SAPE     P18404   5.625   1.087   5.963 -0.1496  0.1982  0.3324
  164SAPE   O1318405   5.708   0.965   5.986  0.4804  0.5617  0.8223
  164SAPE   O1418406   5.657   1.172   5.847 -0.5099  0.5402  0.0256
  164SAPE   O1218407   5.476   1.048   5.958 -0.0631 -0.2655 -0.0156
  164SAPE   O1118408   5.638   1.160   6.096 -0.8810 -0.4313 -0.0901
  164SAPE    C118409   5.645   1.084   6.225  0.1922  0.3960 -0.1544
  164SAPE    HA18410   5.634   0.974   6.212 -0.8207  0.0316  3.2971
  164SAPE    HB18411   5.746   1.098   6.270  0.3657  1.9660 -0.9967
  164SAPE    C218412   5.530   1.120   6.319 -0.2997  0.2403  0.6717
  164SAPE    HS18413   5.438   1.115   6.256  0.1899 -1.4429  0.0549
  164SAPE   O2118414   5.550   1.261   6.361 -0.3638  0.8029  0.7677
  164SAPE   C2118415   5.435   1.328   6.376  0.6108  0.1240  0.1988
  164SAPE   O2218416   5.325   1.295   6.338  0.0645  0.5199 -0.2069
  164SAPE   C2218417   5.472   1.470   6.422 -0.1747  0.5209 -1.2772
  164SAPE   H2R18418   5.578   1.477   6.390 -0.3627 -0.1276 -2.0822
  164SAPE   H2S18419   5.426   1.534   6.344  2.3563  2.4520 -1.2400
  164SAPE    C318420   5.524   1.025   6.440  0.2632  0.3065  0.9356
  164SAPE    HX18421   5.624   1.023   6.489  0.5132  0.0551  0.4209
  164SAPE    HY18422   5.512   0.923   6.396 -1.0805  0.5541  0.6921
  164SAPE   O3118423   5.415   1.056   6.529  0.2353  0.1739 -0.0003
  164SAPE   C3118424   5.292   1.020   6.473 -0.3207 -0.7357  0.3341
  164SAPE   O3218425   5.279   0.953   6.374 -0.1257 -0.1787 -0.4218
  164SAPE   C3218426   5.185   1.070   6.568  0.4807 -0.3976  0.2198
  164SAPE   H2X18427   5.216   1.172   6.597 -0.8104 -0.3009  1.3182
  164SAPE   H2Y18428   5.182   1.013   6.664  1.1426  0.9720  1.0558
  164SAPE   C2318429   5.426   1.511   6.564 -0.1267  0.1065  0.0168
  164SAPE   H3R18430   5.323   1.471   6.573  0.6593 -2.1539 -0.5482
  164SAPE   H3S18431   5.418   1.621   6.563  0.4857  0.1606 -2.8522
  164SAPE   C2418432   5.510   1.438   6.676 -0.0217 -0.7105 -0.5561
  164SAPE   H4R18433   5.610   1.486   6.673 -0.4998  0.2689 -0.7243
  164SAPE   H4S18434   5.521   1.331   6.648  0.6791 -0.9542  0.6052
  164SAPE   C2518435   5.457   1.451   6.815  0.1874 -0.0162 -0.4538
  164SAPE   H5R18436   5.463   1.555   6.848  0.7026 -0.3787  0.6052
  164SAPE   C2618437   5.408   1.355   6.895 -0.9434 -0.2408  0.2615
  164SAPE   H6R18438   5.388   1.385   6.999 -0.6948 -0.6200  0.4193
  164SAPE   C2718439   5.393   1.212   6.858  0.5474 -0.1463 -0.2609
  164SAPE   H7R18440   5.467   1.153   6.917  0.7755  0.1534 -0.2430
  164SAPE   H7S18441   5.423   1.188   6.753  1.4047  0.6956 -0.2170
  164SAPE   C2818442   5.253   1.155   6.880 -0.5025 -0.0979  0.2376
  164SAPE   H8R18443   5.186   1.145   6.793 -0.1256 -1.9948  0.1378
  164SAPE   C2918444   5.197   1.117   6.997  0.0157 -0.8193  0.5251
  164SAPE   H9R18445   5.091   1.090   6.992 -0.9227  2.6241  0.2718
  164SAPE  C21018446   5.255   1.126   7.139  0.7222 -0.1867  0.6484
  164SAPE  H10R18447   5.209   1.221   7.174 -0.6672 -1.0141  1.1181
  164SAPE  H10S18448   5.365   1.140   7.140  0.5165  2.1578 -2.1503
  164SAPE  C21118449   5.202   1.022   7.236  0.8702 -0.5586  0.0996
  164SAPE  H11R18450   5.270   0.937   7.250 -0.9192 -1.8379  1.3559
  164SAPE  C21218451   5.089   1.023   7.308 -0.0635 -0.2981 -0.4992
  164SAPE  H12R18452   5.059   0.931   7.359 -2.0720  0.2124 -0.7030
  164SAPE  C21318453   4.987   1.137   7.313  0.1872  0.7178  0.1894
  164SAPE  H13R18454   4.889   1.109   7.270  0.5431 -1.4367  0.6846
  164SAPE  H13S18455   5.025   1.222   7.252  1.2428 -0.4758 -0.8508
  164SAPE  C21418456   4.968   1.180   7.457 -0.4200  0.8039 -0.0202
  164SAPE  H14R18457   5.046   1.246   7.500  0.5460 -0.1566 -0.2726
  164SAPE  C21518458   4.852   1.177   7.535 -0.0351  0.3613  0.2528
  164SAPE  H15R18459   4.860   1.196   7.643 -1.9147  0.6766  0.3582
  164SAPE  C21618460   4.715   1.131   7.487 -0.7271 -0.5757  0.0496
  164SAPE  H16R18461   4.685   1.039   7.541  0.5138 -2.6621 -2.6936
  164SAPE  H16S18462   4.723   1.106   7.379 -0.7488 -2.1308  0.3964
  164SAPE  C21718463   4.609   1.242   7.494 -0.4643 -0.2473 -0.6916
  164SAPE  H17R18464   4.514   1.197   7.459 -0.0523 -1.7662  0.1059
  164SAPE  H17S18465   4.638   1.320   7.420  1.5475 -1.0272 -0.7542
  164SAPE  C21818466   4.587   1.306   7.632  0.2297 -0.1220 -0.2670
  164SAPE  H18R18467   4.684   1.352   7.660 -0.2231  0.8415 -0.2557
  164SAPE  H18S18468   4.558   1.229   7.705  0.2771 -0.7068 -0.8623
  164SAPE  C21918469   4.483   1.427   7.629 -0.4311 -0.1463  0.9830
  164SAPE  H19R18470   4.442   1.438   7.731 -0.7648  0.6661  0.7660
  164SAPE  H19S18471   4.404   1.397   7.557  1.3637 -0.3732 -0.9371
  164SAPE  C22018472   4.547   1.552   7.580  0.3672  0.1097  0.9550
  164SAPE  H20R18473   4.560   1.560   7.470 -2.2896  0.0545  0.5855
  164SAPE  H20S18474   4.645   1.582   7.623  2.7129 -0.6807 -3.5449
  164SAPE  H20T18475   4.473   1.632   7.603 -0.4761 -0.3053 -0.2848
  164SAPE   C3318476   5.040   1.080   6.515 -0.4862 -0.8770  0.0834
  164SAPE   H3X18477   5.039   1.094   6.404  0.1592 -1.1638  0.0375
  164SAPE   H3Y18478   5.002   1.171   6.566  0.4034 -1.7487  2.3423
  164SAPE   C3418479   4.945   0.965   6.550  0.2603 -0.3092  0.5321
  164SAPE   H4X18480   4.844   0.991   6.511  0.1149 -1.9246 -0.2029
  164SAPE   H4Y18481   4.929   0.947   6.659 -4.2960  0.9522  0.1750
  164SAPE   C3518482   4.987   0.843   6.470  0.7811 -0.3260  0.9605
  164SAPE   H5X18483   5.086   0.798   6.491  2.0827  1.8753 -0.3274
  164SAPE   H5Y18484   4.998   0.877   6.365 -2.1406 -2.0239  0.0295
  164SAPE   C3618485   4.885   0.731   6.470 -0.4500 -0.0323 -0.2028
  164SAPE   H6X18486   4.910   0.659   6.389 -2.2732  1.1805 -1.9003
  164SAPE   H6Y18487   4.790   0.774   6.431  1.8349  2.9370 -2.7452
  164SAPE   C3718488   4.868   0.662   6.606 -0.1195  0.1298  1.2010
  164SAPE   H7X18489   4.796   0.579   6.591 -0.6003  0.9429 -1.2239
  164SAPE   H7Y18490   4.814   0.729   6.676 -0.3975  0.6989  0.4484
  164SAPE   C3818491   5.001   0.612   6.669  0.5405  0.4263  0.3129
  164SAPE   H8X18492   5.081   0.689   6.671  0.7637  0.2872 -1.9176
  164SAPE   H8Y18493   5.033   0.535   6.596 -3.0414 -0.7721 -0.0713
  164SAPE   C3918494   4.988   0.548   6.808  0.2204 -0.1660  0.4268
  164SAPE   H9X18495   5.084   0.497   6.829  1.6010  1.7760 -1.0321
  164SAPE   H9Y18496   4.914   0.465   6.808  1.6903 -1.5718 -3.4875
  164SAPE  C31018497   4.969   0.645   6.932 -0.5978  0.4039  0.8188
  164SAPE  H10X18498   4.903   0.725   6.893  0.4980  0.4518 -1.0056
  164SAPE  H10Y18499   5.065   0.701   6.942  0.3538 -0.5058 -2.4209
  164SAPE  C31118500   4.945   0.571   7.060  0.6110 -0.2668 -0.5252
  164SAPE  H11X18501   5.038   0.512   7.077 -1.6060 -3.8745 -0.1947
  164SAPE  H11Y18502   4.858   0.502   7.069  2.7000 -2.8557  0.6099
  164SAPE  C31218503   4.936   0.672   7.177  0.6123  0.2154 -0.1436
  164SAPE  H12X18504   4.864   0.754   7.154  0.9334  0.1149 -1.5487
  164SAPE  H12Y18505   5.031   0.727   7.195  0.5322  0.8262 -1.5401
  164SAPE  C31318506   4.895   0.597   7.302  0.5699 -0.6480  0.8963
  164SAPE  H13X18507   4.974   0.528   7.339  1.0414  0.3802  1.8483
  164SAPE  H13Y18508   4.808   0.533   7.277  2.3318 -2.0620 -1.9204
  164SAPE  C31418509   4.861   0.692   7.407 -0.2303 -0.3836 -0.0450
  164SAPE  H14X18510   4.764   0.739   7.383  1.5702  1.2328 -4.7792
  164SAPE  H14Y18511   4.930   0.779   7.406 -1.5973  0.7184  0.0785
  164SAPE  C31518512   4.861   0.619   7.537  0.4740 -0.6068  0.1498
  164SAPE  H15X18513   4.965   0.589   7.562  0.0974 -0.9331  1.3616
  164SAPE  H15Y18514   4.796   0.529   7.535  1.3224 -1.2458  0.8631
  164SAPE  C31618515   4.808   0.703   7.655  0.1749  0.4704 -0.5985
  164SAPE  H16X18516   4.789   0.628   7.734  1.5797 -0.1908 -0.8763
  164SAPE  H16Y18517   4.714   0.752   7.623 -0.0664 -0.5936 -1.5404
  164SAPE  C31718518   4.920   0.799   7.701 -0.1139 -0.2845 -0.0797
  164SAPE  H17X18519   4.974   0.862   7.627 -1.7302  0.3412 -0.7372
  164SAPE  H17Y18520   4.994   0.729   7.746 -0.5687 -0.8502 -0.2091
  164SAPE  C31818521   4.881   0.887   7.822 -0.3141  0.4660  0.0081
  164SAPE  H18X18522   4.791   0.943   7.788 -0.2960  0.7862  0.4815
  164SAPE  H18Y18523   4.963   0.950   7.861  1.9635 -2.7135  0.5277
  164SAPE  H18Z18524   4.832   0.827   7.902 -2.6832  0.0212 -1.7070
  165SAPE     N18525   7.015   3.103   6.082  0.2769 -0.2821 -0.6015
  165SAPE   HN118526   7.058   3.182   6.135 -1.3036  0.6872 -0.7312
  165SAPE   HN218527   7.097   3.042   6.065 -0.8006 -2.7039  2.4980
  165SAPE   HN318528   6.971   3.139   5.995 -1.1568  0.1014  0.2628
  165SAPE   C1218529   6.901   3.032   6.157 -0.3407  0.0607  0.1492
  165SAPE  H12A18530   6.931   3.046   6.263 -0.8365 -0.1364  0.3170
  165SAPE  H12B18531   6.903   2.925   6.127 -1.8476 -0.2390  1.0234
  165SAPE   C1118532   6.757   3.090   6.123  0.8999  1.0287 -0.5887
  165SAPE  H11A18533   6.760   3.200   6.140  1.8075  0.7034  1.4078
  165SAPE  H11B18534   6.689   3.043   6.197  0.4078 -1.0464 -2.2976
  165SAPE     P18535   6.740   3.167   5.884 -0.0621 -0.0705 -0.2975
  165SAPE   O1318536   6.887   3.189   5.868 -0.1047 -0.2224  0.5193
  165SAPE   O1418537   6.662   3.124   5.770  0.0798 -0.1374  0.3071
  165SAPE   O1218538   6.712   3.052   5.990  0.4969  0.5996 -0.0153
  165SAPE   O1118539   6.676   3.286   5.952 -0.5996 -0.1348 -0.5297
  165SAPE    C118540   6.529   3.285   5.959  0.4643  0.0127  0.3320
  165SAPE    HA18541   6.489   3.302   5.857 -1.3933  0.8987  1.1672
  165SAPE    HB18542   6.496   3.186   5.998  0.2909 -0.4441 -0.9637
  165SAPE    C218543   6.479   3.399   6.053  1.0141  0.1068 -0.4250
  165SAPE    HS18544   6.513   3.488   5.996 -0.8832  0.8640 -0.3924
  165SAPE   O2118545   6.537   3.398   6.181 -0.4589 -0.1993 -0.6679
  165SAPE   C2118546   6.567   3.513   6.233 -0.0890 -0.4112  0.4484
  165SAPE   O2218547   6.556   3.623   6.178 -0.0089 -0.3560  0.7171
  165SAPE   C2218548   6.650   3.486   6.357 -0.2296  0.8108  0.1621
  165SAPE   H2R18549   6.604   3.402   6.413 -0.7837 -0.0086 -1.4647
  165SAPE   H2S18550   6.753   3.461   6.324  0.6142  2.0249  1.8290
  165SAPE    C318551   6.327   3.399   6.075  0.4487  0.4118  0.4301
  165SAPE    HX18552   6.290   3.436   5.976  0.8264 -0.5994 -0.0941
  165SAPE    HY18553   6.300   3.462   6.163 -5.1768  0.3196 -1.0318
  165SAPE   O3118554   6.275   3.262   6.099  0.0868 -0.2930  0.1293
  165SAPE   C3118555   6.255   3.225   6.218  0.1162 -0.8160 -0.1904
  165SAPE   O3218556   6.237   3.301   6.319  0.1140  0.1327  1.0645
  165SAPE   C3218557   6.241   3.077   6.224 -0.0557 -0.6450 -0.2813
  165SAPE   H2X18558   6.340   3.037   6.191 -0.8235 -2.1806 -0.7810
  165SAPE   H2Y18559   6.169   3.033   6.151  1.8432 -2.3412 -1.2015
  165SAPE   C2318560   6.655   3.620   6.437 -0.2147 -0.5657  0.3036
  165SAPE   H3R18561   6.697   3.702   6.376 -1.3082 -1.1720 -1.2791
  165SAPE   H3S18562   6.731   3.614   6.518 -0.8915  0.4639  1.0187
  165SAPE   C2418563   6.530   3.670   6.510  0.0165 -0.0510  0.0172
  165SAPE   H4R18564   6.519   3.571   6.558 -1.4116  0.0763 -0.0432
  165SAPE   H4S18565   6.449   3.699   6.440 -0.1261  0.0242  0.2137
  165SAPE   C2518566   6.547   3.777   6.617  0.3407  0.2331  0.3805
  165SAPE   H5R18567   6.545   3.879   6.576 -0.1203 -0.6719 -1.9340
  165SAPE   C2618568   6.559   3.764   6.755  0.2921 -0.0574 -0.1618
  165SAPE   H6R18569   6.590   3.840   6.828 -0.2235 -1.3662  1.4516
  165SAPE   C2718570   6.545   3.628   6.822  0.2390  0.5999 -0.2554
  165SAPE   H7R18571   6.558   3.541   6.753  1.2307  1.3139 -0.9853
  165SAPE   H7S18572   6.440   3.618   6.856  0.8550 -1.1400  1.1786
  165SAPE   C2818573   6.647   3.607   6.929 -0.1254  0.5137 -0.5440
  165SAPE   H8R18574   6.752   3.593   6.901  0.2175  1.4681  0.2142
  165SAPE   C2918575   6.623   3.602   7.061 -0.2519  0.8379 -0.2021
  165SAPE   H9R18576   6.711   3.604   7.126  0.3046  0.6447 -0.9430
  165SAPE  C21018577   6.490   3.616   7.132  0.4208 -0.1668  0.1938
  165SAPE  H10R18578   6.407   3.591   7.062 -0.4434  0.1833  1.0869
  165SAPE  H10S18579   6.479   3.725   7.152  1.1058 -0.2128  0.8182
  165SAPE  C21118580   6.491   3.522   7.251  0.2185  0.1926 -0.6071
  165SAPE  H11R18581   6.559   3.435   7.250 -1.2282 -1.0747  3.6494
  165SAPE  C21218582   6.404   3.529   7.358 -0.7146 -0.4557  0.0299
  165SAPE  H12R18583   6.413   3.455   7.438  0.3473 -1.5094 -1.0449
  165SAPE  C21318584   6.299   3.635   7.379 -0.0716  0.5842 -0.7749
  165SAPE  H13R18585   6.283   3.682   7.280  1.7023  0.0416 -1.3261
  165SAPE  H13S18586   6.330   3.716   7.448 -0.3758  1.6436 -1.8671
  165SAPE  C21418587   6.165   3.588   7.427  0.0980 -0.3075  0.1001
  165SAPE  H14R18588   6.082   3.583   7.354 -0.7973 -2.7480  1.2247
  165SAPE  C21518589   6.140   3.537   7.550  0.4831 -0.2402  0.2778
  165SAPE  H15R18590   6.041   3.502   7.580 -0.8230  0.4103 -3.0903
  165SAPE  C21618591   6.239   3.533   7.661  0.7015  0.2903 -0.0668
  165SAPE  H16R18592   6.275   3.636   7.678 -2.0843  1.2280  0.3724
  165SAPE  H16S18593   6.327   3.475   7.625  0.9928  0.0234  1.0521
  165SAPE  C21718594   6.193   3.466   7.793 -0.4861 -0.0234  0.1032
  165SAPE  H17R18595   6.102   3.523   7.823 -0.6151  0.6396 -1.4869
  165SAPE  H17S18596   6.271   3.497   7.865  1.9231  2.9490 -3.5920
  165SAPE  C21818597   6.170   3.318   7.784 -0.6565  0.4474 -0.0847
  165SAPE  H18R18598   6.261   3.268   7.746 -0.4527 -0.2175  1.2716
  165SAPE  H18S18599   6.097   3.289   7.705 -1.2376 -1.7539  1.1959
  165SAPE  C21918600   6.142   3.244   7.915 -0.4839 -0.0993 -0.0360
  165SAPE  H19R18601   6.066   3.295   7.977 -0.8300 -0.8316  0.1454
  165SAPE  H19S18602   6.233   3.247   7.979 -0.3337 -1.9452 -0.1261
  165SAPE  C22018603   6.104   3.091   7.895  0.3730  0.2923 -0.1420
  165SAPE  H20R18604   6.084   3.037   7.990  0.1718 -0.7462 -0.7564
  165SAPE  H20S18605   6.192   3.044   7.845  0.2817  0.3499 -0.3546
  165SAPE  H20T18606   6.015   3.081   7.829 -1.3231  1.1002  1.9599
  165SAPE   C3318607   6.211   3.030   6.365 -0.4218  0.2539 -0.7766
  165SAPE   H3X18608   6.237   3.103   6.446 -2.6672  0.0212  0.2009
  165SAPE   H3Y18609   6.277   2.943   6.385  0.9324  1.2776 -0.7206
  165SAPE   C3418610   6.067   2.986   6.385  0.0647  0.2958 -0.1789
  165SAPE   H4X18611   6.037   2.919   6.301 -3.0073 -1.0390  1.8878
  165SAPE   H4Y18612   6.011   3.081   6.370  1.2466  1.1235  0.5666
  165SAPE   C3518613   6.031   2.919   6.526 -0.4621  0.2342  0.2474
  165SAPE   H5X18614   5.922   2.925   6.543 -0.6410  0.4009 -0.9212
  165SAPE   H5Y18615   6.083   2.984   6.600  1.0482 -1.6709  0.8790
  165SAPE   C3618616   6.069   2.773   6.523 -0.4224  0.0020 -0.2745
  165SAPE   H6X18617   6.173   2.755   6.490 -0.3292  4.2796 -2.5735
  165SAPE   H6Y18618   6.005   2.718   6.451 -0.3387 -0.5881  0.0955
  165SAPE   C3718619   6.057   2.704   6.667  0.3486  0.1213 -0.0368
  165SAPE   H7X18620   6.072   2.598   6.634 -0.9892 -0.4157  1.0330
  165SAPE   H7Y18621   5.952   2.712   6.700  0.1336 -0.0598 -0.6585
  165SAPE   C3818622   6.149   2.767   6.773 -0.9473 -0.4763 -0.1461
  165SAPE   H8X18623   6.137   2.877   6.786  0.2868 -0.3558  0.0952
  165SAPE   H8Y18624   6.260   2.763   6.760 -0.6713 -1.4099  2.1812
  165SAPE   C3918625   6.132   2.695   6.909 -0.6186 -1.1221 -0.0725
  165SAPE   H9X18626   6.109   2.590   6.884  1.5084 -1.6098 -0.1147
  165SAPE   H9Y18627   6.039   2.737   6.954 -0.2815 -0.2508 -0.1705
  165SAPE  C31018628   6.260   2.693   6.996  0.1564 -0.4396  0.2744
  165SAPE  H10X18629   6.329   2.624   6.943 -0.0109  1.4800 -2.5625
  165SAPE  H10Y18630   6.247   2.650   7.097 -2.7989 -1.9844 -0.7067
  165SAPE  C31118631   6.331   2.825   7.013 -0.3285 -0.2966  0.6192
  165SAPE  H11X18632   6.370   2.828   7.117 -1.1114  1.6074  0.8838
  165SAPE  H11Y18633   6.252   2.903   7.009  1.0310  1.0765 -0.0289
  165SAPE  C31218634   6.452   2.855   6.922 -0.5902  0.0847 -0.3359
  165SAPE  H12X18635   6.421   2.888   6.821  0.2803 -4.7744 -2.3186
  165SAPE  H12Y18636   6.515   2.763   6.913  1.1852  1.2184  0.1754
  165SAPE  C31318637   6.550   2.954   6.978 -0.1461  0.0731  0.3898
  165SAPE  H13X18638   6.646   2.935   6.926 -0.6379  0.3279 -0.6296
  165SAPE  H13Y18639   6.570   2.933   7.085  0.6056  0.5087  0.3360
  165SAPE  C31418640   6.506   3.092   6.960 -0.4300  0.0655 -0.5534
  165SAPE  H14X18641   6.407   3.106   7.008 -0.5742 -1.3285 -0.4321
  165SAPE  H14Y18642   6.499   3.125   6.854 -1.1805  0.1510 -0.4808
  165SAPE  C31518643   6.603   3.187   7.038 -0.0210 -0.1747  0.7076
  165SAPE  H15X18644   6.629   3.153   7.141  0.6322 -1.7530  0.0360
  165SAPE  H15Y18645   6.550   3.285   7.037  0.7993  0.2876 -2.9563
  165SAPE  C31618646   6.737   3.213   6.978 -0.2793  0.1209  0.7518
  165SAPE  H16X18647   6.725   3.280   6.890 -0.5665  1.1567  1.5773
  165SAPE  H16Y18648   6.775   3.119   6.933  0.4674  1.3562 -1.2723
  165SAPE  C31718649   6.837   3.273   7.074 -0.2799 -0.5986  0.2213
  165SAPE  H17X18650   6.882   3.201   7.145  1.5733  1.7265  1.4696
  165SAPE  H17Y18651   6.785   3.342   7.144 -0.3046 -2.4719  2.0733
  165SAPE  C31818652   6.949   3.353   7.008 -0.2263  0.7827  0.3740
  165SAPE  H18X18653   7.033   3.286   6.984  0.7223  1.0342  2.8022
  165SAPE  H18Y18654   6.994   3.429   7.076  0.2317 -0.9510  2.0658
  165SAPE  H18Z18655   6.911   3.396   6.913 -3.6357 -2.3216  0.2523
  166SAPE     N18656   3.800   0.150   5.821 -0.3150  0.6928  0.4569
  166SAPE   HN118657   3.740   0.110   5.747  0.9696 -0.0174 -0.2268
  166SAPE   HN218658   3.903   0.143   5.805 -0.8133 -3.1735 -1.7347
  166SAPE   HN318659   3.772   0.101   5.909  0.0746  1.4794  1.0244
  166SAPE   C1218660   3.759   0.292   5.827  0.3071  0.2849 -0.2657
  166SAPE  H12A18661   3.648   0.301   5.823  0.2007 -0.9098 -0.1116
  166SAPE  H12B18662   3.814   0.343   5.744  1.6004  1.7580  1.4525
  166SAPE   C1118663   3.810   0.357   5.957  0.3247  0.5368  0.3530
  166SAPE  H11A18664   3.762   0.297   6.038  0.0316  1.4166  0.8418
  166SAPE  H11B18665   3.765   0.458   5.952  0.5714  0.6380  0.1637
  166SAPE     P18666   4.035   0.483   5.953  0.3198  0.2347  0.0855
  166SAPE   O1318667   4.171   0.465   6.004 -0.2401  0.6695  0.1828
  166SAPE   O1418668   4.021   0.520   5.810 -0.3548  0.1316 -0.5409
  166SAPE   O1218669   3.951   0.359   5.976  0.4668 -0.2395 -0.2628
  166SAPE   O1118670   3.965   0.584   6.050  0.0683 -0.0184  0.3102
  166SAPE    C118671   3.930   0.554   6.181 -0.2268 -0.7637 -0.3501
  166SAPE    HA18672   3.870   0.461   6.194 -1.2379  0.1425  1.6449
  166SAPE    HB18673   4.027   0.542   6.234 -0.1753  0.4855 -0.1502
  166SAPE    C218674   3.844   0.662   6.252  0.3959  0.2733 -0.6332
  166SAPE    HS18675   3.903   0.756   6.248  2.0501 -0.7609 -1.3486
  166SAPE   O2118676   3.821   0.618   6.381 -0.4309 -0.0752  0.4536
  166SAPE   C2118677   3.809   0.717   6.474  0.5671 -0.1269 -0.1667
  166SAPE   O2218678   3.842   0.834   6.452  0.4793  0.5862  0.3307
  166SAPE   C2218679   3.787   0.658   6.614  0.6221 -0.0937 -0.1624
  166SAPE   H2R18680   3.770   0.740   6.686  0.9237 -1.3555  1.3810
  166SAPE   H2S18681   3.690   0.605   6.607  0.4147  0.0712  1.3400
  166SAPE    C318682   3.715   0.696   6.166  0.1180 -0.3391 -0.5512
  166SAPE    HX18683   3.756   0.745   6.076  0.1971  1.7640  0.6040
  166SAPE    HY18684   3.647   0.770   6.214  0.4062  1.0982 -2.3369
  166SAPE   O3118685   3.641   0.579   6.134  0.4190 -0.5726 -0.1880
  166SAPE   C3118686   3.572   0.537   6.237  0.1288 -0.4443 -0.6315
  166SAPE   O3218687   3.550   0.601   6.337 -0.3978 -0.8468  0.4256
  166SAPE   C3218688   3.510   0.397   6.216 -0.8615 -0.5009 -0.2195
  166SAPE   H2X18689   3.549   0.343   6.126 -0.4987 -0.0410 -0.3411
  166SAPE   H2Y18690   3.401   0.414   6.208 -0.9792 -0.7016  0.9861
  166SAPE   C2318691   3.904   0.573   6.666 -0.1637  0.5785  0.6507
  166SAPE   H3R18692   3.980   0.550   6.588 -1.1989  0.3964 -0.3063
  166SAPE   H3S18693   3.869   0.477   6.707 -1.9536  1.6797  1.7629
  166SAPE   C2418694   3.973   0.654   6.767 -0.0596  0.1485 -0.7084
  166SAPE   H4R18695   3.891   0.681   6.836 -1.0731 -1.3501 -1.2896
  166SAPE   H4S18696   3.998   0.755   6.730 -0.1191 -0.3630 -2.1798
  166SAPE   C2518697   4.094   0.580   6.833  0.2919 -0.0631 -0.2125
  166SAPE   H5R18698   4.186   0.637   6.817  1.0545 -1.4377 -0.8478
  166SAPE   C2618699   4.089   0.479   6.925  0.2981  0.3858  0.2838
  166SAPE   H6R18700   4.185   0.454   6.972 -0.1824  1.1273  1.6790
  166SAPE   C2718701   3.977   0.400   6.986 -0.3572  0.6687  0.4844
  166SAPE   H7R18702   4.025   0.309   7.027  0.0467  1.3173  1.4665
  166SAPE   H7S18703   3.911   0.365   6.904 -0.2543 -0.1194  0.7299
  166SAPE   C2818704   3.899   0.466   7.095 -0.5168 -0.5851  0.2075
  166SAPE   H8R18705   3.798   0.501   7.068 -0.8768 -0.2918  1.8584
  166SAPE   C2918706   3.914   0.473   7.228 -0.2444 -0.0140 -0.2341
  166SAPE   H9R18707   3.839   0.532   7.284  1.2724  2.3345 -0.6047
  166SAPE  C21018708   4.025   0.411   7.306  1.1963  0.2850  0.1766
  166SAPE  H10R18709   4.076   0.504   7.339 -0.2819  0.3757  2.2908
  166SAPE  H10S18710   4.094   0.361   7.235  2.7836  1.9104  0.5459
  166SAPE  C21118711   3.957   0.327   7.411 -0.6766  0.3121  0.3988
  166SAPE  H11R18712   3.954   0.222   7.376 -0.8450  0.8272 -1.2064
  166SAPE  C21218713   3.927   0.353   7.539  0.9005  0.0039  0.4920
  166SAPE  H12R18714   3.920   0.267   7.607 -1.4078 -0.3029 -0.0713
  166SAPE  C21318715   3.942   0.485   7.604  0.2567 -0.2348  0.8257
  166SAPE  H13R18716   3.963   0.570   7.535  2.3857 -0.3010  1.3676
  166SAPE  H13S18717   4.035   0.473   7.663 -0.5544  1.1475  2.4279
  166SAPE  C21418718   3.817   0.515   7.672  0.0122 -0.2618 -0.8078
  166SAPE  H14R18719   3.732   0.538   7.607 -1.1165 -1.2454  0.2906
  166SAPE  C21518720   3.803   0.513   7.810  0.3691  0.2362  0.3419
  166SAPE  H15R18721   3.709   0.542   7.859  0.0727 -0.2368  0.0544
  166SAPE  C21618722   3.920   0.480   7.900 -0.4526  0.0294 -0.4085
  166SAPE  H16R18723   3.972   0.576   7.921 -2.1159  0.4818  1.8452
  166SAPE  H16S18724   3.988   0.408   7.850  1.4852  2.3523 -1.2188
  166SAPE  C21718725   3.863   0.434   8.044 -0.1966  0.4040  1.5119
  166SAPE  H17R18726   3.956   0.422   8.103  1.3727  2.4957 -0.4581
  166SAPE  H17S18727   3.807   0.338   8.040  2.1756 -0.9796  0.9550
  166SAPE  C21818728   3.790   0.540   8.125  0.2257 -0.3848 -0.8895
  166SAPE  H18R18729   3.693   0.570   8.080  1.0303  0.2194 -2.2607
  166SAPE  H18S18730   3.852   0.632   8.128 -0.4540  0.0330  0.7489
  166SAPE  C21918731   3.763   0.472   8.262  0.4396 -0.1059 -0.4900
  166SAPE  H19R18732   3.856   0.431   8.307 -0.8663 -1.0376  1.4293
  166SAPE  H19S18733   3.690   0.389   8.260  0.0717  0.1630  1.1847
  166SAPE  C22018734   3.698   0.578   8.360  0.2484  0.2612  0.1878
  166SAPE  H20R18735   3.675   0.530   8.458 -0.1096 -0.7904 -0.4049
  166SAPE  H20S18736   3.597   0.608   8.323  0.2094 -0.3852 -0.2330
  166SAPE  H20T18737   3.765   0.666   8.365  1.6268 -0.7658  0.0225
  166SAPE   C3318738   3.521   0.308   6.348  0.3560  0.2722 -0.7223
  166SAPE   H3X18739   3.460   0.216   6.339  1.0414  0.0388 -3.2211
  166SAPE   H3Y18740   3.472   0.359   6.434 -1.7670 -0.2911 -1.5660
  166SAPE   C3418741   3.667   0.257   6.382 -0.2402  0.4485  0.0342
  166SAPE   H4X18742   3.735   0.344   6.394 -2.0736  2.2422 -2.0285
  166SAPE   H4Y18743   3.697   0.207   6.287  1.5184  0.9455  0.3162
  166SAPE   C3518744   3.683   0.151   6.494 -0.5592  0.3336  0.1233
  166SAPE   H5X18745   3.781   0.100   6.500 -1.1137 -0.5662  1.7525
  166SAPE   H5Y18746   3.604   0.078   6.464  0.9606 -1.1668 -0.2776
  166SAPE   C3618747   3.645   0.217   6.631  0.5538 -0.4135  0.2905
  166SAPE   H6X18748   3.551   0.273   6.615  0.9866 -0.2631 -1.9269
  166SAPE   H6Y18749   3.725   0.290   6.656  3.2597 -2.1936 -2.6220
  166SAPE   C3718750   3.641   0.114   6.747  0.2035 -0.0894 -0.2854
  166SAPE   H7X18751   3.732   0.050   6.746  0.6134  0.3654  3.2573
  166SAPE   H7Y18752   3.557   0.041   6.738  0.7788 -0.6962 -0.7984
  166SAPE   C3818753   3.624   0.180   6.881  0.2385 -0.9994 -0.4233
  166SAPE   H8X18754   3.516   0.202   6.893  0.2995 -1.2286  0.5647
  166SAPE   H8Y18755   3.683   0.274   6.879  0.7704 -1.3518 -3.7422
  166SAPE   C3918756   3.658   0.099   6.998 -0.0781 -0.4968 -0.5690
  166SAPE   H9X18757   3.764   0.067   7.009 -0.9585 -2.4742  3.0523
  166SAPE   H9Y18758   3.594   0.009   6.985 -0.7457 -0.3961  1.6847
  166SAPE  C31018759   3.617   0.154   7.133  0.2405 -0.0029 -0.5694
  166SAPE  H10X18760   3.510   0.184   7.130 -0.5385 -2.7801 -1.7800
  166SAPE  H10Y18761   3.672   0.248   7.158  0.9254 -0.8360  1.0652
  166SAPE  C31118762   3.641   0.049   7.242  0.1627  0.1358 -0.6619
  166SAPE  H11X18763   3.751   0.032   7.248  0.2736  0.4497 -1.8029
  166SAPE  H11Y18764   3.592  -0.050   7.234  0.5039 -0.0760 -0.1946
  166SAPE  C31218765   3.610   0.099   7.386  0.1609 -0.1912  0.2633
  166SAPE  H12X18766   3.501   0.116   7.398 -0.1492 -1.0644 -1.1498
  166SAPE  H12Y18767   3.662   0.196   7.397 -0.5090  0.1045  0.8156
  166SAPE  C31318768   3.663   0.001   7.495 -0.1169 -1.2868  0.1798
  166SAPE  H13X18769   3.771  -0.018   7.480 -0.2749 -1.2112 -1.1493
  166SAPE  H13Y18770   3.620  -0.101   7.479 -0.9885 -0.7911 -0.6599
  166SAPE  C31418771   3.633   0.046   7.637  0.4671  0.5460 -0.4118
  166SAPE  H14X18772   3.524   0.066   7.639  0.7048  1.8100  0.6281
  166SAPE  H14Y18773   3.698   0.129   7.674  0.7303  0.6308 -1.0699
  166SAPE  C31518774   3.644  -0.064   7.747 -0.0616  0.1924  0.3711
  166SAPE  H15X18775   3.745  -0.111   7.745 -0.5154 -0.9928  3.3257
  166SAPE  H15Y18776   3.574  -0.142   7.712 -0.3359  0.4536  0.3403
  166SAPE  C31618777   3.618  -0.026   7.897  0.1154 -0.0756  0.1528
  166SAPE  H16X18778   3.593  -0.122   7.949 -0.6342 -0.5936 -1.1265
  166SAPE  H16Y18779   3.527   0.036   7.884 -0.5345 -0.7279  1.4717
  166SAPE  C31718780   3.717   0.061   7.974  0.2712 -0.3485  0.0130
  166SAPE  H17X18781   3.689   0.080   8.080  1.2853 -0.9638  0.4056
  166SAPE  H17Y18782   3.722   0.158   7.919 -0.1600  0.6714  1.7286
  166SAPE  C31818783   3.854  -0.005   7.992 -0.1808  0.0323  0.5874
  166SAPE  H18X18784   3.854  -0.071   8.081  1.4268  0.2711  0.7880
  166SAPE  H18Y18785   3.922   0.074   8.030  0.0404 -0.4316  1.1586
  166SAPE  H18Z18786   3.894  -0.065   7.908  0.6381 -0.2899  1.1996
  167SAPE     N18787   6.029   6.293   5.729 -0.1193 -0.3872  0.3172
  167SAPE   HN118788   6.075   6.264   5.640  1.3099 -0.7091  1.1554
  167SAPE   HN218789   6.102   6.342   5.784  0.7263 -0.7802 -0.4253
  167SAPE   HN318790   6.012   6.206   5.783  0.9406  0.3970  1.9381
  167SAPE   C1218791   5.904   6.363   5.709  0.6936 -0.4385  0.2828
  167SAPE  H12A18792   5.835   6.295   5.655 -1.7616  1.1708  1.2953
  167SAPE  H12B18793   5.916   6.461   5.659 -1.2777 -0.9433 -1.2767
  167SAPE   C1118794   5.838   6.389   5.850 -0.9542 -0.3213  0.1110
  167SAPE  H11A18795   5.814   6.298   5.909 -2.0367 -2.0810 -2.9262
  167SAPE  H11B18796   5.740   6.439   5.840  0.5155  2.2710 -2.1149
  167SAPE     P18797   5.926   6.623   5.926 -0.2466 -0.1435  0.2509
  167SAPE   O1318798   6.067   6.673   5.902 -0.6515 -0.1199 -0.3515
  167SAPE   O1418799   5.827   6.672   5.833  0.3353 -0.2621 -0.0816
  167SAPE   O1218800   5.931   6.466   5.930  0.1276 -0.9070  0.2999
  167SAPE   O1118801   5.892   6.662   6.069  0.4067 -0.0738  0.1348
  167SAPE    C118802   5.945   6.580   6.176 -0.1395  0.1214  1.2012
  167SAPE    HA18803   6.000   6.489   6.146  0.7162  1.1197 -0.3303
  167SAPE    HB18804   6.022   6.638   6.232 -1.5582  2.3401  0.9366
  167SAPE    C218805   5.824   6.538   6.273 -0.1454  0.1407  0.3467
  167SAPE    HS18806   5.867   6.480   6.358  0.6032  1.5021  0.9160
  167SAPE   O2118807   5.720   6.467   6.209 -1.1287  0.2718 -0.2797
  167SAPE   C2118808   5.753   6.339   6.191  0.9225 -0.1877  0.1912
  167SAPE   O2218809   5.862   6.281   6.210 -0.2120 -0.6892  0.0734
  167SAPE   C2218810   5.630   6.262   6.143 -0.4603 -0.2897  0.0441
  167SAPE   H2R18811   5.553   6.339   6.120  2.0960  1.8360 -1.6078
  167SAPE   H2S18812   5.660   6.233   6.040 -0.9304  1.2493 -0.5272
  167SAPE    C318813   5.764   6.665   6.344 -0.2125 -0.7351  0.2337
  167SAPE    HX18814   5.690   6.631   6.419 -1.6937 -0.0539 -0.8917
  167SAPE    HY18815   5.717   6.729   6.266  1.6658 -0.0292 -0.3576
  167SAPE   O3118816   5.873   6.740   6.404 -0.2933  0.2610 -0.5013
  167SAPE   C3118817   5.834   6.856   6.471  0.1707  0.3405 -0.1619
  167SAPE   O3218818   5.718   6.893   6.472 -0.0078 -0.3718 -0.0415
  167SAPE   C3218819   5.944   6.934   6.531 -0.8358  0.4280  0.3488
  167SAPE   H2X18820   5.901   7.012   6.597 -0.5973 -0.3115  1.3929
  167SAPE   H2Y18821   5.985   6.975   6.436 -1.2715  2.0979  0.8675
  167SAPE   C2318822   5.579   6.135   6.219  0.1066  0.3789  0.4995
  167SAPE   H3R18823   5.667   6.068   6.210 -0.2020 -0.2224  1.8204
  167SAPE   H3S18824   5.491   6.083   6.174 -1.8744 -0.1439  4.6750
  167SAPE   C2418825   5.543   6.161   6.368  0.2844 -0.2528  0.2605
  167SAPE   H4R18826   5.628   6.213   6.417 -0.2085  1.7866 -0.9992
  167SAPE   H4S18827   5.518   6.070   6.427 -0.7278 -0.6984 -0.8203
  167SAPE   C2518828   5.417   6.245   6.363  0.4197  0.2497 -0.4418
  167SAPE   H5R18829   5.357   6.240   6.271 -1.0232  2.4230  0.3522
  167SAPE   C2618830   5.375   6.324   6.465 -0.7119 -0.1685 -0.8415
  167SAPE   H6R18831   5.279   6.376   6.459 -1.4684 -1.3520  0.6215
  167SAPE   C2718832   5.441   6.346   6.597 -0.3858  0.2223 -0.7611
  167SAPE   H7R18833   5.515   6.264   6.614  1.3046  1.7931 -0.3898
  167SAPE   H7S18834   5.378   6.337   6.688 -1.1923 -0.1949 -1.3539
  167SAPE   C2818835   5.530   6.472   6.580  0.2240  0.9228  0.6475
  167SAPE   H8R18836   5.595   6.469   6.492 -0.5173  1.6459  0.0685
  167SAPE   C2918837   5.552   6.565   6.673 -1.1883 -0.5680 -0.1481
  167SAPE   H9R18838   5.622   6.646   6.649 -2.2189  0.1983 -0.6107
  167SAPE  C21018839   5.484   6.571   6.809  0.3830 -0.1163 -0.7498
  167SAPE  H10R18840   5.532   6.648   6.873  0.5048 -0.2191 -0.7155
  167SAPE  H10S18841   5.502   6.478   6.867 -1.2301 -0.6103 -1.0067
  167SAPE  C21118842   5.339   6.610   6.797 -0.0291 -0.5725 -0.2332
  167SAPE  H11R18843   5.305   6.672   6.713  2.0360  0.8091 -0.0801
  167SAPE  C21218844   5.240   6.573   6.882  0.3366  0.6061 -0.1497
  167SAPE  H12R18845   5.133   6.596   6.873  0.2234  0.9513  1.8756
  167SAPE  C21318846   5.265   6.481   7.002  0.0303  0.0716  0.3131
  167SAPE  H13R18847   5.362   6.426   6.995  0.0389  0.2837 -1.7281
  167SAPE  H13S18848   5.177   6.413   7.002  1.8010 -2.3165 -1.7680
  167SAPE  C21418849   5.284   6.571   7.125  0.6859  0.1256  0.2638
  167SAPE  H14R18850   5.221   6.661   7.130  1.2639  0.5985 -0.7868
  167SAPE  C21518851   5.368   6.550   7.223  0.7615 -0.7715  0.6734
  167SAPE  H15R18852   5.376   6.627   7.301  1.2817  0.6016 -0.7191
  167SAPE  C21618853   5.469   6.447   7.252  0.1475  0.1726  0.3070
  167SAPE  H16R18854   5.572   6.489   7.253 -0.7443  2.4585 -0.2391
  167SAPE  H16S18855   5.458   6.359   7.184  1.3465 -0.0849  0.4301
  167SAPE  C21718856   5.438   6.408   7.403  0.2469  0.2510  0.4607
  167SAPE  H17R18857   5.340   6.357   7.414 -1.2390  2.8002 -0.5576
  167SAPE  H17S18858   5.435   6.506   7.454  1.1586 -0.9808  3.0072
  167SAPE  C21818859   5.559   6.345   7.472 -0.8979  0.3303  0.5734
  167SAPE  H18R18860   5.644   6.414   7.453 -0.7652  0.1520  0.5161
  167SAPE  H18S18861   5.573   6.248   7.419  0.1487  0.9699 -0.3605
  167SAPE  C21918862   5.548   6.325   7.625  0.2483  0.5816 -0.3431
  167SAPE  H19R18863   5.450   6.275   7.639  1.1037 -1.5966 -1.7699
  167SAPE  H19S18864   5.548   6.428   7.668  1.5373  0.8761 -1.0213
  167SAPE  C22018865   5.661   6.240   7.688 -0.0655 -0.1954 -0.6093
  167SAPE  H20R18866   5.758   6.292   7.678 -0.5679  0.9542  0.3863
  167SAPE  H20S18867   5.665   6.132   7.664  0.1947 -0.3239  0.0022
  167SAPE  H20T18868   5.642   6.247   7.797 -0.2577  2.1063 -0.7632
  167SAPE   C3318869   6.053   6.853   6.599 -0.1382  0.3819 -0.6659
  167SAPE   H3X18870   6.145   6.915   6.594  0.0204  0.0393 -2.1293
  167SAPE   H3Y18871   6.088   6.761   6.548  0.4437  0.1495  0.1420
  167SAPE   C3418872   6.027   6.815   6.742 -0.0692 -0.5962 -0.2821
  167SAPE   H4X18873   5.960   6.879   6.803  1.1887 -1.7618  2.4306
  167SAPE   H4Y18874   6.122   6.822   6.799 -0.7413  1.2153  0.6350
  167SAPE   C3518875   5.969   6.675   6.761  0.5047  0.5336 -0.6908
  167SAPE   H5X18876   6.018   6.593   6.704 -1.6673 -2.4684  1.5648
  167SAPE   H5Y18877   5.872   6.674   6.708  1.2853 -1.7242 -2.1896
  167SAPE   C3618878   5.968   6.636   6.909  0.0887 -0.0666  0.3004
  167SAPE   H6X18879   5.912   6.714   6.965 -3.6512 -2.7663  0.4882
  167SAPE   H6Y18880   6.073   6.636   6.947 -0.2777 -0.9126  1.3195
  167SAPE   C3718881   5.901   6.493   6.926  0.4424 -0.8074 -1.0844
  167SAPE   H7X18882   5.947   6.434   6.844 -0.6978 -1.9861 -0.8921
  167SAPE   H7Y18883   5.793   6.508   6.906  0.4467 -2.3255 -2.3894
  167SAPE   C3818884   5.943   6.414   7.050  0.0696  0.3649  0.2214
  167SAPE   H8X18885   6.053   6.398   7.057 -0.3181 -1.8931  1.8337
  167SAPE   H8Y18886   5.898   6.313   7.035  2.7865 -1.2136  2.2250
  167SAPE   C3918887   5.886   6.482   7.175 -0.1290  0.2047  0.1386
  167SAPE   H9X18888   5.781   6.515   7.157  0.7145  2.3131 -0.9526
  167SAPE   H9Y18889   5.935   6.579   7.198  1.2607 -0.0599 -1.6322
  167SAPE  C31018890   5.890   6.396   7.306 -0.4909 -0.0221 -0.0371
  167SAPE  H10X18891   5.815   6.315   7.306 -2.7906  2.0385 -1.8160
  167SAPE  H10Y18892   5.872   6.457   7.397  1.2716 -0.5675  0.6991
  167SAPE  C31118893   6.023   6.327   7.331 -0.0886  0.7066  0.5549
  167SAPE  H11X18894   6.097   6.407   7.315  0.7709  0.0423  1.1729
  167SAPE  H11Y18895   6.028   6.240   7.261 -1.1434  0.3295  0.9311
  167SAPE  C31218896   6.038   6.281   7.473 -0.1076 -0.0767 -1.1682
  167SAPE  H12X18897   6.136   6.229   7.466  0.6001  1.1508 -0.5779
  167SAPE  H12Y18898   5.958   6.209   7.499 -1.7887  1.5282 -1.7463
  167SAPE  C31318899   6.068   6.405   7.567  0.7276  0.0274 -0.1976
  167SAPE  H13X18900   5.969   6.449   7.590 -0.8839 -3.2078 -0.6509
  167SAPE  H13Y18901   6.138   6.474   7.516 -0.0579  0.6142 -0.4975
  167SAPE  C31418902   6.115   6.358   7.704  0.0226  0.2312  0.1540
  167SAPE  H14X18903   6.208   6.299   7.690 -0.5648 -0.1448 -2.3696
  167SAPE  H14Y18904   6.045   6.278   7.737 -0.4267  0.3832 -0.4358
  167SAPE  C31518905   6.126   6.475   7.796 -0.3122 -0.1097  0.0629
  167SAPE  H15X18906   6.031   6.532   7.797 -0.2872 -0.0738  1.2162
  167SAPE  H15Y18907   6.194   6.548   7.747  0.5896 -0.1983  1.1543
  167SAPE  C31618908   6.183   6.436   7.932  0.0511 -0.7480  0.6603
  167SAPE  H16X18909   6.282   6.386   7.917 -0.1816 -0.9547 -0.2030
  167SAPE  H16Y18910   6.121   6.358   7.982  0.1689 -0.4863  1.2211
  167SAPE  C31718911   6.202   6.557   8.026  0.1663  0.5648  0.2018
  167SAPE  H17X18912   6.103   6.605   8.041 -0.6587 -0.2382 -2.5237
  167SAPE  H17Y18913   6.267   6.632   7.977  1.0325  0.2919  0.9206
  167SAPE  C31818914   6.257   6.513   8.165  0.2162 -0.5634  0.2072
  167SAPE  H18X18915   6.350   6.451   8.157 -0.0501 -0.8209 -0.9541
  167SAPE  H18Y18916   6.181   6.459   8.224  0.6317 -0.9477  0.3969
  167SAPE  H18Z18917   6.283   6.606   8.221  0.4496  0.8408 -2.1651
  168SAPE     N18918   5.992   0.970   5.998  0.3291 -0.8055 -0.2723
  168SAPE   HN118919   6.049   0.972   6.085  1.4599 -3.7503 -0.8826
  168SAPE   HN218920   5.994   1.060   5.946 -0.6240 -0.9452 -0.5656
  168SAPE   HN318921   5.893   0.957   6.029  0.4183  0.2019  0.4753
  168SAPE   C1218922   6.042   0.866   5.907 -0.2924 -0.2078  0.1480
  168SAPE  H12A18923   5.965   0.869   5.826  0.1036  1.9469 -0.1752
  168SAPE  H12B18924   6.042   0.766   5.956  0.2835 -0.9061 -1.2512
  168SAPE   C1118925   6.183   0.901   5.854  0.1235 -0.4103  0.5412
  168SAPE  H11A18926   6.191   1.008   5.825 -1.4685 -0.3476  0.2878
  168SAPE  H11B18927   6.203   0.844   5.761 -0.2134 -3.5454  2.3013
  168SAPE     P18928   6.355   0.749   5.975  0.0023 -0.1633 -0.0653
  168SAPE   O1318929   6.327   0.654   5.860 -0.0114 -0.2114  0.3434
  168SAPE   O1418930   6.495   0.780   6.009 -0.3156  0.2597  0.0744
  168SAPE   O1218931   6.277   0.883   5.958 -0.0089  0.6066  0.3487
  168SAPE   O1118932   6.293   0.680   6.105  0.1550  0.4315  0.2738
  168SAPE    C118933   6.294   0.537   6.134 -0.2674 -0.4962 -0.4031
  168SAPE    HA18934   6.295   0.488   6.034  2.0707  1.1277 -1.2209
  168SAPE    HB18935   6.387   0.514   6.189  0.0576  3.4435  0.8592
  168SAPE    C218936   6.173   0.475   6.211  0.1027 -0.2518 -0.0658
  168SAPE    HS18937   6.085   0.482   6.143  0.3202 -0.0235 -0.3226
  168SAPE   O2118938   6.145   0.564   6.326  0.0526  0.1018 -0.2237
  168SAPE   C2118939   6.029   0.546   6.381 -0.3595 -0.4754  0.6902
  168SAPE   O2218940   5.943   0.470   6.340  0.4451  0.8346 -0.4344
  168SAPE   C2218941   6.022   0.625   6.512 -0.5151 -0.6321 -0.7659
  168SAPE   H2R18942   6.065   0.726   6.494 -0.1469 -0.8629 -1.1904
  168SAPE   H2S18943   5.914   0.638   6.535  0.1947  2.1504  1.2118
  168SAPE    C318944   6.205   0.326   6.259  0.0042  0.5785 -0.7543
  168SAPE    HX18945   6.197   0.259   6.171 -0.3697 -2.0386  1.1895
  168SAPE    HY18946   6.123   0.292   6.326  0.7263  0.6072  0.1619
  168SAPE   O3118947   6.330   0.313   6.330  0.3550  0.1929 -0.0587
  168SAPE   C3118948   6.431   0.258   6.258 -0.0768 -0.0466  0.2483
  168SAPE   O3218949   6.428   0.228   6.141  0.2885 -0.0828 -0.3093
  168SAPE   C3218950   6.552   0.229   6.340 -0.4589 -0.3407  0.6277
  168SAPE   H2X18951   6.624   0.173   6.275 -1.5049  0.2754 -1.0920
  168SAPE   H2Y18952   6.530   0.159   6.423 -0.0063 -1.1112  0.1077
  168SAPE   C2318953   6.094   0.544   6.617  0.4844 -0.7211 -0.5704
  168SAPE   H3R18954   6.125   0.598   6.709  2.8884 -0.9738 -1.2052
  168SAPE   H3S18955   6.190   0.516   6.569  1.1905  0.9534 -0.1850
  168SAPE   C2418956   6.011   0.423   6.655 -0.1468  0.2585 -0.4314
  168SAPE   H4R18957   5.988   0.353   6.571  0.4992 -0.2641 -0.1760
  168SAPE   H4S18958   5.916   0.468   6.691 -0.0832 -1.6218  2.2332
  168SAPE   C2518959   6.087   0.341   6.756 -0.5466  0.1704 -0.0538
  168SAPE   H5R18960   6.176   0.285   6.723 -1.3298 -1.7613  1.0011
  168SAPE   C2618961   6.062   0.333   6.890 -0.1341  0.1150  0.4490
  168SAPE   H6R18962   6.141   0.290   6.954  1.2245  0.9309 -0.6384
  168SAPE   C2718963   5.950   0.399   6.960  0.3990  0.6616  0.2481
  168SAPE   H7R18964   5.922   0.321   7.034  0.2372 -0.2886 -0.7985
  168SAPE   H7S18965   5.858   0.421   6.901 -0.7679 -0.4507  1.6357
  168SAPE   C2818966   5.993   0.528   7.030  0.3403 -0.1419 -0.1688
  168SAPE   H8R18967   6.024   0.605   6.958  1.4576  0.1404  0.5936
  168SAPE   C2918968   6.006   0.551   7.163  0.3696  0.5961  0.6578
  168SAPE   H9R18969   6.066   0.637   7.195  0.9827  0.1058  0.8160
  168SAPE  C21018970   5.965   0.464   7.278  0.1614 -0.1821 -0.3496
  168SAPE  H10R18971   6.051   0.402   7.312  0.4105  0.7822  0.8060
  168SAPE  H10S18972   5.905   0.383   7.230 -1.5814 -0.1077  1.6216
  168SAPE  C21118973   5.887   0.514   7.398 -0.1748  0.4183  0.1349
  168SAPE  H11R18974   5.784   0.474   7.403  0.3834 -0.8429  1.9661
  168SAPE  C21218975   5.926   0.584   7.499 -0.0028 -0.2235 -0.7250
  168SAPE  H12R18976   5.849   0.607   7.574  0.2295  0.9914 -0.8443
  168SAPE  C21318977   6.062   0.643   7.529 -0.2672  0.5740  0.0223
  168SAPE  H13R18978   6.074   0.753   7.539  2.8685  0.2670  0.2968
  168SAPE  H13S18979   6.125   0.627   7.439  0.0737  0.6950  0.2394
  168SAPE  C21418980   6.141   0.571   7.643 -0.7940 -0.1979  0.2472
  168SAPE  H14R18981   6.197   0.483   7.608 -0.8942 -0.0879 -0.1954
  168SAPE  C21518982   6.148   0.612   7.773 -0.4596  0.1298  0.3367
  168SAPE  H15R18983   6.213   0.568   7.850  0.9032  2.5126  0.5793
  168SAPE  C21618984   6.071   0.735   7.834 -0.3071  0.1139  0.0571
  168SAPE  H16R18985   5.980   0.751   7.773 -0.1813 -1.2433 -0.5111
  168SAPE  H16S18986   6.133   0.827   7.832  0.1280 -0.1137  2.0066
  168SAPE  C21718987   6.015   0.705   7.974  0.3496  0.2484  0.2203
  168SAPE  H17R18988   6.105   0.687   8.037  1.0009  1.5299 -0.3194
  168SAPE  H17S18989   5.951   0.616   7.991 -0.3650  0.8259  0.6022
  168SAPE  C21818990   5.951   0.822   8.038  0.2388 -0.1907  0.4417
  168SAPE  H18R18991   5.868   0.851   7.971  0.3184  0.1801  0.5056
  168SAPE  H18S18992   6.024   0.903   8.020 -1.2570  0.6111 -2.3926
  168SAPE  C21918993   5.923   0.812   8.188  0.6497 -0.0324  0.5527
  168SAPE  H19R18994   6.015   0.781   8.242  2.5659 -2.0162 -3.6210
  168SAPE  H19S18995   5.855   0.728   8.214  1.0639 -0.6313 -0.2896
  168SAPE  C22018996   5.864   0.941   8.234 -0.3705  0.0942 -0.1577
  168SAPE  H20R18997   5.856   0.950   8.345 -0.8336 -0.0401 -0.1824
  168SAPE  H20S18998   5.761   0.957   8.197 -0.5017 -0.8239 -0.2018
  168SAPE  H20T18999   5.923   1.027   8.196  0.5141 -0.0956  0.7519
  168SAPE   C3319000   6.638   0.349   6.391  0.5391 -0.3649 -0.4177
  168SAPE   H3X19001   6.662   0.412   6.303 -0.2534 -0.3973 -0.6615
  168SAPE   H3Y19002   6.734   0.311   6.432  1.5499  1.3830 -1.0998
  168SAPE   C3419003   6.550   0.448   6.472 -0.5264  0.4842 -0.7836
  168SAPE   H4X19004   6.492   0.396   6.551  1.0420 -1.8389 -1.1229
  168SAPE   H4Y19005   6.477   0.502   6.407  1.6530  3.3488 -0.9265
  168SAPE   C3519006   6.645   0.563   6.528  0.1808 -0.1179 -0.4619
  168SAPE   H5X19007   6.692   0.610   6.438 -0.9729  1.0966 -0.4377
  168SAPE   H5Y19008   6.726   0.521   6.592  0.4586  0.0039 -0.7310
  168SAPE   C3619009   6.562   0.678   6.587 -0.7284  0.1074  0.4660
  168SAPE   H6X19010   6.468   0.671   6.529 -2.0263 -0.1670  2.5850
  168SAPE   H6Y19011   6.606   0.775   6.555  0.9755 -1.3774 -1.9047
  168SAPE   C3719012   6.522   0.679   6.732 -0.4450  1.0889 -0.1863
  168SAPE   H7X19013   6.622   0.697   6.776  0.1320  0.1983 -1.1127
  168SAPE   H7Y19014   6.478   0.581   6.761  0.1654  1.0930  0.7603
  168SAPE   C3819015   6.452   0.803   6.778  0.3072 -0.0215  0.3234
  168SAPE   H8X19016   6.358   0.807   6.718  1.2148  0.1251 -1.1354
  168SAPE   H8Y19017   6.523   0.886   6.758 -2.5455  2.1708 -1.0393
  168SAPE   C3919018   6.413   0.795   6.928  0.4499 -0.2100 -0.2605
  168SAPE   H9X19019   6.512   0.798   6.978 -0.4573 -0.5396  1.5955
  168SAPE   H9Y19020   6.363   0.698   6.951  2.9784 -1.3423  0.6643
  168SAPE  C31019021   6.313   0.909   6.974 -0.6203  0.5843 -0.1428
  168SAPE  H10X19022   6.219   0.886   6.920  0.8076  1.1143 -2.9648
  168SAPE  H10Y19023   6.358   1.004   6.938  2.2304 -0.6635 -0.0053
  168SAPE  C31119024   6.295   0.887   7.124  0.2920  0.0807  0.3340
  168SAPE  H11X19025   6.389   0.919   7.174  0.7116  1.7116 -1.4514
  168SAPE  H11Y19026   6.299   0.777   7.143  0.9866 -0.2376 -1.5406
  168SAPE  C31219027   6.167   0.948   7.194  0.4686 -0.2631 -0.4141
  168SAPE  H12X19028   6.080   0.885   7.164 -1.6230  0.5946  3.5360
  168SAPE  H12Y19029   6.157   1.044   7.140  1.3775 -0.3856 -0.8101
  168SAPE  C31319030   6.175   0.968   7.341  0.0382 -0.8009 -0.4121
  168SAPE  H13X19031   6.277   1.008   7.361  1.0061 -3.6184  0.5900
  168SAPE  H13Y19032   6.162   0.869   7.390 -0.1380 -0.6218 -0.0914
  168SAPE  C31419033   6.074   1.071   7.397 -0.7312  0.3167  0.0277
  168SAPE  H14X19034   5.968   1.040   7.381 -0.3617 -0.4875 -0.9453
  168SAPE  H14Y19035   6.103   1.153   7.327  2.2899 -1.5908 -1.0436
  168SAPE  C31519036   6.111   1.111   7.534  0.0499  0.5565  0.0338
  168SAPE  H15X19037   6.085   1.219   7.538  1.5463  0.8930  1.0504
  168SAPE  H15Y19038   6.221   1.108   7.545  0.0832 -0.2692 -0.5297
  168SAPE  C31619039   6.039   1.036   7.643 -0.8325 -0.0306  0.8348
  168SAPE  H16X19040   6.076   0.932   7.640 -2.8930 -0.7366 -2.3861
  168SAPE  H16Y19041   5.929   1.042   7.629 -0.8218  0.3366  0.8936
  168SAPE  C31719042   6.072   1.079   7.782  0.7712  0.1049  0.2156
  168SAPE  H17X19043   6.180   1.060   7.798  1.0554  0.6264 -1.0475
  168SAPE  H17Y19044   6.020   1.001   7.842 -0.7846  0.2620 -0.9023
  168SAPE  C31819045   6.049   1.221   7.827 -0.8293 -0.6355 -0.3738
  168SAPE  H18X19046   6.115   1.302   7.791 -0.2246 -0.4929  1.0291
  168SAPE  H18Y19047   6.066   1.226   7.937 -1.7384  2.1474 -0.3232
  168SAPE  H18Z19048   5.945   1.245   7.796  0.1642  2.9730 -1.1729
  169SAPE     N19049   0.307   2.645   5.915 -0.1913 -0.2427 -0.1276
  169SAPE   HN119050   0.279   2.641   5.815  0.8844 -0.2568 -0.4365
  169SAPE   HN219051   0.304   2.745   5.944 -1.4611 -0.2346 -0.2627
  169SAPE   HN319052   0.403   2.610   5.933 -0.0111  1.0653  1.6433
  169SAPE   C1219053   0.214   2.569   6.008  0.2598 -0.6789  0.6362
  169SAPE  H12A19054   0.213   2.624   6.104  0.5009  1.3891 -0.5269
  169SAPE  H12B19055   0.239   2.461   6.022 -0.6592 -0.5072  3.9907
  169SAPE   C1119056   0.073   2.577   5.949 -0.1920  0.0240 -0.0636
  169SAPE  H11A19057   0.019   2.521   6.028  0.9901  0.5837  1.1450
  169SAPE  H11B19058   0.062   2.518   5.855  1.1576 -1.2127  0.5414
  169SAPE     P19059  -0.078   2.780   6.029  0.2801  0.2619  0.1291
  169SAPE   O1319060  -0.114   2.920   5.985  0.0554 -0.4000  0.5551
  169SAPE   O1419061  -0.186   2.682   6.039 -0.0599  0.3594 -0.0959
  169SAPE   O1219062   0.025   2.714   5.935  0.3492  0.4587  0.3138
  169SAPE   O1119063  -0.005   2.789   6.164 -0.1241  0.0932 -0.1076
  169SAPE    C119064  -0.069   2.806   6.292  0.3028  0.0489  1.2268
  169SAPE    HA19065  -0.180   2.809   6.283  0.3513 -0.3028  0.4523
  169SAPE    HB19066  -0.048   2.713   6.349 -0.1588 -1.6180 -1.2104
  169SAPE    C219067  -0.006   2.928   6.362  0.6071 -0.0914 -0.1885
  169SAPE    HS19068   0.104   2.917   6.348  0.1295 -1.5810 -3.2732
  169SAPE   O2119069  -0.034   2.913   6.501  0.4593 -0.5608 -0.2444
  169SAPE   C2119070   0.069   2.958   6.576  0.2742  0.1321  0.2134
  169SAPE   O2219071   0.161   3.032   6.546  0.3815 -0.6049  0.3259
  169SAPE   C2219072   0.056   2.885   6.712 -0.0481 -0.5082  0.9757
  169SAPE   H2R19073  -0.038   2.924   6.757  0.5235  1.6396  0.3641
  169SAPE   H2S19074   0.036   2.784   6.672  1.1006 -0.2467 -0.2925
  169SAPE    C319075  -0.045   3.072   6.316 -0.0805  0.3213  0.1400
  169SAPE    HX19076  -0.036   3.077   6.206 -0.5182  1.5331  0.1557
  169SAPE    HY19077   0.040   3.137   6.343  2.0235 -1.0933 -2.8312
  169SAPE   O3119078  -0.180   3.117   6.352  0.2745  0.4709  0.1385
  169SAPE   C3119079  -0.203   3.158   6.476 -0.0598 -0.1169 -0.3362
  169SAPE   O3219080  -0.124   3.163   6.573 -0.5919 -0.1721 -0.0700
  169SAPE   C3219081  -0.354   3.194   6.495 -0.6142 -0.5920 -0.2535
  169SAPE   H2X19082  -0.384   3.256   6.409 -0.9257 -0.2763  0.0820
  169SAPE   H2Y19083  -0.361   3.256   6.587  1.4105 -0.0265 -0.4656
  169SAPE   C2319084   0.176   2.898   6.811  0.1220  0.3970 -0.1330
  169SAPE   H3R19085   0.189   3.004   6.842  0.0967  0.1148  0.8629
  169SAPE   H3S19086   0.270   2.865   6.762 -0.5863 -0.5178 -0.8790
  169SAPE   C2419087   0.177   2.805   6.928  1.1737  0.0606 -0.1022
  169SAPE   H4R19088   0.085   2.824   6.987  1.3228 -0.3439  0.2608
  169SAPE   H4S19089   0.267   2.833   6.986  0.3065  2.3968  0.1409
  169SAPE   C2519090   0.180   2.659   6.883  0.0450  0.2159  0.4505
  169SAPE   H5R19091   0.235   2.637   6.791 -1.7581  0.4294 -0.6868
  169SAPE   C2619092   0.106   2.561   6.934 -0.0008  0.2120 -0.5631
  169SAPE   H6R19093   0.123   2.463   6.887  3.6837  1.5946 -2.3288
  169SAPE   C2719094   0.007   2.557   7.050  0.1745 -0.8202 -0.5821
  169SAPE   H7R19095  -0.087   2.515   7.008  0.0170 -0.9254 -0.1253
  169SAPE   H7S19096  -0.011   2.657   7.094  0.4567 -1.3873  0.8405
  169SAPE   C2819097   0.058   2.463   7.157  0.4451 -0.0757  0.3272
  169SAPE   H8R19098   0.154   2.410   7.147  0.3858  0.0503 -0.9547
  169SAPE   C2919099  -0.006   2.458   7.280  0.3747 -0.0920 -0.1648
  169SAPE   H9R19100   0.038   2.398   7.360  0.9771 -2.0336 -1.9227
  169SAPE  C21019101  -0.121   2.547   7.314 -0.0606 -0.1123  0.3941
  169SAPE  H10R19102  -0.187   2.492   7.384 -0.3381 -0.4782 -0.1513
  169SAPE  H10S19103  -0.190   2.563   7.229  0.0768  3.2096  0.8369
  169SAPE  C21119104  -0.088   2.678   7.387  0.0977 -0.1346 -0.3286
  169SAPE  H11R19105  -0.036   2.753   7.326  0.0171  1.4563  1.4942
  169SAPE  C21219106  -0.114   2.712   7.521 -0.2289 -1.0731  1.3391
  169SAPE  H12R19107  -0.087   2.816   7.548 -0.7116  0.3322 -3.1470
  169SAPE  C21319108  -0.179   2.631   7.621  0.2796 -0.0379  0.0470
  169SAPE  H13R19109  -0.163   2.521   7.618 -1.0099 -0.2110 -1.1579
  169SAPE  H13S19110  -0.286   2.646   7.594 -0.5637 -4.3558  0.5859
  169SAPE  C21419111  -0.183   2.691   7.760 -0.5084 -0.0761 -0.1278
  169SAPE  H14R19112  -0.277   2.725   7.806 -0.6198 -1.3534  0.6312
  169SAPE  C21519113  -0.082   2.709   7.846 -0.4642 -0.4659  0.1887
  169SAPE  H15R19114  -0.104   2.753   7.944  2.5270 -0.9575  1.1214
  169SAPE  C21619115   0.055   2.656   7.818 -0.6835  0.3257 -0.0476
  169SAPE  H16R19116   0.069   2.607   7.719  1.7395 -0.2191  0.5243
  169SAPE  H16S19117   0.084   2.585   7.899 -1.2349 -0.8030 -0.8210
  169SAPE  C21719118   0.159   2.767   7.825  0.0914  0.0876  0.7616
  169SAPE  H17R19119   0.135   2.849   7.755 -3.6179 -0.9079  0.7399
  169SAPE  H17S19120   0.261   2.736   7.792 -0.0428 -0.0800  0.5083
  169SAPE  C21819121   0.186   2.823   7.966 -0.5018 -0.2788 -0.5490
  169SAPE  H18R19122   0.230   2.740   8.026  0.5746  1.6675  1.4459
  169SAPE  H18S19123   0.088   2.860   8.002 -1.3140 -0.5701 -2.3918
  169SAPE  C21919124   0.276   2.948   7.973  0.1520 -0.3310 -0.0187
  169SAPE  H19R19125   0.218   3.030   7.927 -2.0520 -2.2335 -0.7432
  169SAPE  H19S19126   0.370   2.943   7.913  0.4302  2.7457  0.1078
  169SAPE  C22019127   0.308   2.996   8.113 -0.9193 -0.3091 -0.1181
  169SAPE  H20R19128   0.334   3.103   8.127 -0.8571 -0.2229 -0.8657
  169SAPE  H20S19129   0.396   2.945   8.156 -0.6845  1.4925  1.5747
  169SAPE  H20T19130   0.223   2.979   8.183  1.4544 -1.1791  2.6045
  169SAPE   C3319131  -0.455   3.077   6.522  0.1328  1.1130  0.0065
  169SAPE   H3X19132  -0.445   3.035   6.625  0.3027 -1.9989 -1.2354
  169SAPE   H3Y19133  -0.428   2.997   6.451 -0.0078  1.6131 -0.6132
  169SAPE   C3419134  -0.607   3.124   6.499  0.3057 -0.2232 -0.0260
  169SAPE   H4X19135  -0.615   3.135   6.389 -0.3993 -0.2731  0.0205
  169SAPE   H4Y19136  -0.616   3.223   6.549  0.8127 -0.5803  0.7799
  169SAPE   C3519137  -0.703   3.025   6.562  0.3828 -0.0074  0.9507
  169SAPE   H5X19138  -0.797   3.078   6.589  1.5201  2.1172  0.8480
  169SAPE   H5Y19139  -0.664   2.985   6.658  1.8749  0.7280  0.6654
  169SAPE   C3619140  -0.734   2.894   6.483  0.5809  0.2755  0.6380
  169SAPE   H6X19141  -0.636   2.844   6.465  0.7016  0.6557  0.2320
  169SAPE   H6Y19142  -0.766   2.918   6.380  0.2455 -0.4172  0.5772
  169SAPE   C3719143  -0.822   2.797   6.561  1.0832  0.4299 -0.4204
  169SAPE   H7X19144  -0.923   2.839   6.582  0.3689  0.1179 -3.1051
  169SAPE   H7Y19145  -0.778   2.790   6.663  0.7078 -1.4884 -0.3705
  169SAPE   C3819146  -0.836   2.658   6.497  0.8376 -0.2832  0.4100
  169SAPE   H8X19147  -0.732   2.626   6.477  1.8157  3.5183 -0.9711
  169SAPE   H8Y19148  -0.891   2.672   6.402 -0.3706 -1.1390  0.9629
  169SAPE   C3919149  -0.883   2.540   6.574  0.1288 -0.2702  0.6214
  169SAPE   H9X19150  -0.872   2.446   6.516 -1.0590  1.0941 -1.9508
  169SAPE   H9Y19151  -0.991   2.553   6.596 -0.6233 -2.0974 -1.7503
  169SAPE  C31019152  -0.794   2.498   6.698  0.0099 -0.0224  0.0351
  169SAPE  H10X19153  -0.785   2.593   6.755 -0.5764  0.5343 -0.7907
  169SAPE  H10Y19154  -0.687   2.483   6.669 -0.2826 -4.1572  0.8092
  169SAPE  C31119155  -0.839   2.380   6.776  0.2257 -0.2044  0.3076
  169SAPE  H11X19156  -0.847   2.291   6.710 -0.7330 -1.1274  1.6455
  169SAPE  H11Y19157  -0.941   2.403   6.813 -0.4288  1.6466 -2.4194
  169SAPE  C31219158  -0.742   2.335   6.893  0.4117 -0.3975  0.0280
  169SAPE  H12X19159  -0.636   2.345   6.861 -0.0177 -1.1371 -1.7106
  169SAPE  H12Y19160  -0.756   2.229   6.922 -1.9956 -0.5871 -1.6637
  169SAPE  C31319161  -0.765   2.417   7.018 -0.2964  0.4703  0.5839
  169SAPE  H13X19162  -0.870   2.408   7.054 -1.0500  1.5477 -1.2869
  169SAPE  H13Y19163  -0.753   2.527   7.009  0.5373  0.5594  2.5056
  169SAPE  C31419164  -0.667   2.381   7.127  0.0734  0.5268  0.3590
  169SAPE  H14X19165  -0.565   2.418   7.101  1.2467 -1.4444  1.9856
  169SAPE  H14Y19166  -0.650   2.272   7.137  2.0361  0.8140  0.4727
  169SAPE  C31519167  -0.690   2.442   7.259  0.3215  0.5027  0.5990
  169SAPE  H15X19168  -0.765   2.384   7.317 -0.6609 -2.6989 -3.6395
  169SAPE  H15Y19169  -0.738   2.543   7.251  0.3930  0.8349  3.7443
  169SAPE  C31619170  -0.563   2.437   7.348  0.1108  0.2346 -0.4409
  169SAPE  H16X19171  -0.473   2.489   7.310 -0.3610 -0.0387 -1.9747
  169SAPE  H16Y19172  -0.550   2.329   7.367 -0.9175  0.5493  2.2601
  169SAPE  C31719173  -0.586   2.496   7.485  1.2700  0.2804 -0.0971
  169SAPE  H17X19174  -0.493   2.470   7.540  1.8313  0.3716 -0.9938
  169SAPE  H17Y19175  -0.670   2.443   7.536 -0.3033  0.9602 -1.9450
  169SAPE  C31819176  -0.613   2.642   7.475 -0.3130 -0.0636  0.0769
  169SAPE  H18X19177  -0.688   2.674   7.399 -0.7006 -0.3934  0.3182
  169SAPE  H18Y19178  -0.518   2.694   7.451 -0.2858  0.1779  0.7165
  169SAPE  H18Z19179  -0.649   2.688   7.569 -1.3234  0.3770 -0.5134
  170SAPE     N19180   6.494   7.083   5.867 -0.1901  1.3058  0.4730
  170SAPE   HN119181   6.578   7.022   5.868 -0.6732  0.6404  0.7604
  170SAPE   HN219182   6.408   7.025   5.859  0.8022 -0.2996  1.3382
  170SAPE   HN319183   6.508   7.149   5.788  1.4454  0.6843  0.2383
  170SAPE   C1219184   6.484   7.161   5.994 -0.6233  0.2971 -0.1590
  170SAPE  H12A19185   6.420   7.096   6.058 -0.5818  0.2089 -0.2054
  170SAPE  H12B19186   6.419   7.250   5.980 -1.1968 -0.1794 -0.5786
  170SAPE   C1119187   6.619   7.194   6.066 -0.0028  0.1708 -0.3583
  170SAPE  H11A19188   6.673   7.115   6.122  0.4207 -0.6185 -1.8383
  170SAPE  H11B19189   6.585   7.259   6.149 -2.2646  0.1835 -1.2320
  170SAPE     P19190   6.723   7.392   5.909 -0.2657  0.1812  0.0776
  170SAPE   O1319191   6.856   7.414   5.841  0.0260 -0.0091 -0.5265
  170SAPE   O1419192   6.596   7.406   5.829  0.6407  0.1909 -0.3165
  170SAPE   O1219193   6.719   7.251   5.976  0.1825 -0.7073  0.2708
  170SAPE   O1119194   6.721   7.488   6.038  0.2456  0.3489 -0.2449
  170SAPE    C119195   6.844   7.539   6.099 -0.3820  0.7050 -0.0349
  170SAPE    HA19196   6.906   7.585   6.019 -1.2539 -0.0623 -1.1762
  170SAPE    HB19197   6.822   7.615   6.176  0.6219  2.8139 -1.7740
  170SAPE    C219198   6.925   7.422   6.167  0.4747 -0.2239  0.2749
  170SAPE    HS19199   6.942   7.348   6.086 -3.0855  1.9290 -2.6077
  170SAPE   O2119200   6.851   7.370   6.281  0.7878  0.2050  0.3425
  170SAPE   C2119201   6.891   7.245   6.314 -0.6017  0.0868 -0.2939
  170SAPE   O2219202   6.982   7.186   6.257 -0.5978  0.0164  0.0259
  170SAPE   C2219203   6.815   7.205   6.439  0.9397  0.6141  0.8906
  170SAPE   H2R19204   6.844   7.281   6.515 -2.3127  1.7332  1.1031
  170SAPE   H2S19205   6.706   7.201   6.419  1.2434 -2.7919 -0.4335
  170SAPE    C319206   7.065   7.469   6.214 -0.5650 -0.0940  0.1774
  170SAPE    HX19207   7.128   7.511   6.133 -0.2459  2.4612  1.6722
  170SAPE    HY19208   7.121   7.379   6.246 -1.7749 -1.1307 -0.5531
  170SAPE   O3119209   7.072   7.565   6.316  0.1417 -0.1910 -0.5437
  170SAPE   C3119210   7.075   7.520   6.440  0.5524 -0.1828 -0.0614
  170SAPE   O3219211   7.074   7.407   6.478 -0.7968 -0.0936 -0.8296
  170SAPE   C3219212   7.059   7.648   6.528  0.3545  0.1733  0.3214
  170SAPE   H2X19213   6.956   7.689   6.514  0.8504  0.6784 -2.0665
  170SAPE   H2Y19214   7.134   7.719   6.487  0.3799 -1.0539 -1.7984
  170SAPE   C2319215   6.863   7.072   6.497 -0.8846  0.0814 -0.0096
  170SAPE   H3R19216   6.973   7.060   6.505 -1.0280 -0.9085  0.5978
  170SAPE   H3S19217   6.835   6.986   6.432 -0.6866  2.1771 -2.9645
  170SAPE   C2419218   6.804   7.038   6.641 -0.0861  0.3588 -0.0079
  170SAPE   H4R19219   6.830   6.936   6.676  1.0387 -0.1753 -2.3080
  170SAPE   H4S19220   6.694   7.039   6.627  0.1247  1.4458 -1.7809
  170SAPE   C2519221   6.841   7.133   6.749  0.2360 -0.3743  0.2269
  170SAPE   H5R19222   6.771   7.218   6.752 -0.9432 -1.2361 -1.6506
  170SAPE   C2619223   6.951   7.133   6.825 -0.3504 -0.1710 -0.1428
  170SAPE   H6R19224   6.965   7.214   6.897 -0.8233  0.5051 -0.7959
  170SAPE   C2719225   7.064   7.033   6.816  0.0053 -0.3673 -0.2933
  170SAPE   H7R19226   7.053   6.957   6.736 -1.4996 -1.2857  0.7573
  170SAPE   H7S19227   7.076   6.979   6.913  1.0655 -0.9959 -0.7644
  170SAPE   C2819228   7.187   7.112   6.778 -0.7080 -0.0401 -0.1811
  170SAPE   H8R19229   7.197   7.120   6.669 -4.1931 -0.6451 -0.6267
  170SAPE   C2919230   7.287   7.169   6.856  0.4890  0.4541  0.3748
  170SAPE   H9R19231   7.370   7.224   6.810  0.8212  0.6323  1.1889
  170SAPE  C21019232   7.292   7.145   7.007 -0.6907 -0.0026  0.6341
  170SAPE  H10R19233   7.207   7.090   7.053 -0.6088  0.4953  1.3901
  170SAPE  H10S19234   7.285   7.248   7.049  0.1625  0.8856 -1.3119
  170SAPE  C21119235   7.422   7.084   7.055 -0.6433  0.5332  0.0277
  170SAPE  H11R19236   7.464   7.008   6.988  1.7477  1.9062 -0.0755
  170SAPE  C21219237   7.497   7.131   7.148  0.6046 -0.3568 -0.3834
  170SAPE  H12R19238   7.589   7.075   7.171  0.1045 -1.0259 -0.0322
  170SAPE  C21319239   7.488   7.250   7.242 -0.0985 -0.1736  0.5573
  170SAPE  H13R19240   7.526   7.339   7.187  1.4976 -1.8699 -1.1548
  170SAPE  H13S19241   7.567   7.241   7.319 -0.8615 -1.7185  1.2074
  170SAPE  C21419242   7.359   7.279   7.313 -0.1898 -0.0051  0.1401
  170SAPE  H14R19243   7.299   7.350   7.253 -1.1931 -1.7617 -0.9645
  170SAPE  C21519244   7.319   7.230   7.434 -0.6237  0.5403  0.4066
  170SAPE  H15R19245   7.221   7.267   7.470 -0.2253  1.2320  0.7954
  170SAPE  C21619246   7.379   7.128   7.522 -0.5772  0.5294 -0.4532
  170SAPE  H16R19247   7.295   7.094   7.586  0.9638  0.6140  1.6605
  170SAPE  H16S19248   7.453   7.182   7.584 -0.7052  1.5881 -1.2135
  170SAPE  C21719249   7.442   6.998   7.459  0.1308 -0.0842  0.3331
  170SAPE  H17R19250   7.532   7.012   7.396 -0.6229 -1.6410 -1.1349
  170SAPE  H17S19251   7.362   6.948   7.399 -0.3980  1.4363 -0.2489
  170SAPE  C21819252   7.481   6.902   7.571  0.0843 -0.1690 -0.2700
  170SAPE  H18R19253   7.560   6.948   7.634  1.2140  0.1569 -1.8947
  170SAPE  H18S19254   7.533   6.815   7.525 -2.9115 -1.5436 -1.1908
  170SAPE  C21919255   7.365   6.852   7.649  0.2862 -0.3930 -0.0916
  170SAPE  H19R19256   7.286   6.808   7.584  1.0434 -1.0898 -0.5498
  170SAPE  H19S19257   7.311   6.933   7.701  0.9838  0.6714 -1.0044
  170SAPE  C22019258   7.417   6.751   7.756  0.3214 -1.2683  0.6161
  170SAPE  H20R19259   7.477   6.667   7.714  2.6715 -0.2604  1.8793
  170SAPE  H20S19260   7.336   6.702   7.814  0.5450 -2.2010  0.1424
  170SAPE  H20T19261   7.472   6.818   7.826 -0.7420  1.1626 -0.8276
  170SAPE   C3319262   7.090   7.623   6.682  0.1194  0.9537  0.8185
  170SAPE   H3X19263   7.091   7.715   6.745  0.6483  0.3588  1.6900
  170SAPE   H3Y19264   7.195   7.588   6.696 -0.7660 -1.6203  1.1667
  170SAPE   C3419265   6.992   7.530   6.756 -0.1570 -0.4052 -0.0285
  170SAPE   H4X19266   7.033   7.510   6.858  2.6401 -0.1585 -1.0703
  170SAPE   H4Y19267   6.968   7.445   6.688  1.6124 -0.3089 -0.7995
  170SAPE   C3519268   6.852   7.602   6.779 -0.1307  0.8701  0.3520
  170SAPE   H5X19269   6.817   7.633   6.678  0.2510  0.4467  0.0823
  170SAPE   H5Y19270   6.849   7.680   6.857 -0.0092  0.6893  0.5385
  170SAPE   C3619271   6.743   7.506   6.823 -0.0716  0.1206  0.2171
  170SAPE   H6X19272   6.778   7.439   6.904  0.1959  0.4860  0.4042
  170SAPE   H6Y19273   6.730   7.426   6.746  0.7406  0.8535 -0.6885
  170SAPE   C3719274   6.607   7.575   6.851 -0.4904  0.9193 -0.6121
  170SAPE   H7X19275   6.528   7.499   6.838 -0.5183  0.8450 -0.0253
  170SAPE   H7Y19276   6.599   7.662   6.783 -0.8575  2.6301  1.5462
  170SAPE   C3819277   6.595   7.628   6.999  0.5589  0.1546  0.0669
  170SAPE   H8X19278   6.517   7.708   7.002  1.0215  0.6146 -0.1266
  170SAPE   H8Y19279   6.687   7.683   7.029  0.3483 -0.1380  1.3136
  170SAPE   C3919280   6.550   7.531   7.107  0.5951  0.0600 -0.2104
  170SAPE   H9X19281   6.623   7.448   7.123  0.3277  0.2924  2.2741
  170SAPE   H9Y19282   6.450   7.494   7.075  1.6524 -1.9563 -1.3279
  170SAPE  C31019283   6.537   7.601   7.245  0.4870 -0.6803  0.9106
  170SAPE  H10X19284   6.483   7.697   7.237  1.6635 -0.2212 -2.0969
  170SAPE  H10Y19285   6.639   7.631   7.278  1.0367  0.1504 -1.4219
  170SAPE  C31119286   6.485   7.513   7.363  0.0425 -0.8518  0.8987
  170SAPE  H11X19287   6.390   7.475   7.321 -0.5092  1.4151  0.0080
  170SAPE  H11Y19288   6.461   7.574   7.453 -1.8225  0.2582 -0.3317
  170SAPE  C31219289   6.566   7.388   7.385  0.1705  0.0535 -0.0452
  170SAPE  H12X19290   6.668   7.401   7.425 -0.1101  0.6691  0.4747
  170SAPE  H12Y19291   6.576   7.332   7.289  3.5292  1.4638 -0.5551
  170SAPE  C31319292   6.510   7.280   7.487  0.5669  0.6033 -0.6069
  170SAPE  H13X19293   6.410   7.250   7.451  0.4891 -0.1284  0.1918
  170SAPE  H13Y19294   6.499   7.323   7.589  1.1268 -0.0430 -0.2610
  170SAPE  C31419295   6.590   7.149   7.483 -0.4620 -0.4202  0.9757
  170SAPE  H14X19296   6.688   7.171   7.531 -0.2523 -0.4227  0.5524
  170SAPE  H14Y19297   6.622   7.114   7.383 -1.0172 -0.2877  0.7506
  170SAPE  C31519298   6.518   7.025   7.539 -0.0684 -0.2051  0.5709
  170SAPE  H15X19299   6.410   7.033   7.512 -0.5762 -3.3357  1.4305
  170SAPE  H15Y19300   6.525   7.033   7.650 -0.3323  1.3726  0.4802
  170SAPE  C31619301   6.578   6.891   7.497  0.6478  0.1485  0.1717
  170SAPE  H16X19302   6.676   6.872   7.544  1.4545  0.1518 -1.4859
  170SAPE  H16Y19303   6.604   6.884   7.389  1.9847 -2.5162  0.6277
  170SAPE  C31719304   6.491   6.769   7.520 -0.2356 -0.0051  0.4272
  170SAPE  H17X19305   6.520   6.679   7.462  2.1339  1.6499 -1.0197
  170SAPE  H17Y19306   6.385   6.786   7.490 -0.2793  1.5743  1.4708
  170SAPE  C31819307   6.491   6.707   7.662  0.0204 -0.6491  0.0117
  170SAPE  H18X19308   6.453   6.772   7.743  0.0914  0.3793 -0.7767
  170SAPE  H18Y19309   6.595   6.695   7.698 -0.4909 -2.0881  1.0740
  170SAPE  H18Z19310   6.418   6.622   7.661 -0.6633 -0.1044  1.7885
  171SAPE     N19311   0.775   0.805   5.924  0.2607 -0.2479  0.2604
  171SAPE   HN119312   0.743   0.746   6.004 -3.7569  1.8836  0.3513
  171SAPE   HN219313   0.850   0.752   5.874 -0.5457 -2.3228  1.1735
  171SAPE   HN319314   0.807   0.895   5.964 -2.4564  0.6311  0.5448
  171SAPE   C1219315   0.654   0.834   5.835 -0.1804  0.1155  0.1465
  171SAPE  H12A19316   0.563   0.845   5.899 -0.1353  1.1794  0.0363
  171SAPE  H12B19317   0.647   0.747   5.766  1.8976  0.6977 -0.8332
  171SAPE   C1119318   0.668   0.957   5.746 -0.2957  0.1646  0.4305
  171SAPE  H11A19319   0.577   0.946   5.684  0.8572 -1.5340 -0.9875
  171SAPE  H11B19320   0.758   0.952   5.681  0.8063  1.6821  1.7881
  171SAPE     P19321   0.557   1.134   5.905  0.0798  0.4928 -0.2369
  171SAPE   O1319322   0.589   1.273   5.936 -0.1246 -0.2736 -0.6281
  171SAPE   O1419323   0.428   1.112   5.836  0.4613 -0.0406 -0.2854
  171SAPE   O1219324   0.673   1.072   5.825  0.0779 -0.0479 -0.0603
  171SAPE   O1119325   0.555   1.045   6.043  0.2230 -0.3204  0.2925
  171SAPE    C119326   0.542   1.109   6.166  0.7913 -0.3185  0.0178
  171SAPE    HA19327   0.571   1.039   6.246 -0.7490 -1.2042 -0.1745
  171SAPE    HB19328   0.621   1.186   6.178 -1.0261  2.5185 -4.7656
  171SAPE    C219329   0.402   1.163   6.178 -0.3112 -0.6018  0.1231
  171SAPE    HS19330   0.370   1.218   6.087 -0.6716  0.2005  0.7302
  171SAPE   O2119331   0.415   1.266   6.281 -0.0908  0.1571 -0.3143
  171SAPE   C2119332   0.315   1.351   6.290  0.5177 -0.0875 -0.1570
  171SAPE   O2219333   0.224   1.362   6.211  0.2765  0.0633 -0.3531
  171SAPE   C2219334   0.334   1.448   6.408  0.1367 -0.8392 -0.5202
  171SAPE   H2R19335   0.429   1.506   6.412 -0.3314 -0.0700 -0.5925
  171SAPE   H2S19336   0.251   1.521   6.404 -1.4033 -2.4819  0.7324
  171SAPE    C319337   0.295   1.059   6.216  0.3055 -0.0859  0.2578
  171SAPE    HX19338   0.270   0.997   6.127 -1.1826 -1.9440  1.9185
  171SAPE    HY19339   0.206   1.110   6.259  0.9031 -0.0655  1.4967
  171SAPE   O3119340   0.355   0.955   6.300  0.0202 -0.0367 -0.6656
  171SAPE   C3119341   0.348   0.981   6.428 -0.5091  0.2763 -0.3054
  171SAPE   O3219342   0.266   1.053   6.483 -0.3340  0.0093  0.4448
  171SAPE   C3219343   0.453   0.896   6.498 -0.0489 -0.1977 -0.5721
  171SAPE   H2X19344   0.538   0.890   6.426  2.0549 -0.4387  1.8677
  171SAPE   H2Y19345   0.402   0.800   6.519 -1.4602  0.8498  0.8828
  171SAPE   C2319346   0.342   1.363   6.540  0.4786 -0.3336 -0.4257
  171SAPE   H3R19347   0.421   1.285   6.527  0.9689  0.2882 -1.2198
  171SAPE   H3S19348   0.250   1.302   6.550 -1.2834  2.2953 -0.1427
  171SAPE   C2419349   0.368   1.449   6.667 -0.9025 -0.1028 -0.2537
  171SAPE   H4R19350   0.279   1.512   6.690 -1.0074 -0.2007 -0.3939
  171SAPE   H4S19351   0.454   1.512   6.637 -1.4351  0.5112 -0.5165
  171SAPE   C2519352   0.405   1.361   6.784 -1.0491  0.0689  0.2245
  171SAPE   H5R19353   0.392   1.253   6.777 -0.4638  0.0445 -0.4793
  171SAPE   C2619354   0.432   1.424   6.904  0.0083 -0.3127  0.0447
  171SAPE   H6R19355   0.452   1.365   6.995  0.0188  1.5499  1.2614
  171SAPE   C2719356   0.444   1.572   6.928  0.0459 -0.0344  0.5033
  171SAPE   H7R19357   0.381   1.599   7.016 -3.3084  1.6861 -2.3075
  171SAPE   H7S19358   0.402   1.630   6.843  0.4322  0.6215  0.7602
  171SAPE   C2819359   0.590   1.611   6.939  0.5294 -0.3677 -0.3661
  171SAPE   H8R19360   0.646   1.594   6.847  1.7801  0.6207  0.2030
  171SAPE   C2919361   0.642   1.674   7.040 -0.1656  0.0609  0.4793
  171SAPE   H9R19362   0.737   1.724   7.017  0.8358 -0.8237  2.5206
  171SAPE  C21019363   0.573   1.718   7.161 -0.1870  0.0240 -0.5363
  171SAPE  H10R19364   0.554   1.631   7.228  2.3692  0.0118  0.2361
  171SAPE  H10S19365   0.474   1.762   7.138  0.1286  1.2737  0.4356
  171SAPE  C21119366   0.657   1.822   7.237  0.1270  0.6058  0.2527
  171SAPE  H11R19367   0.714   1.895   7.177 -0.6521  0.6071 -0.5117
  171SAPE  C21219368   0.673   1.827   7.369  0.0860 -0.4299 -0.8071
  171SAPE  H12R19369   0.749   1.894   7.412 -2.0508  2.5264 -1.4514
  171SAPE  C21319370   0.613   1.734   7.465 -0.7206  0.3057  0.7138
  171SAPE  H13R19371   0.519   1.695   7.422 -0.3134 -0.2617  0.3159
  171SAPE  H13S19372   0.599   1.784   7.563  0.0137  0.7194  0.6132
  171SAPE  C21419373   0.697   1.608   7.471  0.4445  0.0874 -0.0700
  171SAPE  H14R19374   0.781   1.598   7.401 -0.6461 -0.7260 -1.2693
  171SAPE  C21519375   0.700   1.509   7.567  0.2800 -0.7408 -0.1870
  171SAPE  H15R19376   0.764   1.420   7.561 -2.2539 -2.6343 -0.0981
  171SAPE  C21619377   0.616   1.511   7.691 -0.0556 -0.5164 -0.7011
  171SAPE  H16R19378   0.568   1.610   7.707 -0.3608 -1.0203  1.8536
  171SAPE  H16S19379   0.682   1.483   7.776 -3.4998 -1.7919  1.7030
  171SAPE  C21719380   0.499   1.413   7.675 -1.2809  0.0753  0.0869
  171SAPE  H17R19381   0.538   1.312   7.653 -1.7942  0.1250 -1.0862
  171SAPE  H17S19382   0.446   1.435   7.580  1.6032  1.4274 -1.2936
  171SAPE  C21819383   0.400   1.411   7.790 -0.4330 -0.3401  0.3591
  171SAPE  H18R19384   0.361   1.514   7.800  2.0920  0.7014 -0.1501
  171SAPE  H18S19385   0.463   1.397   7.881  0.6621  0.9056 -0.1978
  171SAPE  C21919386   0.289   1.301   7.782 -0.3280 -0.3695  0.1313
  171SAPE  H19R19387   0.236   1.273   7.876 -1.0861 -1.1185 -0.5126
  171SAPE  H19S19388   0.350   1.213   7.753  1.3519  0.9712 -0.4671
  171SAPE  C22019389   0.179   1.327   7.678 -0.6936  0.0522  0.2127
  171SAPE  H20R19390   0.131   1.427   7.675  2.1194  1.4150 -1.2710
  171SAPE  H20S19391   0.101   1.254   7.705 -0.7720 -0.1519 -0.5730
  171SAPE  H20T19392   0.214   1.308   7.574  0.2355  0.7331  0.3831
  171SAPE   C3319393   0.505   0.968   6.627 -0.7071 -0.0535  0.1122
  171SAPE   H3X19394   0.417   0.954   6.694 -1.4069 -2.4398 -1.2331
  171SAPE   H3Y19395   0.529   1.076   6.621  0.9182 -0.4233 -0.3537
  171SAPE   C3419396   0.637   0.896   6.675  0.4809  0.0931 -0.0892
  171SAPE   H4X19397   0.726   0.920   6.613  0.3058  3.6274  0.9439
  171SAPE   H4Y19398   0.612   0.788   6.680  0.8240 -0.0380 -0.9941
  171SAPE   C3519399   0.664   0.952   6.818  0.0058 -0.0710 -0.4955
  171SAPE   H5X19400   0.569   0.945   6.875 -0.6356 -1.8748 -1.7433
  171SAPE   H5Y19401   0.700   1.056   6.808 -0.0127 -0.0604 -0.4507
  171SAPE   C3619402   0.776   0.879   6.888 -0.6796  0.5021  0.0576
  171SAPE   H6X19403   0.865   0.930   6.845 -0.2404  0.1989  0.5979
  171SAPE   H6Y19404   0.779   0.772   6.859  0.8680  0.7613 -0.7470
  171SAPE   C3719405   0.773   0.899   7.040  0.1907  0.5003  0.6763
  171SAPE   H7X19406   0.763   1.006   7.070  0.2250  0.4195  0.9779
  171SAPE   H7Y19407   0.872   0.867   7.077 -0.2121  0.1573  1.4771
  171SAPE   C3819408   0.654   0.814   7.095 -0.8115  0.2047  0.4308
  171SAPE   H8X19409   0.652   0.717   7.041  2.0197 -0.6105  1.7010
  171SAPE   H8Y19410   0.562   0.873   7.074 -1.1686 -0.5714 -0.2112
  171SAPE   C3919411   0.667   0.801   7.249 -0.1970 -0.2443  0.2069
  171SAPE   H9X19412   0.566   0.771   7.284  0.5200 -1.2411  1.4404
  171SAPE   H9Y19413   0.681   0.905   7.286  0.6341 -0.0226 -0.6949
  171SAPE  C31019414   0.779   0.707   7.303 -0.4781  0.2490  0.0376
  171SAPE  H10X19415   0.879   0.748   7.277  0.1171 -1.2472 -0.0692
  171SAPE  H10Y19416   0.766   0.616   7.241 -0.7976  1.7179 -2.1325
  171SAPE  C31119417   0.772   0.677   7.457 -0.2403  0.5294  0.1550
  171SAPE  H11X19418   0.861   0.613   7.476  1.3667  3.0752  1.5006
  171SAPE  H11Y19419   0.679   0.629   7.492 -0.3428  1.2121  0.8306
  171SAPE  C31219420   0.781   0.790   7.559 -0.3408 -0.1231  0.1183
  171SAPE  H12X19421   0.687   0.848   7.550 -0.5460 -0.5318 -0.3922
  171SAPE  H12Y19422   0.865   0.857   7.533 -0.3915  0.4130  1.2737
  171SAPE  C31319423   0.795   0.736   7.701 -0.6663  0.1121  0.1950
  171SAPE  H13X19424   0.884   0.670   7.704  0.4138  1.5674  1.0744
  171SAPE  H13Y19425   0.708   0.675   7.732 -0.5653  0.0543  0.3687
  171SAPE  C31419426   0.804   0.844   7.814 -0.4388 -0.0284 -0.2157
  171SAPE  H14X19427   0.772   0.799   7.911  1.1977 -0.6797  0.0271
  171SAPE  H14Y19428   0.746   0.936   7.793  0.2681  0.2484 -0.9470
  171SAPE  C31519429   0.955   0.875   7.831  1.0392 -0.3276 -0.0570
  171SAPE  H15X19430   0.997   0.906   7.733 -0.4681  0.6223 -0.4094
  171SAPE  H15Y19431   1.004   0.778   7.855 -0.6182 -1.3299 -0.6221
  171SAPE  C31619432   0.987   0.959   7.950 -0.5618 -0.3453  0.3756
  171SAPE  H16X19433   0.942   0.917   8.042  3.3029  0.0934  2.5702
  171SAPE  H16Y19434   0.943   1.061   7.949 -1.6649 -0.8174  0.3742
  171SAPE  C31719435   1.138   0.959   7.975  0.0905 -0.4745 -0.6641
  171SAPE  H17X19436   1.189   0.986   7.879 -1.0783  1.4594 -0.7609
  171SAPE  H17Y19437   1.158   0.852   7.997 -1.1159 -0.3253  1.1868
  171SAPE  C31819438   1.184   1.050   8.093 -0.9951 -0.5289 -0.0073
  171SAPE  H18X19439   1.292   1.045   8.116 -0.9038 -0.9238 -0.5047
  171SAPE  H18Y19440   1.126   1.043   8.187 -0.6617  1.5310  0.3764
  171SAPE  H18Z19441   1.169   1.154   8.058  1.7208 -0.3102 -0.5746
  172SAPE     N19442   7.252   7.129   5.873  0.6099  0.8329  0.0893
  172SAPE   HN119443   7.214   7.224   5.853 -0.2759  0.4906  0.1673
  172SAPE   HN219444   7.346   7.129   5.917  1.2187  1.6798 -1.1642
  172SAPE   HN319445   7.269   7.088   5.779 -1.5872  0.0307  0.0368
  172SAPE   C1219446   7.150   7.053   5.955  0.0744  0.1138 -0.0479
  172SAPE  H12A19447   7.050   7.060   5.909  0.1056  0.3909 -0.0741
  172SAPE  H12B19448   7.141   7.104   6.053  0.8371  1.4621 -0.6655
  172SAPE   C1119449   7.204   6.910   5.990  0.4904 -0.3642  0.0404
  172SAPE  H11A19450   7.214   6.861   5.891 -2.4017 -0.2716 -0.3290
  172SAPE  H11B19451   7.136   6.864   6.065  1.7759 -0.1960  1.3291
  172SAPE     P19452   7.416   6.796   6.087  0.0284  0.3559  0.5550
  172SAPE   O1319453   7.396   6.697   5.978 -0.2796 -0.3578  0.1490
  172SAPE   O1419454   7.558   6.833   6.106  0.7825  0.4832  0.0385
  172SAPE   O1219455   7.331   6.924   6.053 -0.5480 -0.2684 -0.4131
  172SAPE   O1119456   7.351   6.733   6.219 -0.1157  0.0058  0.4011
  172SAPE    C119457   7.311   6.817   6.323 -0.3238 -0.1272  0.0230
  172SAPE    HA19458   7.242   6.898   6.295 -0.2724 -0.1195 -0.0782
  172SAPE    HB19459   7.262   6.751   6.398  1.4595 -1.6804 -0.1241
  172SAPE    C219460   7.433   6.889   6.391  0.9724 -0.1449  0.7562
  172SAPE    HS19461   7.462   6.970   6.321 -1.8376  1.7733  1.7126
  172SAPE   O2119462   7.532   6.789   6.418  0.1963 -0.1106  0.4021
  172SAPE   C2119463   7.660   6.823   6.397 -0.6953 -0.9971  0.3135
  172SAPE   O2219464   7.702   6.937   6.372  0.5738  0.4627 -0.4575
  172SAPE   C2219465   7.753   6.698   6.416  0.4876  0.3109 -0.3974
  172SAPE   H2R19466   7.727   6.651   6.513  0.1354  3.1336  0.9249
  172SAPE   H2S19467   7.734   6.640   6.323  1.6128 -0.5904 -0.0715
  172SAPE    C319468   7.391   6.951   6.530  0.1115 -0.0406 -0.2757
  172SAPE    HX19469   7.313   7.028   6.515  0.1881 -0.1088 -1.0357
  172SAPE    HY19470   7.478   6.998   6.579 -0.2946  1.5394 -1.0343
  172SAPE   O3119471   7.323   6.850   6.613 -0.3618 -0.3692 -0.4370
  172SAPE   C3119472   7.386   6.823   6.727 -0.1881 -0.0769 -0.2943
  172SAPE   O3219473   7.493   6.868   6.766  0.3790  0.1186 -0.5707
  172SAPE   C3219474   7.299   6.715   6.800 -0.0405 -0.1740 -0.7503
  172SAPE   H2X19475   7.228   6.660   6.736  1.6775 -2.0112 -1.1089
  172SAPE   H2Y19476   7.237   6.770   6.875 -0.0878 -1.0108 -0.1695
  172SAPE   C2319477   7.905   6.733   6.409  0.2868  0.2199  0.0211
  172SAPE   H3R19478   7.933   6.815   6.340 -0.4001 -0.0179 -0.5420
  172SAPE   H3S19479   7.943   6.639   6.364  1.2033 -0.1387  1.5065
  172SAPE   C2419480   7.971   6.749   6.544 -0.1583  0.2426 -0.1361
  172SAPE   H4R19481   8.080   6.766   6.528  0.7295 -2.2622  2.6726
  172SAPE   H4S19482   7.974   6.649   6.593  0.6534  1.0751  1.5647
  172SAPE   C2519483   7.915   6.867   6.618  0.0131 -0.8476 -0.1138
  172SAPE   H5R19484   7.930   6.959   6.560 -1.4641  0.9224  2.2439
  172SAPE   C2619485   7.864   6.863   6.742  0.2490 -0.3515  0.2090
  172SAPE   H6R19486   7.837   6.962   6.781 -1.6268 -0.5354 -0.5256
  172SAPE   C2719487   7.852   6.744   6.834 -0.2714 -0.0661 -0.5451
  172SAPE   H7R19488   7.890   6.652   6.786 -1.2667 -1.5206  1.3807
  172SAPE   H7S19489   7.745   6.725   6.857 -0.4675  2.3959  0.8344
  172SAPE   C2819490   7.933   6.751   6.962 -0.1013  0.5093  0.0287
  172SAPE   H8R19491   8.041   6.769   6.956  0.0752  0.0204  1.6083
  172SAPE   C2919492   7.893   6.737   7.091  0.0230  0.7740  0.7910
  172SAPE   H9R19493   7.973   6.732   7.165  0.4626  0.5955  0.3070
  172SAPE  C21019494   7.753   6.713   7.139 -0.1821  0.0928  0.1593
  172SAPE  H10R19495   7.726   6.611   7.104  0.6050 -0.6717  1.7118
  172SAPE  H10S19496   7.680   6.790   7.106  0.6759  1.1426  0.6599
  172SAPE  C21119497   7.755   6.715   7.296  0.5945 -0.0045  0.0484
  172SAPE  H11R19498   7.743   6.812   7.344 -0.7859 -0.8357  1.4412
  172SAPE  C21219499   7.780   6.609   7.374 -0.5552  0.0660 -0.1046
  172SAPE  H12R19500   7.760   6.624   7.482 -2.6633 -2.1270 -0.1381
  172SAPE  C21319501   7.809   6.471   7.325 -0.6140 -0.0949 -0.0729
  172SAPE  H13R19502   7.901   6.437   7.377 -0.3624 -0.9811 -1.1015
  172SAPE  H13S19503   7.848   6.480   7.222 -1.7094 -2.7291 -0.7458
  172SAPE  C21419504   7.693   6.377   7.319 -1.1331  0.2613 -0.1765
  172SAPE  H14R19505   7.616   6.375   7.398  0.0845  0.4769  1.0377
  172SAPE  C21519506   7.673   6.286   7.221  0.0081  0.6465 -0.6815
  172SAPE  H15R19507   7.590   6.214   7.228 -1.3008  2.0314 -1.4614
  172SAPE  C21619508   7.762   6.268   7.102 -1.0201 -0.3421 -0.0791
  172SAPE  H16R19509   7.771   6.159   7.089 -0.8705 -0.1990 -1.2422
  172SAPE  H16S19510   7.862   6.317   7.092 -1.6985  0.8641 -1.2218
  172SAPE  C21719511   7.675   6.324   6.990 -0.2787 -0.0589  0.1257
  172SAPE  H17R19512   7.654   6.431   7.016 -0.9591  0.0500 -0.8220
  172SAPE  H17S19513   7.583   6.264   6.973  0.1577 -0.3499 -1.2763
  172SAPE  C21819514   7.756   6.324   6.850 -0.0018 -0.4811 -0.2481
  172SAPE  H18R19515   7.791   6.220   6.833 -0.8487 -0.9189  0.6292
  172SAPE  H18S19516   7.846   6.389   6.861 -0.9722  0.6385  1.3305
  172SAPE  C21919517   7.680   6.379   6.725  0.4928  0.5267  0.2361
  172SAPE  H19R19518   7.657   6.487   6.730  1.4835  0.7852 -0.7255
  172SAPE  H19S19519   7.587   6.317   6.726  0.5662  0.4151  1.6889
  172SAPE  C22019520   7.745   6.348   6.593  0.1604 -0.5140 -0.3417
  172SAPE  H20R19521   7.783   6.244   6.589 -0.0066 -0.5292 -2.4242
  172SAPE  H20S19522   7.838   6.409   6.588 -0.3283  0.5492  2.4703
  172SAPE  H20T19523   7.686   6.366   6.501  1.2316 -0.0453 -0.9501
  172SAPE   C3319524   7.381   6.610   6.876 -0.5609  0.6605  0.3325
  172SAPE   H3X19525   7.459   6.667   6.932 -0.4026  1.4683 -0.7031
  172SAPE   H3Y19526   7.440   6.557   6.798  0.4595  1.4919  0.5251
  172SAPE   C3419527   7.304   6.510   6.965 -0.6980 -0.3213  0.6867
  172SAPE   H4X19528   7.375   6.445   7.021 -0.9253 -0.5169  0.7474
  172SAPE   H4Y19529   7.248   6.443   6.896  0.4810  0.3527 -0.9359
  172SAPE   C3519530   7.195   6.566   7.064 -0.3340 -0.3798 -0.0810
  172SAPE   H5X19531   7.143   6.472   7.095 -2.4488  0.4257 -1.0312
  172SAPE   H5Y19532   7.112   6.613   7.007  0.0264  0.1699 -0.1541
  172SAPE   C3619533   7.259   6.659   7.165  0.7772  0.4390 -0.6651
  172SAPE   H6X19534   7.321   6.735   7.112 -0.1491  1.4529 -0.3184
  172SAPE   H6Y19535   7.334   6.613   7.233 -1.8859 -0.5651  1.7083
  172SAPE   C3719536   7.159   6.716   7.260 -0.4306  0.7538 -0.5071
  172SAPE   H7X19537   7.223   6.751   7.344 -1.0427 -0.7112  0.5778
  172SAPE   H7Y19538   7.087   6.639   7.294 -0.3519  1.5734  1.5966
  172SAPE   C3819539   7.099   6.840   7.206  0.2141 -0.2252 -0.1806
  172SAPE   H8X19540   7.060   6.810   7.106 -0.5334 -2.7437  0.8033
  172SAPE   H8Y19541   7.159   6.931   7.189  2.6797 -1.9317 -0.8939
  172SAPE   C3919542   6.966   6.868   7.283  1.0340  0.4617 -0.4490
  172SAPE   H9X19543   6.993   6.882   7.390  2.0477  0.8138 -0.7424
  172SAPE   H9Y19544   6.905   6.776   7.276  0.3286  0.9352 -0.6659
  172SAPE  C31019545   6.886   6.991   7.247 -1.6072 -0.1354  0.0350
  172SAPE  H10X19546   6.789   6.995   7.302 -1.4566 -1.0853  0.3834
  172SAPE  H10Y19547   6.845   6.987   7.143  0.6387  1.0834 -0.9256
  172SAPE  C31119548   6.966   7.121   7.266  0.2824 -0.2981 -0.2861
  172SAPE  H11X19549   7.066   7.118   7.219 -0.3691  0.6883 -1.7665
  172SAPE  H11Y19550   6.989   7.124   7.375  2.6628  2.0464 -0.7857
  172SAPE  C31219551   6.887   7.241   7.215 -0.2757  0.8672 -0.0036
  172SAPE  H12X19552   6.780   7.239   7.246  0.2570 -1.0054  1.7891
  172SAPE  H12Y19553   6.887   7.231   7.104 -0.0971  1.3470 -0.0501
  172SAPE  C31319554   6.945   7.377   7.254 -0.7829  0.3802 -0.4051
  172SAPE  H13X19555   7.028   7.374   7.328  1.8019 -0.3764 -3.2446
  172SAPE  H13Y19556   6.862   7.428   7.307 -1.4012  1.0266 -1.9723
  172SAPE  C31419557   7.004   7.455   7.137 -0.2841  0.8505  0.2260
  172SAPE  H14X19558   6.934   7.449   7.051 -0.5868  2.1744  0.3619
  172SAPE  H14Y19559   7.095   7.396   7.114 -1.4872 -1.6147  1.5276
  172SAPE  C31519560   7.035   7.600   7.170  0.1638 -0.2058 -0.0586
  172SAPE  H15X19561   6.951   7.666   7.198 -0.9523 -0.5014 -2.5407
  172SAPE  H15Y19562   7.071   7.652   7.078 -0.0531  2.8534  1.5398
  172SAPE  C31619563   7.148   7.594   7.277 -0.4829 -0.8183 -0.1220
  172SAPE  H16X19564   7.238   7.542   7.238  1.2445  0.9261  1.4744
  172SAPE  H16Y19565   7.116   7.544   7.371 -1.0061  0.5538  0.4388
  172SAPE  C31719566   7.190   7.742   7.321 -0.7629  0.0619  0.2936
  172SAPE  H17X19567   7.106   7.793   7.373 -1.2041 -0.2197 -0.1343
  172SAPE  H17Y19568   7.217   7.792   7.226  1.3568 -1.2975  0.1468
  172SAPE  C31819569   7.312   7.753   7.421  0.9250  0.0129 -0.1328
  172SAPE  H18X19570   7.403   7.716   7.370  1.7529  1.8409 -0.0209
  172SAPE  H18Y19571   7.298   7.705   7.520 -0.2934  0.5153 -0.0501
  172SAPE  H18Z19572   7.337   7.861   7.425 -0.9130  0.4900 -1.2113
  173SOPE     N19573   3.669   4.850  10.462 -0.2776 -0.8074 -0.8156
  173SOPE   HN119574   3.621   4.935  10.425 -1.4917  0.2382  3.0039
  173SOPE   HN219575   3.672   4.847  10.566  1.0039 -0.4663 -0.8299
  173SOPE   HN319576   3.764   4.864  10.421 -0.4083  0.6182 -0.6327
  173SOPE   C1219577   3.613   4.735  10.389  0.1594 -0.5385 -0.2681
  173SOPE  H12A19578   3.511   4.718  10.429  0.9641 -3.8252  0.5038
  173SOPE  H12B19579   3.678   4.645  10.387  0.5389 -0.3300  1.4861
  173SOPE   C1119580   3.593   4.771  10.240 -0.1225  0.2193 -0.2896
  173SOPE  H11A19581   3.573   4.673  10.191 -3.4028 -0.8374  3.0269
  173SOPE  H11B19582   3.684   4.805  10.185  1.4187 -1.9436  0.8259
  173SOPE     P19583   3.488   5.009  10.195 -0.1301  0.6359  0.5240
  173SOPE   O1319584   3.548   5.062  10.320 -0.3833  1.2967 -0.1118
  173SOPE   O1419585   3.361   5.060  10.154  0.1383  0.3734 -0.1474
  173SOPE   O1219586   3.484   4.854  10.212 -0.1920  0.3892  0.2577
  173SOPE   O1119587   3.594   5.016  10.081  0.4536  0.1377  0.5820
  173SOPE    C119588   3.659   5.137  10.046 -0.2835 -0.2650  0.8193
  173SOPE    HA19589   3.748   5.148  10.110  0.8285  0.4155 -0.8054
  173SOPE    HB19590   3.589   5.223  10.053 -0.6531 -0.7706  3.8728
  173SOPE    C219591   3.704   5.128   9.898 -0.3846  0.3572  0.0599
  173SOPE    HS19592   3.744   5.228   9.872  0.1857  0.3139  0.7732
  173SOPE   O2119593   3.604   5.070   9.813  0.3691  0.1436 -0.2265
  173SOPE   C2119594   3.540   5.148   9.730  0.1271 -0.7669 -0.4246
  173SOPE   O2219595   3.562   5.272   9.731 -0.0831  0.1484 -0.0771
  173SOPE   C2219596   3.459   5.071   9.626 -0.5303 -0.4740  0.0893
  173SOPE   H2R19597   3.393   4.993   9.670  2.1656 -1.7561  2.0124
  173SOPE   H2S19598   3.526   5.006   9.566 -1.4281  0.3845 -1.9005
  173SOPE    C319599   3.830   5.039   9.879 -0.4978  0.4711 -0.4604
  173SOPE    HX19600   3.802   4.935   9.907 -2.5231  1.4765  1.4494
  173SOPE    HY19601   3.912   5.067   9.948 -1.3874  2.0822 -0.0135
  173SOPE   O3119602   3.872   5.062   9.749 -0.5582 -0.0742  0.0963
  173SOPE   C3119603   3.834   4.981   9.654  0.2006 -0.1636  0.3492
  173SOPE   O3219604   3.757   4.887   9.670  0.1547 -0.2053 -0.2129
  173SOPE   C3219605   3.908   5.030   9.529 -0.6997  0.3790  0.6117
  173SOPE   H2X19606   4.017   5.018   9.550 -0.4992  3.5853  1.5971
  173SOPE   H2Y19607   3.893   5.139   9.518  0.7500  0.4961 -0.4086
  173SOPE   C2319608   3.385   5.177   9.545 -0.0278 -0.2397  0.2518
  173SOPE   H3R19609   3.449   5.225   9.467 -2.5236 -1.2981 -2.5021
  173SOPE   H3S19610   3.347   5.258   9.610  1.0872  1.8350 -1.5917
  173SOPE   C2419611   3.267   5.107   9.468  0.3008  0.4568 -0.2810
  173SOPE   H4R19612   3.299   5.009   9.427  1.3551 -0.5711  2.9082
  173SOPE   H4S19613   3.190   5.081   9.543 -0.5916  0.1427 -1.2854
  173SOPE   C2519614   3.220   5.190   9.352 -0.3374  0.0497  0.8010
  173SOPE   H5R19615   3.175   5.284   9.390 -2.1514 -0.3732 -0.2592
  173SOPE   H5S19616   3.309   5.223   9.294  0.7752 -1.0187  1.8662
  173SOPE   C2619617   3.107   5.124   9.273  0.4379  0.4330  0.6418
  173SOPE   H6R19618   3.147   5.038   9.215 -2.5148  0.6832 -1.9338
  173SOPE   H6S19619   3.023   5.096   9.340 -1.3729  0.4560 -1.5579
  173SOPE   C2719620   3.048   5.216   9.167  0.0124  0.3814 -0.9282
  173SOPE   H7R19621   2.960   5.158   9.133  0.2373 -1.4465  1.4639
  173SOPE   H7S19622   3.017   5.313   9.213  1.6747 -0.1317  1.4120
  173SOPE   C2819623   3.136   5.250   9.045 -0.2466  0.1114  0.5697
  173SOPE   H8R19624   3.074   5.314   8.978 -1.4578 -0.8543  0.7564
  173SOPE   H8S19625   3.228   5.305   9.073  0.5947 -0.4099 -1.1196
  173SOPE   C2919626   3.185   5.123   8.984  0.0278 -0.4404 -0.0530
  173SOPE   H9119627   3.277   5.083   9.028  0.3227  0.4090  0.1150
  173SOPE  C21019628   3.136   5.061   8.875  0.0352  0.0855 -0.0686
  173SOPE  H10119629   3.174   4.965   8.836  0.7699  0.3641 -0.0506
  173SOPE  C21119630   3.025   5.115   8.787  0.2788  0.7359  0.2105
  173SOPE  H11R19631   2.948   5.177   8.838 -0.6978 -0.3662  0.1005
  173SOPE  H11S19632   2.966   5.027   8.753  0.2869 -0.2022  2.5237
  173SOPE  C21219633   3.081   5.184   8.662  0.4511 -0.0923  0.5833
  173SOPE  H12R19634   3.144   5.114   8.604  2.1656  3.0733 -1.5160
  173SOPE  H12S19635   3.126   5.281   8.691 -0.5121  0.2403  0.9886
  173SOPE  C21319636   2.961   5.223   8.571 -0.2740  0.7184 -0.4022
  173SOPE  H13R19637   2.881   5.260   8.639  0.3133  0.3864  0.4770
  173SOPE  H13S19638   2.916   5.139   8.515 -1.7695  1.7243 -0.7541
  173SOPE  C21419639   3.007   5.332   8.474  0.3548  0.1648 -0.0672
  173SOPE  H14R19640   3.077   5.283   8.403 -0.3964  1.2725 -1.5808
  173SOPE  H14S19641   3.048   5.418   8.531 -0.3493 -1.6500  3.3091
  173SOPE  C21519642   2.898   5.392   8.390 -0.0641  0.5074 -1.0067
  173SOPE  H15R19643   2.940   5.478   8.333  1.0507  0.6227 -0.0073
  173SOPE  H15S19644   2.812   5.438   8.444 -1.7637 -2.4053 -1.0983
  173SOPE  C21619645   2.839   5.289   8.290  0.3552 -0.3915 -0.8113
  173SOPE  H16R19646   2.786   5.211   8.349 -0.1971  1.0898  0.6962
  173SOPE  H16S19647   2.917   5.253   8.220  1.4863 -1.4073  0.9327
  173SOPE  C21719648   2.734   5.352   8.204 -0.0474 -0.6826 -0.3588
  173SOPE  H17R19649   2.778   5.413   8.122 -4.7446  2.3216 -0.8010
  173SOPE  H17S19650   2.665   5.418   8.259  0.2102 -0.8136  0.1206
  173SOPE  C21819651   2.626   5.246   8.152  0.7073 -0.0613  0.5462
  173SOPE  H18R19652   2.601   5.176   8.234  0.8810 -1.4159 -0.5191
  173SOPE  H18S19653   2.677   5.193   8.068 -1.9266  0.4787 -1.4898
  173SOPE  H18T19654   2.539   5.299   8.108  1.0442  0.4076  0.4376
  173SOPE   C3319655   3.873   4.968   9.389  0.2557  0.4405 -0.3454
  173SOPE   H3X19656   3.893   4.859   9.379  0.7205  0.6108 -1.3534
  173SOPE   H3Y19657   3.940   5.000   9.307  1.7758 -1.5111  0.1047
  173SOPE   C3419658   3.734   5.003   9.340 -0.6992 -0.5970  0.5894
  173SOPE   H4X19659   3.737   5.113   9.328  0.8046 -0.8439 -1.5864
  173SOPE   H4Y19660   3.671   4.968   9.424 -1.5721 -0.0576  0.1584
  173SOPE   C3519661   3.674   4.917   9.226  0.5402 -0.8005  0.2258
  173SOPE   H5X19662   3.712   4.813   9.234 -0.3859 -1.0752  1.1658
  173SOPE   H5Y19663   3.705   4.969   9.133  1.9383 -0.6301  0.7826
  173SOPE   C3619664   3.527   4.907   9.230  0.9297  0.1316 -0.4337
  173SOPE   H6X19665   3.476   5.003   9.254  0.4551 -0.8784  2.8040
  173SOPE   H6Y19666   3.497   4.849   9.319  0.9463  1.8267  0.6915
  173SOPE   C3719667   3.464   4.830   9.114  0.2139 -0.0478 -0.4766
  173SOPE   H7X19668   3.514   4.732   9.094 -0.8313 -0.9133  1.0285
  173SOPE   H7Y19669   3.474   4.896   9.025  0.5121 -1.1675 -1.2932
  173SOPE   C3819670   3.314   4.798   9.139  0.9643 -0.0948  0.3234
  173SOPE   H8X19671   3.262   4.894   9.159  0.0168 -0.5417  0.0453
  173SOPE   H8Y19672   3.315   4.730   9.227 -2.3500 -0.1990  0.3665
  173SOPE   C3919673   3.247   4.733   9.016 -0.1010 -0.5717  0.1070
  173SOPE   H9X19674   3.290   4.634   8.989  1.0038  0.5477 -2.4537
  173SOPE   H9Y19675   3.281   4.795   8.930  1.5843  0.4622  1.4773
  173SOPE  C31019676   3.098   4.726   9.027  0.2613 -0.2342  0.4979
  173SOPE  H10X19677   3.048   4.824   9.034 -0.7517 -0.8910  2.7803
  173SOPE  H10Y19678   3.077   4.675   9.123  0.5554 -0.4070  0.4713
  173SOPE  C31119679   3.030   4.651   8.904 -0.4182 -0.5072 -0.8780
  173SOPE  H11X19680   3.093   4.564   8.874  0.3020 -0.3919  0.2667
  173SOPE  H11Y19681   3.017   4.723   8.820 -0.1790  1.5115  0.7832
  173SOPE  C31219682   2.892   4.591   8.940 -0.3611  0.0338 -0.0432
  173SOPE  H12X19683   2.862   4.531   8.852 -2.0469  1.5298 -0.5124
  173SOPE  H12Y19684   2.819   4.672   8.961  1.7800  2.3141 -1.1324
  173SOPE  C31319685   2.894   4.488   9.053  0.3038  0.1658 -0.2481
  173SOPE  H13X19686   2.912   4.536   9.152 -1.0365 -0.2764  0.2252
  173SOPE  H13Y19687   2.965   4.404   9.040 -0.9316 -1.0098  0.4739
  173SOPE  C31419688   2.753   4.428   9.079 -0.0711  0.6089  0.4547
  173SOPE  H14X19689   2.673   4.504   9.070 -2.5985 -2.2499 -2.4353
  173SOPE  H14Y19690   2.743   4.402   9.187 -1.6296  2.7715  0.8533
  173SOPE  C31519691   2.714   4.309   8.992  0.1293 -0.0996 -0.6642
  173SOPE  H15X19692   2.799   4.238   8.987 -0.0259 -0.3605  0.3135
  173SOPE  H15Y19693   2.696   4.349   8.890 -3.7562  0.1765  0.0789
  173SOPE  C31619694   2.591   4.238   9.046  0.6635  0.2885 -1.3015
  173SOPE  H16X19695   2.631   4.174   9.127 -0.3145 -0.4080 -1.3645
  173SOPE  H16Y19696   2.550   4.166   8.971  0.7524 -2.4923  1.2341
  173SOPE  C31719697   2.473   4.330   9.092 -0.0602 -0.5012  0.6460
  173SOPE  H17X19698   2.457   4.412   9.019  1.4189 -1.1063 -0.4002
  173SOPE  H17Y19699   2.508   4.381   9.184 -1.1973 -0.2894  0.9702
  173SOPE  C31819700   2.337   4.261   9.101 -0.8083  0.5507 -0.4232
  173SOPE  H18X19701   2.318   4.219   9.202 -1.0221  0.0166 -0.6785
  173SOPE  H18Y19702   2.348   4.163   9.049 -0.8746  0.0370  0.5235
  173SOPE  H18Z19703   2.256   4.327   9.065 -0.6751  0.3884 -1.0361
  174SOPE     N19704   4.825   4.044  10.508  0.2920  0.0788 -0.1592
  174SOPE   HN119705   4.912   4.101  10.505  0.6736 -0.5643 -2.9382
  174SOPE   HN219706   4.757   4.117  10.481  1.3678  0.9013 -0.6959
  174SOPE   HN319707   4.799   4.011  10.603  3.1473  0.5635  0.8389
  174SOPE   C1219708   4.828   3.928  10.409  0.4874  0.2131 -0.4251
  174SOPE  H12A19709   4.739   3.863  10.422  1.1536 -0.4022  1.2237
  174SOPE  H12B19710   4.920   3.868  10.423  1.2965  1.3677 -0.7134
  174SOPE   C1119711   4.834   3.978  10.264  0.1973  0.0476  0.2399
  174SOPE  H11A19712   4.850   3.888  10.201  3.8187  1.5672 -1.1465
  174SOPE  H11B19713   4.913   4.051  10.237 -1.0524  1.4398  0.2780
  174SOPE     P19714   4.671   4.061  10.081 -0.2899  0.3001 -0.5791
  174SOPE   O1319715   4.593   4.187  10.061 -0.1571 -0.2662 -0.2848
  174SOPE   O1419716   4.593   3.932  10.071 -0.6799  0.2829 -0.4482
  174SOPE   O1219717   4.720   4.063  10.235 -0.2297  0.4225 -0.1322
  174SOPE   O1119718   4.803   4.061   9.989  0.2219 -0.3611 -0.2927
  174SOPE    C119719   4.865   4.185   9.966 -0.1394  0.2296  0.6066
  174SOPE    HA19720   4.972   4.165   9.989  0.2869 -1.7641 -2.7313
  174SOPE    HB19721   4.823   4.269  10.024  1.2715  1.4743 -0.1486
  174SOPE    C219722   4.868   4.222   9.813 -0.2631 -0.2256  0.7728
  174SOPE    HS19723   4.770   4.275   9.814 -2.6842 -4.4512  0.0651
  174SOPE   O2119724   4.879   4.099   9.736  0.6522 -0.2754 -1.0057
  174SOPE   C2119725   4.765   4.052   9.686  0.3061  0.7857 -0.0280
  174SOPE   O2219726   4.659   4.114   9.686  0.4246 -0.1731 -0.0630
  174SOPE   C2219727   4.790   3.920   9.619  1.3063 -0.1132 -0.2035
  174SOPE   H2R19728   4.807   3.847   9.701  1.0587  1.5763  1.3686
  174SOPE   H2S19729   4.877   3.934   9.552 -0.8016 -2.3620 -3.5985
  174SOPE    C319730   4.981   4.325   9.779  0.1955  0.1601  0.7288
  174SOPE    HX19731   5.070   4.277   9.823 -0.6674 -2.7257 -0.5768
  174SOPE    HY19732   4.943   4.415   9.831  0.0079  1.1997 -1.1529
  174SOPE   O3119733   4.995   4.341   9.638  0.2688 -0.8536 -0.7730
  174SOPE   C3119734   5.080   4.442   9.605  0.4161  0.2023 -0.7975
  174SOPE   O3219735   5.150   4.497   9.684  0.0927  0.7287 -0.0508
  174SOPE   C3219736   5.087   4.455   9.452 -0.2626 -0.4143  0.7392
  174SOPE   H2X19737   4.980   4.461   9.423 -0.6136  0.7047  2.2315
  174SOPE   H2Y19738   5.130   4.362   9.410  2.3614  1.3231 -0.4828
  174SOPE   C2319739   4.669   3.871   9.534 -0.5098  0.6621 -0.2422
  174SOPE   H3R19740   4.581   3.869   9.601 -1.5839  1.3975 -1.5945
  174SOPE   H3S19741   4.693   3.767   9.501 -0.2410  0.4020  0.7632
  174SOPE   C2419742   4.651   3.958   9.408  0.4481 -0.0887 -0.1005
  174SOPE   H4R19743   4.543   3.979   9.393  0.6749  1.6173  0.5829
  174SOPE   H4S19744   4.694   4.060   9.407 -1.9829  0.9880  0.2646
  174SOPE   C2519745   4.688   3.890   9.275  0.5175  0.5538  0.0086
  174SOPE   H5R19746   4.797   3.869   9.281  0.7136  1.2267 -1.0556
  174SOPE   H5S19747   4.639   3.790   9.267  0.1801  0.8845 -2.6791
  174SOPE   C2619748   4.664   3.977   9.148 -0.0586  0.4078  0.7423
  174SOPE   H6R19749   4.555   3.984   9.130  0.0071 -0.7054 -0.1464
  174SOPE   H6S19750   4.703   4.081   9.153  3.9155 -0.9684  0.0628
  174SOPE   C2719751   4.721   3.911   9.014 -0.8390  0.0825  0.5506
  174SOPE   H7R19752   4.830   3.889   9.024 -0.8855 -1.0822 -1.4081
  174SOPE   H7S19753   4.674   3.813   8.995  0.2853 -0.6643  1.5126
  174SOPE   C2819754   4.680   3.983   8.894 -0.8326 -0.2287 -0.3159
  174SOPE   H8R19755   4.569   3.988   8.890 -1.0359 -4.3263 -3.5335
  174SOPE   H8S19756   4.697   4.092   8.905 -1.9470 -0.2673  2.1409
  174SOPE   C2919757   4.757   3.925   8.773  0.2602 -0.0169 -0.3943
  174SOPE   H9119758   4.862   3.902   8.796  0.7352  0.6203 -1.8769
  174SOPE  C21019759   4.694   3.863   8.670 -0.4628 -0.2985 -0.3196
  174SOPE  H10119760   4.747   3.832   8.578 -3.2176 -0.0348 -2.0415
  174SOPE  C21119761   4.545   3.853   8.653 -0.2044 -0.0826 -0.3894
  174SOPE  H11R19762   4.486   3.893   8.738 -1.5170  2.2320 -2.3281
  174SOPE  H11S19763   4.522   3.744   8.652  0.8005 -0.2863 -1.9001
  174SOPE  C21219764   4.494   3.911   8.520 -0.2389  0.2845  0.2253
  174SOPE  H12R19765   4.488   4.022   8.526  1.9224  0.4397  0.0211
  174SOPE  H12S19766   4.388   3.880   8.514  0.3267 -1.6680  0.1010
  174SOPE  C21319767   4.556   3.863   8.384 -0.1845  0.2542 -0.1663
  174SOPE  H13R19768   4.544   3.753   8.376  0.0420  0.0045  2.5337
  174SOPE  H13S19769   4.667   3.876   8.386 -0.1640  0.0335  0.1721
  174SOPE  C21419770   4.485   3.929   8.263 -0.4426 -0.0934  0.0521
  174SOPE  H14R19771   4.377   3.921   8.287 -0.8520  0.1384 -1.6022
  174SOPE  H14S19772   4.522   3.877   8.172 -0.9903  0.0358 -0.2419
  174SOPE  C21519773   4.516   4.078   8.243  0.3007  0.3721  0.0114
  174SOPE  H15R19774   4.624   4.101   8.255  0.6308 -0.7433 -0.7644
  174SOPE  H15S19775   4.452   4.126   8.320 -1.4688 -0.9303 -0.6248
  174SOPE  C21619776   4.475   4.115   8.100  0.2738 -0.3716 -0.0197
  174SOPE  H16R19777   4.384   4.056   8.073  0.9396 -0.7243 -1.5479
  174SOPE  H16S19778   4.548   4.080   8.024 -0.7741 -0.2275 -1.1161
  174SOPE  C21719779   4.452   4.262   8.089 -0.0762 -0.1563  0.3554
  174SOPE  H17R19780   4.539   4.314   8.135 -0.4612 -0.8247  1.8928
  174SOPE  H17S19781   4.362   4.302   8.139 -0.4523  2.1916 -2.1056
  174SOPE  C21819782   4.442   4.289   7.937 -0.0254  0.3008 -0.2600
  174SOPE  H18R19783   4.451   4.398   7.914  2.1829  0.1807 -0.1257
  174SOPE  H18S19784   4.345   4.254   7.896 -0.1711  0.1203  0.2358
  174SOPE  H18T19785   4.533   4.247   7.889 -2.0737 -0.8530 -3.2839
  174SOPE   C3319786   5.155   4.582   9.388 -0.0892 -0.2312 -0.1161
  174SOPE   H3X19787   5.264   4.585   9.365  0.4705  0.8188  2.4800
  174SOPE   H3Y19788   5.156   4.669   9.457 -2.8065  0.0859 -0.4256
  174SOPE   C3419789   5.072   4.634   9.271 -0.4150  0.4872  0.2783
  174SOPE   H4X19790   4.981   4.691   9.298  0.4686  1.9524  0.2591
  174SOPE   H4Y19791   5.038   4.541   9.221 -2.2141  1.3016 -0.0583
  174SOPE   C3519792   5.148   4.732   9.173 -0.2189 -0.1430 -0.6609
  174SOPE   H5X19793   5.238   4.685   9.128 -0.2227  0.4131 -1.2496
  174SOPE   H5Y19794   5.186   4.826   9.219 -0.2368  0.9857 -2.8805
  174SOPE   C3619795   5.055   4.774   9.059  0.2385  0.0206 -0.5556
  174SOPE   H6X19796   4.961   4.808   9.108  1.7215  3.2966  0.1998
  174SOPE   H6Y19797   5.016   4.694   8.992 -0.0328 -0.5025  0.2271
  174SOPE   C3719798   5.117   4.896   8.983 -0.0325 -0.1921  0.9070
  174SOPE   H7X19799   5.179   4.966   9.042  2.4413  0.1544 -2.0331
  174SOPE   H7Y19800   5.040   4.968   8.947  0.9508  0.9026  0.9643
  174SOPE   C3819801   5.207   4.839   8.869  0.4682  0.6604  0.8107
  174SOPE   H8X19802   5.296   4.785   8.907  1.0295  1.3134  0.4335
  174SOPE   H8Y19803   5.251   4.924   8.814  1.9860 -0.5675  0.1050
  174SOPE   C3919804   5.135   4.752   8.767 -0.2901 -0.1198 -0.0052
  174SOPE   H9X19805   5.048   4.810   8.729  0.7661  0.2070 -2.0007
  174SOPE   H9Y19806   5.097   4.664   8.823  1.3485  0.2959  1.8056
  174SOPE  C31019807   5.212   4.719   8.640  0.6216 -0.2230 -0.0424
  174SOPE  H10X19808   5.147   4.655   8.577  4.0863 -2.8688 -1.0662
  174SOPE  H10Y19809   5.293   4.650   8.671  0.2359 -0.1080  1.2725
  174SOPE  C31119810   5.278   4.836   8.560  0.0877  0.6442 -0.8584
  174SOPE  H11X19811   5.373   4.854   8.614  0.4446 -1.4444 -0.7403
  174SOPE  H11Y19812   5.217   4.928   8.550  0.0284  0.7234  0.1477
  174SOPE  C31219813   5.319   4.794   8.418 -0.1486 -0.1916 -0.3768
  174SOPE  H12X19814   5.239   4.737   8.366  1.0960 -5.5316  3.2069
  174SOPE  H12Y19815   5.402   4.721   8.419  1.0535  1.1635  0.3180
  174SOPE  C31319816   5.346   4.928   8.341  0.1337  0.6217  0.0813
  174SOPE  H13X19817   5.445   4.966   8.375  0.2787  2.2005 -2.0142
  174SOPE  H13Y19818   5.262   4.997   8.361  0.5797  0.9024  1.0470
  174SOPE  C31419819   5.377   4.915   8.186  0.6987  0.1079 -0.1769
  174SOPE  H14X19820   5.360   4.807   8.164  1.3124  0.0318 -0.2794
  174SOPE  H14Y19821   5.478   4.955   8.161  0.4403  0.3141 -0.9102
  174SOPE  C31519822   5.274   4.992   8.103  0.5084 -0.0878 -0.1190
  174SOPE  H15X19823   5.290   5.100   8.121  1.1942 -0.0088 -1.1713
  174SOPE  H15Y19824   5.172   4.955   8.129  1.0687 -3.4493 -2.4190
  174SOPE  C31619825   5.291   4.946   7.955  0.5916 -0.2707 -0.4262
  174SOPE  H16X19826   5.321   4.839   7.959  0.6793 -0.2784 -1.1239
  174SOPE  H16Y19827   5.376   5.001   7.910  2.6909 -1.1409  2.3347
  174SOPE  C31719828   5.173   4.964   7.858  0.8538  0.4184 -0.0629
  174SOPE  H17X19829   5.105   4.890   7.907  0.8305 -1.8202 -3.2834
  174SOPE  H17Y19830   5.201   4.933   7.755  0.9389 -2.5103  0.7912
  174SOPE  C31819831   5.113   5.107   7.849 -0.9833  0.4490  0.1855
  174SOPE  H18X19832   5.028   5.119   7.779 -1.9819 -1.9491  0.9200
  174SOPE  H18Y19833   5.193   5.180   7.823 -2.7684  3.2484  2.2764
  174SOPE  H18Z19834   5.079   5.133   7.952 -0.9421 -0.3330  0.4009
  175SOPE     N19835   4.841   5.604   9.712 -0.1900 -0.1242 -0.3777
  175SOPE   HN119836   4.752   5.567   9.750 -0.4845  2.1845  1.2759
  175SOPE   HN219837   4.902   5.628   9.793  0.3691  0.0977 -0.8569
  175SOPE   HN319838   4.829   5.691   9.656 -2.5060  0.9934  1.7425
  175SOPE   C1219839   4.922   5.512   9.635  0.1675  0.2649 -0.4374
  175SOPE  H12A19840   5.009   5.567   9.593  0.2420  0.2324 -0.3238
  175SOPE  H12B19841   4.865   5.481   9.545 -0.4796  0.9313 -0.2545
  175SOPE   C1119842   4.965   5.400   9.727  0.2232  0.5902 -0.5703
  175SOPE  H11A19843   5.022   5.325   9.667  1.5521 -0.1020  1.5339
  175SOPE  H11B19844   4.873   5.347   9.762  0.3700  0.3033 -0.6151
  175SOPE     P19845   5.087   5.361   9.946 -0.0745 -0.1606 -0.0419
  175SOPE   O1319846   4.965   5.316  10.016  0.2853 -0.4773 -0.1184
  175SOPE   O1419847   5.189   5.433  10.030  0.1583 -0.1555  0.1857
  175SOPE   O1219848   5.048   5.457   9.827 -0.4214 -0.3920 -0.1674
  175SOPE   O1119849   5.163   5.236   9.878 -0.7042 -0.3835 -0.1184
  175SOPE    C119850   5.079   5.119   9.854 -0.3532 -0.4972  0.3988
  175SOPE    HA19851   4.985   5.149   9.802 -0.9871 -1.2552  1.0914
  175SOPE    HB19852   5.053   5.067   9.948  1.2379  1.2554  1.8273
  175SOPE    C219853   5.142   5.009   9.757 -0.0888 -0.0227 -0.4439
  175SOPE    HS19854   5.243   4.983   9.794 -1.0980 -1.7958  1.1340
  175SOPE   O2119855   5.148   5.064   9.629 -0.1643 -0.1355 -0.2400
  175SOPE   C2119856   5.238   5.012   9.550 -0.9731  0.5963 -0.5661
  175SOPE   O2219857   5.311   4.917   9.573  0.2412  0.6573 -0.3519
  175SOPE   C2219858   5.237   5.096   9.417 -0.2538  0.4579 -0.0085
  175SOPE   H2R19859   5.150   5.058   9.361 -0.7021 -2.0163  2.2590
  175SOPE   H2S19860   5.314   5.057   9.347  0.5304  1.1003  0.4774
  175SOPE    C319861   5.059   4.879   9.759 -0.2958 -0.2152  0.2568
  175SOPE    HX19862   5.046   4.840   9.862 -0.6205 -2.3932 -0.5796
  175SOPE    HY19863   5.111   4.794   9.711  1.7402  0.0106  1.9902
  175SOPE   O3119864   4.918   4.908   9.720  0.8133  0.2400  0.1098
  175SOPE   C3119865   4.898   4.881   9.597  0.0285  0.0313 -0.1744
  175SOPE   O3219866   4.972   4.848   9.508 -0.5848  0.0881  0.5411
  175SOPE   C3219867   4.752   4.924   9.568 -0.1486 -0.1626 -0.2473
  175SOPE   H2X19868   4.736   5.026   9.609 -0.9633  0.2691 -1.6402
  175SOPE   H2Y19869   4.687   4.864   9.635 -0.1860 -1.4392 -1.4210
  175SOPE   C2319870   5.223   5.250   9.428  0.6294  0.6806 -0.2017
  175SOPE   H3R19871   5.311   5.292   9.481  1.2964 -1.1761  0.2057
  175SOPE   H3S19872   5.137   5.279   9.492  0.7880  1.9510 -0.5549
  175SOPE   C2419873   5.215   5.325   9.296  0.1416 -0.1448  0.1841
  175SOPE   H4R19874   5.212   5.433   9.323 -0.3259 -0.3536  0.9767
  175SOPE   H4S19875   5.301   5.321   9.226  0.7351  1.2127  0.8124
  175SOPE   C2519876   5.081   5.303   9.223 -0.1471  0.1020  0.2911
  175SOPE   H5R19877   5.079   5.198   9.186  0.6796 -0.2757  1.2628
  175SOPE   H5S19878   5.002   5.306   9.301 -0.2603  2.5672  0.1280
  175SOPE   C2619879   5.051   5.414   9.117 -0.1119 -0.3580  0.0304
  175SOPE   H6R19880   4.942   5.414   9.101 -0.2242 -0.6566  0.7776
  175SOPE   H6S19881   5.082   5.505   9.173  0.1356 -1.1409  1.1943
  175SOPE   C2719882   5.128   5.389   8.986 -0.4618 -0.8536 -0.0590
  175SOPE   H7R19883   5.236   5.402   9.009 -0.4980 -1.0744  0.2281
  175SOPE   H7S19884   5.107   5.287   8.946  1.6546 -0.3698 -2.5887
  175SOPE   C2819885   5.102   5.493   8.880 -0.3724  0.3087  0.0301
  175SOPE   H8R19886   4.994   5.483   8.858 -0.0847 -2.2015 -0.3685
  175SOPE   H8S19887   5.131   5.591   8.923  1.7090 -1.1555  2.0995
  175SOPE   C2919888   5.180   5.488   8.746  0.3158 -0.1376 -0.0419
  175SOPE   H9119889   5.269   5.552   8.753 -0.2711  0.5306  1.6983
  175SOPE  C21019890   5.145   5.428   8.631 -0.2641 -0.0941 -0.0802
  175SOPE  H10119891   5.230   5.426   8.561  0.6559 -2.4546  1.0491
  175SOPE  C21119892   5.024   5.344   8.601 -0.5028 -0.1041 -0.0585
  175SOPE  H11R19893   4.987   5.385   8.504  0.9915 -0.9548 -1.0093
  175SOPE  H11S19894   4.936   5.340   8.668  0.9684 -1.2372  1.8414
  175SOPE  C21219895   5.061   5.196   8.572  1.0267 -0.4931  0.0757
  175SOPE  H12R19896   5.095   5.143   8.664  3.2289  0.9983  0.1479
  175SOPE  H12S19897   5.147   5.198   8.502  1.3714 -0.0291  0.5140
  175SOPE  C21319898   4.960   5.115   8.487 -0.2782 -0.7891  0.2620
  175SOPE  H13R19899   4.998   5.012   8.466  2.4870 -0.2809  2.5523
  175SOPE  H13S19900   4.953   5.164   8.387 -0.5752 -0.2926  0.5244
  175SOPE  C21419901   4.817   5.105   8.551 -0.3204 -0.3658 -0.0818
  175SOPE  H14R19902   4.750   5.047   8.484 -0.0163  0.0216 -0.7219
  175SOPE  H14S19903   4.765   5.201   8.571  1.0512  0.3118  0.3086
  175SOPE  C21519904   4.827   5.019   8.680 -0.1777  0.1299  0.2821
  175SOPE  H15R19905   4.822   5.098   8.758 -1.4403 -2.0236  2.4628
  175SOPE  H15S19906   4.924   4.966   8.693  0.3380  0.3746 -2.3612
  175SOPE  C21619907   4.706   4.927   8.701 -0.1720 -0.0088  0.5204
  175SOPE  H16R19908   4.686   4.849   8.625 -0.4117 -0.1992  0.7794
  175SOPE  H16S19909   4.608   4.978   8.709 -0.6987 -0.4482 -2.5330
  175SOPE  C21719910   4.741   4.850   8.828 -0.2332 -0.0797  0.3824
  175SOPE  H17R19911   4.763   4.925   8.907 -0.2182 -1.6338  1.9146
  175SOPE  H17S19912   4.826   4.783   8.801 -1.3246 -1.1511 -0.4210
  175SOPE  C21819913   4.624   4.763   8.879  0.4773 -0.3540 -0.4864
  175SOPE  H18R19914   4.650   4.706   8.971 -2.2466 -1.0209 -0.0746
  175SOPE  H18S19915   4.601   4.686   8.802 -0.5186  1.2746 -1.8463
  175SOPE  H18T19916   4.538   4.833   8.879  0.8567  0.1139 -1.2014
  175SOPE   C3319917   4.727   4.933   9.418 -0.0140 -0.4160  0.7660
  175SOPE   H3X19918   4.618   4.912   9.410  0.3011 -1.1402 -2.1312
  175SOPE   H3Y19919   4.775   4.864   9.345  0.6185 -0.2161  0.9915
  175SOPE   C3419920   4.727   5.081   9.362 -0.2196 -0.4355  0.2946
  175SOPE   H4X19921   4.828   5.123   9.376 -0.5905  0.5276  0.1249
  175SOPE   H4Y19922   4.659   5.140   9.427  0.8235  1.5973 -0.4383
  175SOPE   C3519923   4.685   5.077   9.211  0.5197 -0.1677  0.1685
  175SOPE   H5X19924   4.574   5.074   9.201  0.3787  3.1790  0.1703
  175SOPE   H5Y19925   4.738   4.992   9.165 -0.3831 -1.2804  1.1491
  175SOPE   C3619926   4.718   5.210   9.134 -0.1386 -0.0838 -0.6124
  175SOPE   H6X19927   4.827   5.208   9.114  0.0991  0.6612  0.5683
  175SOPE   H6Y19928   4.687   5.290   9.205  0.0822 -1.4575  1.0640
  175SOPE   C3719929   4.638   5.219   9.005  0.1324  0.0879  0.2413
  175SOPE   H7X19930   4.533   5.228   9.039 -0.2238  1.7358 -1.2198
  175SOPE   H7Y19931   4.642   5.119   8.957  1.5258 -0.6950  1.9504
  175SOPE   C3819932   4.679   5.317   8.900 -0.5072 -0.9267  0.2964
  175SOPE   H8X19933   4.651   5.272   8.803  0.6726  0.2375 -0.5967
  175SOPE   H8Y19934   4.789   5.310   8.913 -0.0334  0.9865 -2.4048
  175SOPE   C3919935   4.629   5.459   8.912  0.8417  0.3322  0.2743
  175SOPE   H9X19936   4.659   5.500   9.011  0.1019 -0.8768  1.0188
  175SOPE   H9Y19937   4.520   5.465   8.897  0.7657 -0.2710  0.5338
  175SOPE  C31019938   4.690   5.560   8.808  0.1461 -0.5478  0.2981
  175SOPE  H10X19939   4.800   5.552   8.811  0.2323 -0.7320 -2.5712
  175SOPE  H10Y19940   4.654   5.660   8.839 -0.1681 -0.6763  0.3531
  175SOPE  C31119941   4.645   5.527   8.663  0.1241  0.5742 -0.0340
  175SOPE  H11X19942   4.540   5.491   8.664  0.1133  0.6177  1.1060
  175SOPE  H11Y19943   4.705   5.443   8.621  0.9712  2.0694 -1.8471
  175SOPE  C31219944   4.643   5.652   8.575  0.2533 -0.0530 -0.3972
  175SOPE  H12X19945   4.738   5.708   8.562  1.1451 -0.9097  2.0684
  175SOPE  H12Y19946   4.576   5.716   8.638  0.9308  1.2949 -1.0308
  175SOPE  C31319947   4.582   5.640   8.437 -0.5496  0.4746 -0.4059
  175SOPE  H13X19948   4.474   5.615   8.451 -0.2188 -1.1541 -0.7089
  175SOPE  H13Y19949   4.630   5.550   8.394 -0.6826  0.6707 -0.9631
  175SOPE  C31419950   4.607   5.762   8.341  0.1265 -0.5698  0.7799
  175SOPE  H14X19951   4.716   5.756   8.319  0.7195 -1.9872  3.7851
  175SOPE  H14Y19952   4.585   5.849   8.406 -0.8581  0.8910 -1.4288
  175SOPE  C31519953   4.502   5.771   8.230  0.1254  0.4839  0.0069
  175SOPE  H15X19954   4.405   5.723   8.257  0.4273 -1.3502 -2.0744
  175SOPE  H15Y19955   4.555   5.719   8.148  0.4100  0.2219  0.3550
  175SOPE  C31619956   4.484   5.914   8.186 -0.5736 -0.6207 -0.6118
  175SOPE  H16X19957   4.576   5.969   8.218  0.5290 -1.4075 -2.3470
  175SOPE  H16Y19958   4.404   5.978   8.229 -0.2860  0.6160 -1.8655
  175SOPE  C31719959   4.468   5.936   8.034  0.2143 -0.5799 -0.0872
  175SOPE  H17X19960   4.389   5.869   7.994 -1.1837 -0.0176  1.6966
  175SOPE  H17Y19961   4.570   5.912   7.996  0.5548  0.1796  0.3385
  175SOPE  C31819962   4.429   6.075   7.992  0.2230  1.0008  0.5239
  175SOPE  H18X19963   4.419   6.076   7.882  1.3667  1.5512  0.4188
  175SOPE  H18Y19964   4.501   6.147   8.038 -0.0888  1.4443  0.3165
  175SOPE  H18Z19965   4.339   6.105   8.050 -0.8680  2.7467 -2.0029
  176SOPE     N19966   5.859   4.548  10.400  0.1566 -0.1686  0.5799
  176SOPE   HN119967   5.915   4.464  10.376  0.4422 -0.9496  3.6943
  176SOPE   HN219968   5.907   4.596  10.479  1.3674  1.1748 -0.9402
  176SOPE   HN319969   5.765   4.513  10.429 -0.1415  0.6776  0.6430
  176SOPE   C1219970   5.838   4.621  10.275  0.0731 -0.3020  0.5800
  176SOPE  H12A19971   5.932   4.624  10.214 -0.5494 -1.4886 -0.4778
  176SOPE  H12B19972   5.816   4.725  10.305 -0.2833 -0.1939 -0.0442
  176SOPE   C1119973   5.726   4.562  10.182 -1.0181  0.2743 -0.1208
  176SOPE  H11A19974   5.720   4.619  10.087 -1.6421 -0.9109 -0.8077
  176SOPE  H11B19975   5.632   4.559  10.241 -0.3950  1.5127  0.9773
  176SOPE     P19976   5.836   4.386  10.020 -0.4402  0.4598 -0.4663
  176SOPE   O1319977   5.873   4.243  10.033  0.3990 -0.0183 -0.6183
  176SOPE   O1419978   5.950   4.480   9.999  0.0867 -0.2191  0.6989
  176SOPE   O1219979   5.754   4.426  10.148  0.4656  0.1767 -0.5917
  176SOPE   O1119980   5.727   4.405   9.913 -0.5224  0.3362 -0.0726
  176SOPE    C119981   5.587   4.365   9.923 -0.5168  0.4541 -0.1122
  176SOPE    HA19982   5.516   4.451   9.928  0.0663  0.9641 -0.4555
  176SOPE    HB19983   5.583   4.313  10.021 -0.9178 -0.7500 -0.7592
  176SOPE    C219984   5.535   4.271   9.809  0.0353 -0.3338  0.3827
  176SOPE    HS19985   5.573   4.171   9.840 -0.9949 -0.7802  0.2368
  176SOPE   O2119986   5.576   4.324   9.682 -0.5246 -0.0240  0.0347
  176SOPE   C2119987   5.672   4.264   9.629 -0.7098 -0.5809  0.0869
  176SOPE   O2219988   5.734   4.168   9.680 -0.0026 -0.6827  0.8649
  176SOPE   C2219989   5.701   4.337   9.492 -0.7903 -0.3897  0.0154
  176SOPE   H2R19990   5.804   4.305   9.463 -1.2260 -1.2418 -0.6032
  176SOPE   H2S19991   5.706   4.448   9.500 -1.4932 -0.3425 -0.2225
  176SOPE    C319992   5.388   4.252   9.806  0.2996  0.1029  0.5586
  176SOPE    HX19993   5.355   4.350   9.766  1.1829  1.5295  3.2574
  176SOPE    HY19994   5.352   4.245   9.911 -3.6094  0.8914 -0.6419
  176SOPE   O3119995   5.361   4.126   9.735  1.2453 -0.7386 -0.1251
  176SOPE   C3119996   5.295   4.132   9.622  1.1998 -0.8912 -0.5706
  176SOPE   O3219997   5.283   4.229   9.553 -0.1573 -0.0476 -0.2596
  176SOPE   C3219998   5.237   3.995   9.580 -0.1256  0.5539 -0.4786
  176SOPE   H2X19999   5.186   3.945   9.665  0.0661 -2.2035 -1.9073
  176SOPE   H2Y20000   5.318   3.924   9.554 -1.2537 -0.1075 -2.3531
  176SOPE   C2320001   5.594   4.295   9.392  0.5184  0.3140  0.1794
  176SOPE   H3R20002   5.494   4.328   9.428  0.4436  1.8422 -1.3442
  176SOPE   H3S20003   5.588   4.185   9.383 -0.4643  0.3739  0.0443
  176SOPE   C2420004   5.608   4.350   9.245  0.0094 -0.3995  0.4491
  176SOPE   H4R20005   5.612   4.461   9.251 -0.5177 -0.1419 -2.8363
  176SOPE   H4S20006   5.703   4.310   9.202 -0.6395 -2.3698  0.8026
  176SOPE   C2520007   5.501   4.321   9.151  0.5695 -0.5475 -0.2298
  176SOPE   H5R20008   5.481   4.212   9.147 -1.6768 -0.2493  1.6733
  176SOPE   H5S20009   5.404   4.367   9.182 -0.7795 -2.7795 -1.0365
  176SOPE   C2620010   5.559   4.366   9.014  0.3198 -0.0594 -0.7839
  176SOPE   H6R20011   5.650   4.310   8.984  0.9869  0.7456 -0.2932
  176SOPE   H6S20012   5.484   4.337   8.937  0.6605 -0.1760 -1.0734
  176SOPE   C2720013   5.576   4.517   8.997  0.1243 -0.4018  0.0981
  176SOPE   H7R20014   5.491   4.563   9.053  1.7371  0.9306  1.4968
  176SOPE   H7S20015   5.674   4.553   9.033 -0.7630  1.6773  0.4926
  176SOPE   C2820016   5.546   4.563   8.855  0.2520  0.0131 -0.0963
  176SOPE   H8R20017   5.445   4.529   8.824  1.3208 -3.2332 -0.1979
  176SOPE   H8S20018   5.553   4.673   8.867  1.2923 -0.2039  1.6213
  176SOPE   C2920019   5.660   4.513   8.766 -0.6427  0.0219 -0.2445
  176SOPE   H9120020   5.667   4.403   8.758 -0.7337  0.1634 -2.3567
  176SOPE  C21020021   5.744   4.587   8.691  0.0627  0.9682  0.4014
  176SOPE  H10120022   5.813   4.536   8.621 -1.2570  0.4016 -0.5101
  176SOPE  C21120023   5.749   4.733   8.671  0.8586 -0.6918 -0.1676
  176SOPE  H11R20024   5.677   4.789   8.735  1.2532  0.5516 -0.8093
  176SOPE  H11S20025   5.725   4.752   8.564 -1.2269  1.5451  0.6409
  176SOPE  C21220026   5.890   4.796   8.698  0.0893  0.8805 -0.0307
  176SOPE  H12R20027   5.953   4.761   8.613  2.4450  0.1712  1.9553
  176SOPE  H12S20028   5.933   4.761   8.794 -2.0603 -1.5247  0.1099
  176SOPE  C21320029   5.881   4.950   8.717  0.2119 -0.3244 -0.1006
  176SOPE  H13R20030   5.809   4.990   8.792  0.0650 -1.8190  0.5720
  176SOPE  H13S20031   5.844   4.989   8.620 -0.8937 -1.0333  0.0165
  176SOPE  C21420032   6.015   5.009   8.739  0.0306 -0.4183  0.4471
  176SOPE  H14R20033   6.086   4.925   8.754  0.1050 -0.0373  2.3068
  176SOPE  H14S20034   6.015   5.076   8.828 -1.3571 -0.4248  0.4680
  176SOPE  C21520035   6.065   5.092   8.616  0.1426  0.4884  0.0345
  176SOPE  H15R20036   6.166   5.134   8.633  0.1105  0.5707  0.0231
  176SOPE  H15S20037   5.996   5.179   8.619 -2.3717 -1.4796  3.9200
  176SOPE  C21620038   6.063   5.024   8.478 -0.1884 -0.0959 -0.0247
  176SOPE  H16R20039   6.073   5.101   8.399  1.1283  1.0142  1.1975
  176SOPE  H16S20040   5.971   4.965   8.456 -1.1173  1.8739 -1.4797
  176SOPE  C21720041   6.188   4.933   8.454  0.7391  0.3648 -0.9448
  176SOPE  H17R20042   6.204   4.875   8.547 -0.3560  1.5471  0.0057
  176SOPE  H17S20043   6.280   4.993   8.436 -0.8102  3.5471  1.2494
  176SOPE  C21820044   6.168   4.844   8.336 -0.2228 -0.5799 -0.0674
  176SOPE  H18R20045   6.081   4.776   8.342 -0.5029 -0.2204  0.0035
  176SOPE  H18S20046   6.258   4.780   8.334 -0.8631 -1.4872 -0.0906
  176SOPE  H18T20047   6.162   4.903   8.242  0.5301 -1.7081 -0.8332
  176SOPE   C3320048   5.138   4.007   9.461 -0.2942  0.6252 -0.2098
  176SOPE   H3X20049   5.075   4.097   9.477 -2.1963 -0.0710 -3.5698
  176SOPE   H3Y20050   5.081   3.912   9.456 -1.8456  1.4861  0.7743
  176SOPE   C3420051   5.216   4.023   9.334 -1.2086  0.3462 -0.5230
  176SOPE   H4X20052   5.280   3.936   9.310 -1.8171  0.0568 -1.1087
  176SOPE   H4Y20053   5.274   4.118   9.330 -0.3316 -0.2203 -1.8580
  176SOPE   C3520054   5.125   4.039   9.208  0.7148  0.1016 -0.2790
  176SOPE   H5X20055   5.059   4.127   9.222  1.3493  0.6852 -0.9120
  176SOPE   H5Y20056   5.063   3.949   9.189 -1.9356  1.3168  2.2436
  176SOPE   C3620057   5.208   4.072   9.080  0.0748 -0.1521 -0.0552
  176SOPE   H6X20058   5.279   3.986   9.072  1.4672  0.8544  1.3213
  176SOPE   H6Y20059   5.266   4.166   9.087 -0.3374  0.1874 -0.9896
  176SOPE   C3720060   5.121   4.083   8.951 -0.5308  0.1733 -0.1089
  176SOPE   H7X20061   5.045   4.003   8.958 -0.3679 -0.0919 -1.3747
  176SOPE   H7Y20062   5.181   4.065   8.859  0.6566  0.6254  0.5606
  176SOPE   C3820063   5.061   4.221   8.936 -0.3509  0.2701 -0.0440
  176SOPE   H8X20064   5.141   4.298   8.935  1.0972 -1.2023  1.2002
  176SOPE   H8Y20065   4.986   4.244   9.015  1.5804 -2.0829  2.5741
  176SOPE   C3920066   5.001   4.240   8.798 -0.0503 -0.2435 -0.5181
  176SOPE   H9X20067   4.908   4.181   8.782 -0.7656  0.7063  0.0724
  176SOPE   H9Y20068   5.078   4.204   8.727  0.2939 -0.6029  0.0365
  176SOPE  C31020069   4.978   4.388   8.762  0.5206 -0.2688  0.0243
  176SOPE  H10X20070   5.075   4.440   8.745 -0.7430  2.7657  1.7144
  176SOPE  H10Y20071   4.934   4.435   8.852  0.2537 -1.2047  0.3897
  176SOPE  C31120072   4.875   4.418   8.646 -0.5758 -0.1970 -0.9553
  176SOPE  H11X20073   4.858   4.528   8.636 -0.7773 -0.1373 -0.0424
  176SOPE  H11Y20074   4.775   4.375   8.665 -0.6731  0.9744  1.3580
  176SOPE  C31220075   4.914   4.340   8.519  0.0834  0.2320 -0.2981
  176SOPE  H12X20076   4.867   4.239   8.515  0.6123 -0.0521  0.4555
  176SOPE  H12Y20077   5.023   4.315   8.516 -0.2901 -1.3253 -2.5150
  176SOPE  C31320078   4.854   4.396   8.389  0.0651 -0.7821 -0.0348
  176SOPE  H13X20079   4.745   4.373   8.390 -0.0373 -0.2963  1.1132
  176SOPE  H13Y20080   4.896   4.344   8.300 -1.2848  0.9057 -1.6990
  176SOPE  C31420081   4.881   4.549   8.364 -0.1278 -0.4615 -0.5195
  176SOPE  H14X20082   4.990   4.567   8.358  0.1752 -1.1894  2.3811
  176SOPE  H14Y20083   4.844   4.624   8.437  1.4330  0.0511 -0.2487
  176SOPE  C31520084   4.819   4.584   8.227  0.1723  0.2274  0.1020
  176SOPE  H15X20085   4.711   4.556   8.223  0.1178  0.6848 -2.7468
  176SOPE  H15Y20086   4.854   4.513   8.148 -1.2075 -0.9740  0.5375
  176SOPE  C31620087   4.829   4.731   8.198 -0.4883 -0.3069 -0.2378
  176SOPE  H16X20088   4.787   4.752   8.097 -0.2932  0.3258 -0.1940
  176SOPE  H16Y20089   4.937   4.757   8.197 -0.6285  0.2877 -0.0941
  176SOPE  C31720090   4.738   4.832   8.272  0.1865  0.6070 -0.3335
  176SOPE  H17X20091   4.763   4.831   8.381  2.4206 -1.3576 -0.8384
  176SOPE  H17Y20092   4.633   4.796   8.263  0.5767 -1.6549  3.1586
  176SOPE  C31820093   4.751   4.977   8.217  0.5345  0.2697 -0.0873
  176SOPE  H18X20094   4.697   4.977   8.120 -0.9868 -0.5631  0.7302
  176SOPE  H18Y20095   4.858   5.006   8.216  0.4265  0.8282  1.8180
  176SOPE  H18Z20096   4.701   5.042   8.293 -0.5653 -2.3797  1.5487
  177SOPE     N20097   5.303   1.292  10.244  0.1861 -0.2494  0.4391
  177SOPE   HN120098   5.203   1.270  10.225 -0.0672 -0.1019  1.5654
  177SOPE   HN220099   5.354   1.211  10.204  0.9573 -0.0094  0.9165
  177SOPE   HN320100   5.316   1.296  10.347 -1.0685 -0.7677  0.6316
  177SOPE   C1220101   5.348   1.422  10.176 -0.8557  0.3552  0.2499
  177SOPE  H12A20102   5.394   1.405  10.076  1.3114  0.8374  1.1288
  177SOPE  H12B20103   5.426   1.466  10.241 -1.0665 -0.2012  0.8899
  177SOPE   C1120104   5.244   1.522  10.145  0.1366  0.8336  0.6277
  177SOPE  H11A20105   5.159   1.466  10.101 -1.2919  1.8893  1.9886
  177SOPE  H11B20106   5.254   1.593  10.060 -0.8908 -2.8608 -2.7469
  177SOPE     P20107   5.266   1.732  10.301  0.2145  0.0310  0.5774
  177SOPE   O1320108   5.412   1.724  10.292  0.3503  0.1454  0.6474
  177SOPE   O1420109   5.215   1.759  10.433  0.5747  0.7123 -0.0720
  177SOPE   O1220110   5.200   1.594  10.257 -0.2013  0.3040 -0.1135
  177SOPE   O1120111   5.203   1.847  10.205 -0.4797 -0.2261 -0.3007
  177SOPE    C120112   5.059   1.844  10.194  0.2037 -0.4327 -0.4498
  177SOPE    HA20113   5.005   1.867  10.289  1.2629 -1.6122  0.4412
  177SOPE    HB20114   5.023   1.747  10.154  1.0714 -1.6126  1.5701
  177SOPE    C220115   5.015   1.961  10.095  0.0224 -0.3931  0.0776
  177SOPE    HS20116   4.911   1.948  10.061 -0.9323  2.0031  1.8779
  177SOPE   O2120117   5.102   1.967   9.977  0.3696 -0.4548 -0.4982
  177SOPE   C2120118   5.128   1.859   9.921 -0.2490 -0.3120 -0.2650
  177SOPE   O2220119   5.056   1.758   9.925  0.1815  0.8244 -0.1622
  177SOPE   C2220120   5.252   1.880   9.835 -0.2605 -0.1374 -0.1097
  177SOPE   H2R20121   5.297   1.978   9.863  2.9209 -2.2428  2.6158
  177SOPE   H2S20122   5.222   1.871   9.729 -0.0230 -4.2420  0.0958
  177SOPE    C320123   5.022   2.101  10.166 -0.6186 -0.5354 -0.6297
  177SOPE    HX20124   5.131   2.110  10.189 -1.4101  2.4827  2.4219
  177SOPE    HY20125   4.961   2.099  10.259 -1.0814 -0.6105 -0.9362
  177SOPE   O3120126   4.973   2.202  10.076 -0.4835 -0.1822  0.6236
  177SOPE   C3120127   5.035   2.320  10.072 -0.5038  0.7846  0.2611
  177SOPE   O3220128   5.128   2.353  10.145  0.2188  0.8794  0.2678
  177SOPE   C3220129   4.970   2.412   9.974 -0.1306 -0.3616  0.0079
  177SOPE   H2X20130   4.909   2.469  10.048 -1.3158  0.0745 -1.2765
  177SOPE   H2Y20131   4.909   2.345   9.910  0.7565 -0.5091 -0.6914
  177SOPE   C2320132   5.370   1.778   9.867 -0.0048  0.2857 -0.3397
  177SOPE   H3R20133   5.331   1.675   9.854  1.0003  0.1416 -2.3596
  177SOPE   H3S20134   5.401   1.794   9.972  2.5951 -0.8292 -0.8979
  177SOPE   C2420135   5.489   1.791   9.771  0.5782  0.6197  0.7365
  177SOPE   H4R20136   5.566   1.715   9.794  0.0376 -0.3312 -0.5540
  177SOPE   H4S20137   5.450   1.767   9.670  0.9290 -1.4719  1.0740
  177SOPE   C2520138   5.542   1.930   9.766 -0.2243  0.2499  0.3435
  177SOPE   H5R20139   5.472   1.985   9.698  0.2262  1.4995  0.8687
  177SOPE   H5S20140   5.534   1.976   9.867  1.1988  1.5253 -0.0993
  177SOPE   C2620141   5.683   1.932   9.711 -1.0201  0.2112 -0.0339
  177SOPE   H6R20142   5.739   1.867   9.781 -2.2169  1.5480  2.2273
  177SOPE   H6S20143   5.669   1.888   9.610 -1.7387  1.0456 -0.3020
  177SOPE   C2720144   5.739   2.064   9.704 -0.2129  0.8368 -0.1900
  177SOPE   H7R20145   5.672   2.126   9.641  0.1814  0.9522 -0.5028
  177SOPE   H7S20146   5.754   2.099   9.808 -0.8710  2.6150 -0.6676
  177SOPE   C2820147   5.884   2.065   9.650 -0.5643 -0.1995  0.3298
  177SOPE   H8R20148   5.947   2.117   9.725 -1.8648  1.0310  0.5783
  177SOPE   H8S20149   5.908   1.958   9.628 -0.5304 -0.5184  1.8945
  177SOPE   C2920150   5.884   2.144   9.525  0.2918  0.6545  0.6405
  177SOPE   H9120151   5.853   2.249   9.537  1.4530  1.2203 -1.1660
  177SOPE  C21020152   5.891   2.095   9.403 -0.1859  0.9466  0.3619
  177SOPE  H10120153   5.901   2.175   9.328  3.2700  0.5905  0.3894
  177SOPE  C21120154   5.906   1.948   9.356  0.4548  0.0890 -0.2224
  177SOPE  H11R20155   5.903   1.875   9.440 -0.8261  2.1820  1.6067
  177SOPE  H11S20156   5.995   1.931   9.292  2.4849  2.5516  1.8384
  177SOPE  C21220157   5.799   1.924   9.250  0.4587 -0.6757  0.6046
  177SOPE  H12R20158   5.835   1.845   9.180 -0.2607 -0.2503 -0.2548
  177SOPE  H12S20159   5.780   2.014   9.187  0.3389 -0.2514  1.2474
  177SOPE  C21320160   5.665   1.879   9.311 -0.2747  0.7915 -0.0029
  177SOPE  H13R20161   5.623   1.963   9.371  0.7968  0.8317  0.6999
  177SOPE  H13S20162   5.675   1.795   9.384 -1.2162  0.7571  0.1002
  177SOPE  C21420163   5.567   1.830   9.211 -0.1456  1.1625  0.5899
  177SOPE  H14R20164   5.480   1.770   9.247  0.3550  0.5468  0.7756
  177SOPE  H14S20165   5.624   1.767   9.140 -0.7345  0.5121  0.6813
  177SOPE  C21520166   5.502   1.936   9.116  0.1190 -0.2569  0.9536
  177SOPE  H15R20167   5.479   2.022   9.182  0.3907  1.7670 -1.5014
  177SOPE  H15S20168   5.403   1.893   9.088  0.3185 -1.3579  1.8828
  177SOPE  C21620169   5.575   1.980   8.988 -0.7606  0.3116 -0.3741
  177SOPE  H16R20170   5.668   1.919   8.983 -1.2514 -0.3578 -1.3583
  177SOPE  H16S20171   5.613   2.083   9.005  0.8103 -0.6646  2.4766
  177SOPE  C21720172   5.493   1.951   8.868 -0.1158 -0.3622 -0.9442
  177SOPE  H17R20173   5.414   2.029   8.879  1.0092  0.8641 -1.3789
  177SOPE  H17S20174   5.439   1.854   8.877 -2.8435  1.0691 -1.3024
  177SOPE  C21820175   5.556   1.978   8.733 -0.6122 -0.4005  0.7053
  177SOPE  H18R20176   5.633   1.903   8.705  0.4505  0.5204  1.1173
  177SOPE  H18S20177   5.616   2.071   8.743 -0.8540  0.0297 -1.5871
  177SOPE  H18T20178   5.474   1.980   8.658 -0.2626  0.7904  0.3346
  177SOPE   C3320179   5.071   2.483   9.894 -0.2999  0.3648  0.0839
  177SOPE   H3X20180   5.128   2.548   9.964 -0.3988 -1.0110  1.4874
  177SOPE   H3Y20181   5.023   2.542   9.814  1.3969 -1.3059 -2.2387
  177SOPE   C3420182   5.174   2.392   9.828  0.0375  0.4336  0.2965
  177SOPE   H4X20183   5.248   2.363   9.905  0.0377  3.3043  1.4389
  177SOPE   H4Y20184   5.233   2.451   9.755 -0.2118 -0.2544 -0.4646
  177SOPE   C3520185   5.129   2.276   9.743  0.3056  0.4761 -0.2632
  177SOPE   H5X20186   5.044   2.310   9.681  1.6901 -0.6135 -2.8706
  177SOPE   H5Y20187   5.097   2.195   9.811  1.4735  0.9844  0.9276
  177SOPE   C3620188   5.234   2.229   9.640 -0.2094  0.0343 -0.5540
  177SOPE   H6X20189   5.318   2.184   9.697 -0.5329 -0.2841 -0.3301
  177SOPE   H6Y20190   5.265   2.322   9.587 -0.7710  0.4040 -0.2446
  177SOPE   C3720191   5.168   2.148   9.524  0.0631 -0.4986 -0.7301
  177SOPE   H7X20192   5.125   2.228   9.461 -1.4777 -1.9152 -1.5189
  177SOPE   H7Y20193   5.088   2.086   9.569 -0.0082 -0.4682 -0.8192
  177SOPE   C3820194   5.256   2.074   9.427  0.0071  0.2304  0.3502
  177SOPE   H8X20195   5.312   1.998   9.485 -0.6317 -2.9748 -3.0213
  177SOPE   H8Y20196   5.322   2.144   9.371  0.0905 -0.0103  0.1468
  177SOPE   C3920197   5.175   1.974   9.331  0.4271  0.0676 -0.4501
  177SOPE   H9X20198   5.136   1.889   9.391  2.8311  0.8571  2.3289
  177SOPE   H9Y20199   5.244   1.924   9.260  0.6735  2.4331 -1.9062
  177SOPE  C31020200   5.063   2.035   9.241  0.1157 -0.3274 -0.9283
  177SOPE  H10X20201   5.124   2.115   9.195  1.2884 -0.5039  0.2713
  177SOPE  H10Y20202   4.984   2.083   9.302  1.0933 -0.4683  0.4875
  177SOPE  C31120203   5.002   1.945   9.131 -0.6043 -0.2503 -0.4638
  177SOPE  H11X20204   5.079   1.870   9.103  0.0538  0.6396 -1.1027
  177SOPE  H11Y20205   4.976   2.015   9.048 -1.1206  2.3869  1.8373
  177SOPE  C31220206   4.875   1.873   9.172  0.3780  0.2623  0.2974
  177SOPE  H12X20207   4.899   1.805   9.256  0.4595  0.9354  0.8250
  177SOPE  H12Y20208   4.836   1.817   9.084  1.1165 -1.5682  1.1045
  177SOPE  C31320209   4.760   1.970   9.210 -0.4557  0.0347  0.0657
  177SOPE  H13X20210   4.782   2.035   9.297  0.1942  0.6958 -0.5852
  177SOPE  H13Y20211   4.672   1.915   9.251 -2.1932  1.3391 -1.8148
  177SOPE  C31420212   4.700   2.057   9.096 -0.5745 -1.0348  0.5464
  177SOPE  H14X20213   4.785   2.098   9.037  0.3945 -1.8916  1.3118
  177SOPE  H14Y20214   4.646   2.142   9.142 -0.1483 -0.5495  0.1442
  177SOPE  C31520215   4.608   1.990   8.998  0.5782  0.6127 -0.9532
  177SOPE  H15X20216   4.510   1.965   9.044  2.0671 -0.9761  1.4680
  177SOPE  H15Y20217   4.653   1.892   8.973  2.2254  1.2677 -0.6459
  177SOPE  C31620218   4.604   2.059   8.858 -0.2433  0.3748 -1.0629
  177SOPE  H16X20219   4.704   2.057   8.808 -0.5511  1.5017 -1.7417
  177SOPE  H16Y20220   4.580   2.164   8.887  0.6252  0.9027 -2.2061
  177SOPE  C31720221   4.488   2.032   8.761  0.2157  0.1594 -0.0842
  177SOPE  H17X20222   4.507   2.096   8.672  0.7358 -2.1385 -1.6743
  177SOPE  H17Y20223   4.401   2.065   8.822  0.5680  2.1196 -0.6160
  177SOPE  C31820224   4.480   1.890   8.719 -0.1928 -0.1103  0.1585
  177SOPE  H18X20225   4.473   1.823   8.807 -0.8457 -0.5187 -0.1962
  177SOPE  H18Y20226   4.564   1.851   8.658  0.7695  0.4918  1.0893
  177SOPE  H18Z20227   4.390   1.883   8.653  0.5974  0.5279 -1.0066
  178SOPE     N20228   2.647   7.242  10.261 -0.0065  0.2090 -0.0385
  178SOPE   HN120229   2.704   7.303  10.199 -1.1496  0.2009 -1.1132
  178SOPE   HN220230   2.619   7.301  10.342  0.3795  1.5635 -0.8878
  178SOPE   HN320231   2.701   7.158  10.291  0.4809  0.8899  1.0158
  178SOPE   C1220232   2.517   7.192  10.189 -0.2031 -0.7904  0.3111
  178SOPE  H12A20233   2.477   7.284  10.142 -0.4849 -0.8458  0.4437
  178SOPE  H12B20234   2.461   7.153  10.277  1.9276  0.2337  2.1870
  178SOPE   C1120235   2.553   7.090  10.078 -0.3825 -0.2324 -0.4621
  178SOPE  H11A20236   2.639   7.128  10.019 -0.9063  0.3397 -0.8652
  178SOPE  H11B20237   2.467   7.082  10.008 -1.4456  1.2064  0.6419
  178SOPE     P20238   2.483   6.860  10.165 -0.3253  0.4643  0.2619
  178SOPE   O1320239   2.370   6.914  10.249 -0.1809 -0.1382  0.7645
  178SOPE   O1420240   2.556   6.737  10.203  0.4543  0.5893 -0.1068
  178SOPE   O1220241   2.596   6.966  10.135  0.0270  0.1742  0.3076
  178SOPE   O1120242   2.416   6.843  10.027 -0.4337  0.5088  0.2697
  178SOPE    C120243   2.462   6.748   9.936 -0.4308  0.1127  0.0078
  178SOPE    HA20244   2.371   6.688   9.916 -0.2370  0.2135 -1.2428
  178SOPE    HB20245   2.537   6.674   9.971 -1.6235 -2.2158 -2.2774
  178SOPE    C220246   2.526   6.817   9.810  0.6219  0.0460  0.3331
  178SOPE    HS20247   2.553   6.737   9.738 -3.6688 -0.9731 -0.2863
  178SOPE   O2120248   2.626   6.910   9.843 -0.1324  0.0149  0.0093
  178SOPE   C2120249   2.741   6.854   9.875 -1.1683  0.0713 -0.0496
  178SOPE   O2220250   2.765   6.733   9.879  0.4829 -0.2947 -0.9050
  178SOPE   C2220251   2.844   6.956   9.914 -0.1343 -0.0418  0.1530
  178SOPE   H2R20252   2.823   6.967  10.022 -2.1105 -2.1396  0.0099
  178SOPE   H2S20253   2.838   7.052   9.857 -1.9928 -0.3892 -0.2732
  178SOPE    C320254   2.408   6.892   9.740 -0.0001 -0.7042  0.5202
  178SOPE    HX20255   2.379   6.976   9.807  1.3162  0.0851  0.1080
  178SOPE    HY20256   2.318   6.826   9.736 -0.3228 -0.1431 -1.8263
  178SOPE   O3120257   2.444   6.950   9.617  0.5399  0.3582 -0.4082
  178SOPE   C3120258   2.353   6.991   9.532 -0.2923  0.8123 -0.0167
  178SOPE   O3220259   2.235   7.003   9.551  0.7714 -0.4388 -0.9818
  178SOPE   C3220260   2.418   7.041   9.406 -0.0391  0.4205 -0.5263
  178SOPE   H2X20261   2.410   6.955   9.336 -1.5842 -0.4953  0.7421
  178SOPE   H2Y20262   2.525   7.061   9.429  0.3825 -1.4202 -0.8152
  178SOPE   C2320263   2.981   6.895   9.911 -0.5666  0.6018 -0.2097
  178SOPE   H3R20264   3.009   6.862   9.809 -0.2752  0.0646  0.0399
  178SOPE   H3S20265   2.990   6.814   9.987 -0.4729  1.3270  0.5531
  178SOPE   C2420266   3.092   7.006   9.924  0.0788 -0.2731 -0.2755
  178SOPE   H4R20267   3.072   7.072  10.011 -0.8952  0.5863 -1.1455
  178SOPE   H4S20268   3.192   6.961   9.946  0.4515  1.1587  1.0752
  178SOPE   C2520269   3.107   7.101   9.806 -0.4658  1.0494 -0.0499
  178SOPE   H5R20270   3.173   7.038   9.741 -0.0190 -0.2789  1.6360
  178SOPE   H5S20271   3.015   7.106   9.745 -0.2068 -0.4936 -0.6096
  178SOPE   C2620272   3.179   7.237   9.831  0.3466  0.1297 -0.0319
  178SOPE   H6R20273   3.288   7.218   9.836  0.4136  0.5016 -0.0255
  178SOPE   H6S20274   3.158   7.297   9.740 -0.0457  0.4523  0.2654
  178SOPE   C2720275   3.132   7.312   9.953  0.0807  0.5532 -0.3291
  178SOPE   H7R20276   3.022   7.322   9.957  0.3010  4.4778 -1.5655
  178SOPE   H7S20277   3.166   7.253  10.041 -1.7989  2.2392  1.5815
  178SOPE   C2820278   3.190   7.450   9.963 -0.1318  0.1296  0.4717
  178SOPE   H8R20279   3.180   7.483  10.069 -2.1254  1.4618 -0.0916
  178SOPE   H8S20280   3.300   7.448   9.944 -0.1241 -0.7405  0.6160
  178SOPE   C2920281   3.115   7.539   9.864  0.2594  0.4395 -0.3962
  178SOPE   H9120282   3.022   7.583   9.903  0.9676 -0.7023  2.8280
  178SOPE  C21020283   3.154   7.575   9.741  0.1557 -0.2108 -0.0098
  178SOPE  H10120284   3.093   7.642   9.679  0.1964 -1.5916 -1.5769
  178SOPE  C21120285   3.289   7.525   9.673 -0.2753 -0.1444  0.5526
  178SOPE  H11R20286   3.312   7.423   9.709  1.1200  0.2958  0.9394
  178SOPE  H11S20287   3.376   7.590   9.698  0.0143 -0.6092  0.7504
  178SOPE  C21220288   3.280   7.540   9.522  0.9370 -0.3725  0.6198
  178SOPE  H12R20289   3.386   7.526   9.489  0.3870  1.4600 -2.0477
  178SOPE  H12S20290   3.240   7.640   9.498  0.6335 -0.4986  0.6025
  178SOPE  C21320291   3.200   7.421   9.471  1.0476 -0.0677  0.2706
  178SOPE  H13R20292   3.099   7.420   9.516  1.3243 -1.7254  0.9008
  178SOPE  H13S20293   3.251   7.326   9.500  2.8660  0.3572 -1.4536
  178SOPE  C21420294   3.194   7.427   9.320  0.3385  0.0568 -0.1857
  178SOPE  H14R20295   3.293   7.405   9.276  0.3154 -0.3328 -0.0470
  178SOPE  H14S20296   3.158   7.525   9.283  1.1899  0.0340 -1.0730
  178SOPE  C21520297   3.094   7.316   9.272  0.9702 -0.4999 -0.8674
  178SOPE  H15R20298   2.995   7.318   9.322  1.3623 -3.4174  0.1428
  178SOPE  H15S20299   3.141   7.218   9.296 -2.3234 -2.8685 -3.4228
  178SOPE  C21620300   3.067   7.324   9.124  0.4879 -0.3874 -0.1601
  178SOPE  H16R20301   3.148   7.383   9.076 -0.3187  0.2789 -0.7143
  178SOPE  H16S20302   2.975   7.380   9.095  1.3968  0.8237 -0.7856
  178SOPE  C21720303   3.070   7.183   9.064  0.1193  0.6756 -0.6372
  178SOPE  H17R20304   2.998   7.123   9.123  1.6800 -1.1673 -0.5949
  178SOPE  H17S20305   3.171   7.140   9.080 -0.1910  0.3192  0.3521
  178SOPE  C21820306   3.042   7.180   8.911  0.3921  0.1458 -0.5613
  178SOPE  H18R20307   3.020   7.078   8.872  1.2761 -1.1259  2.1410
  178SOPE  H18S20308   3.128   7.225   8.857 -1.4107  1.9432 -2.0165
  178SOPE  H18T20309   2.953   7.239   8.878  0.9982 -0.2773 -3.0334
  178SOPE   C3320310   2.352   7.168   9.350 -0.4751 -0.2588 -0.3781
  178SOPE   H3X20311   2.355   7.255   9.420  0.5895 -0.6018  0.0118
  178SOPE   H3Y20312   2.244   7.163   9.322 -0.4855  1.1056 -0.6247
  178SOPE   C3420313   2.425   7.203   9.220  0.2599  0.2578 -0.1268
  178SOPE   H4X20314   2.376   7.297   9.186  1.0497  0.7503  0.0879
  178SOPE   H4Y20315   2.401   7.118   9.153 -0.5671  0.7080 -0.4093
  178SOPE   C3520316   2.574   7.225   9.234 -0.2986 -0.5029  0.1401
  178SOPE   H5X20317   2.622   7.132   9.271 -2.0453 -0.2051  3.4005
  178SOPE   H5Y20318   2.598   7.305   9.307 -1.7585  1.1181 -1.1303
  178SOPE   C3620319   2.638   7.253   9.096  0.3432  0.0007  0.0378
  178SOPE   H6X20320   2.614   7.165   9.032  0.3980 -0.7617  1.0514
  178SOPE   H6Y20321   2.748   7.271   9.098  0.3544 -0.0893  0.2313
  178SOPE   C3720322   2.591   7.385   9.040 -0.0510  0.4581 -0.4909
  178SOPE   H7X20323   2.604   7.465   9.116  0.4665  0.9189 -1.0587
  178SOPE   H7Y20324   2.483   7.378   9.016  0.5578 -1.1104 -2.9224
  178SOPE   C3820325   2.665   7.442   8.911 -0.5522 -0.6746 -0.4999
  178SOPE   H8X20326   2.771   7.458   8.940 -0.6862 -0.4725 -0.1287
  178SOPE   H8Y20327   2.616   7.540   8.891 -1.8269 -1.3026 -0.4850
  178SOPE   C3920328   2.677   7.351   8.787  0.3075  0.8714 -0.2393
  178SOPE   H9X20329   2.578   7.326   8.743  0.3063 -1.4590  0.9949
  178SOPE   H9Y20330   2.735   7.262   8.817 -0.7497  0.7381  1.5070
  178SOPE  C31020331   2.760   7.422   8.686  0.0817  0.0817  0.3712
  178SOPE  H10X20332   2.858   7.449   8.730 -0.3713  0.1696  1.3251
  178SOPE  H10Y20333   2.716   7.517   8.649  0.0503 -0.9537 -2.3700
  178SOPE  C31120334   2.787   7.324   8.568 -0.1374 -0.4110 -0.1213
  178SOPE  H11X20335   2.689   7.282   8.537  1.2229 -2.9941 -1.0607
  178SOPE  H11Y20336   2.846   7.236   8.602 -0.2039  0.5767  2.6938
  178SOPE  C31220337   2.843   7.395   8.449  0.1241 -0.0779 -0.0483
  178SOPE  H12X20338   2.925   7.462   8.479 -2.1175  3.2347 -1.0432
  178SOPE  H12Y20339   2.761   7.457   8.407  0.0134  0.9234  1.6226
  178SOPE  C31320340   2.884   7.289   8.338  1.1851  0.0651 -0.0498
  178SOPE  H13X20341   2.805   7.213   8.321  0.3564  1.2323 -1.5576
  178SOPE  H13Y20342   2.971   7.241   8.387 -1.2184 -0.5593  3.7682
  178SOPE  C31420343   2.924   7.348   8.204  0.1396  0.3997  0.2421
  178SOPE  H14X20344   2.960   7.453   8.202 -1.3530  0.9280  0.3372
  178SOPE  H14Y20345   2.836   7.362   8.139 -0.1985 -0.6280  0.4687
  178SOPE  C31520346   3.036   7.269   8.126  0.3764 -0.1471 -0.0323
  178SOPE  H15X20347   3.018   7.160   8.143 -2.9548  0.1738 -1.2470
  178SOPE  H15Y20348   3.131   7.295   8.178 -0.4333  0.0979  1.3341
  178SOPE  C31620349   3.040   7.299   7.974  0.0302 -0.4569  0.2365
  178SOPE  H16X20350   3.051   7.407   7.954  1.4079 -0.1298  2.5254
  178SOPE  H16Y20351   2.942   7.268   7.932 -0.2182 -0.6088  0.9259
  178SOPE  C31720352   3.150   7.213   7.907 -0.6323  0.0380  0.7105
  178SOPE  H17X20353   3.145   7.252   7.804  1.9464  0.8053  0.8380
  178SOPE  H17Y20354   3.134   7.103   7.917 -1.9580  0.0082 -1.4554
  178SOPE  C31820355   3.299   7.240   7.952 -1.1732  0.3893 -0.0769
  178SOPE  H18X20356   3.315   7.201   8.055  0.6465  1.8201  0.2005
  178SOPE  H18Y20357   3.309   7.348   7.975  0.8573  0.0196  0.9499
  178SOPE  H18Z20358   3.372   7.199   7.879  0.7873  0.7019  1.6440
  179SOPE     N20359   3.996   3.912   6.197  0.6465  0.1151  0.3178
  179SOPE   HN120360   4.050   3.995   6.227  1.1088 -0.8255  2.1585
  179SOPE   HN220361   3.975   3.914   6.095 -0.4605  1.6573  0.5427
  179SOPE   HN320362   3.904   3.923   6.246 -0.4671 -0.9716 -1.4804
  179SOPE   C1220363   4.065   3.788   6.234  0.1496 -0.6841  0.0465
  179SOPE  H12A20364   4.007   3.708   6.184 -0.6459  0.9633 -1.7134
  179SOPE  H12B20365   4.055   3.760   6.341  0.1371 -2.6492 -0.4559
  179SOPE   C1120366   4.204   3.794   6.181  0.0334 -0.0429  0.0202
  179SOPE  H11A20367   4.270   3.706   6.199  1.2842  0.2127 -3.0668
  179SOPE  H11B20368   4.253   3.882   6.229 -0.4292  0.4934 -0.5001
  179SOPE     P20369   4.167   3.718   5.929  0.2580 -0.2647  0.0613
  179SOPE   O1320370   4.268   3.730   5.824 -0.0049  0.3069 -0.1981
  179SOPE   O1420371   4.035   3.763   5.893  0.4112  0.1715  0.1566
  179SOPE   O1220372   4.208   3.816   6.042 -0.1481 -0.4046 -0.1293
  179SOPE   O1120373   4.159   3.581   6.010  0.2007 -1.1755  0.4999
  179SOPE    C120374   4.219   3.460   5.963 -0.5528  0.3179  0.0375
  179SOPE    HA20375   4.223   3.459   5.852 -0.6763 -0.6298  0.0367
  179SOPE    HB20376   4.148   3.377   5.986  2.4376 -2.1836  0.5705
  179SOPE    C220377   4.355   3.427   6.034 -0.3316 -0.5859  0.0713
  179SOPE    HS20378   4.374   3.319   6.017 -1.6397 -0.8607  0.3390
  179SOPE   O2120379   4.346   3.465   6.173  0.1049  0.6548  0.8118
  179SOPE   C2120380   4.325   3.359   6.248  0.0994  0.0031 -0.2607
  179SOPE   O2220381   4.321   3.241   6.213  0.2136  0.1020 -0.0797
  179SOPE   C2220382   4.297   3.404   6.395 -0.0102  0.4424  0.0151
  179SOPE   H2R20383   4.344   3.503   6.414  2.7640 -0.9378  0.5430
  179SOPE   H2S20384   4.364   3.336   6.451  0.5797  0.2018 -0.9755
  179SOPE    C320385   4.467   3.510   5.970 -0.8151  0.6479 -0.4268
  179SOPE    HX20386   4.450   3.617   5.997 -0.8297  0.7799 -0.9490
  179SOPE    HY20387   4.448   3.498   5.861 -0.1755 -0.4519 -0.4240
  179SOPE   O3120388   4.597   3.479   6.019  0.1573  0.5506 -0.0785
  179SOPE   C3120389   4.673   3.383   5.967 -0.3266 -0.3096  0.0793
  179SOPE   O3220390   4.653   3.328   5.862 -0.1667 -1.3407  0.3980
  179SOPE   C3220391   4.802   3.365   6.049  0.6696  0.3101  0.2024
  179SOPE   H2X20392   4.775   3.380   6.156 -1.7950 -3.9294  0.2833
  179SOPE   H2Y20393   4.872   3.446   6.018  0.2618  2.2762  4.0783
  179SOPE   C2320394   4.154   3.390   6.456  0.1321 -0.0142 -0.4318
  179SOPE   H3R20395   4.104   3.309   6.399  1.4856 -0.7860 -0.5603
  179SOPE   H3S20396   4.091   3.478   6.432  1.7231  1.1343 -0.5512
  179SOPE   C2420397   4.143   3.366   6.603 -0.3893  0.0633  0.1901
  179SOPE   H4R20398   4.051   3.415   6.640  1.0522  1.5135  1.8731
  179SOPE   H4S20399   4.108   3.260   6.605 -1.4290  0.4296  1.8557
  179SOPE   C2520400   4.261   3.408   6.693  0.1103 -0.8058  0.4343
  179SOPE   H5R20401   4.349   3.357   6.648 -0.0584 -0.4939 -0.2558
  179SOPE   H5S20402   4.279   3.517   6.682  0.7982 -0.9212  0.3523
  179SOPE   C2620403   4.242   3.359   6.835  0.0291 -0.5413  0.4289
  179SOPE   H6R20404   4.136   3.368   6.867  0.5054  1.2100  1.5540
  179SOPE   H6S20405   4.272   3.252   6.838 -0.0213 -0.5238  2.0520
  179SOPE   C2720406   4.335   3.428   6.946 -0.2575  0.4107  0.8287
  179SOPE   H7R20407   4.433   3.397   6.903 -0.9592 -2.3396  1.1111
  179SOPE   H7S20408   4.322   3.538   6.950 -1.3882  0.2772  1.0332
  179SOPE   C2820409   4.332   3.377   7.092 -0.5888  0.6066  0.9382
  179SOPE   H8R20410   4.361   3.270   7.086  1.2194  1.0563  1.1786
  179SOPE   H8S20411   4.419   3.421   7.145  0.3727  0.0385 -0.1443
  179SOPE   C2920412   4.206   3.400   7.167  0.2646  0.3288 -0.6981
  179SOPE   H9120413   4.113   3.376   7.113 -0.2988 -2.0434  1.2241
  179SOPE  C21020414   4.191   3.433   7.297  0.5356  0.1465 -0.0654
  179SOPE  H10120415   4.087   3.461   7.322  0.3300 -2.1373  1.7703
  179SOPE  C21120416   4.299   3.448   7.400  0.0624 -0.4993 -0.1351
  179SOPE  H11R20417   4.394   3.472   7.347  0.6346  0.2418  1.1934
  179SOPE  H11S20418   4.307   3.352   7.455  2.1669 -1.5537 -2.1850
  179SOPE  C21220419   4.258   3.566   7.494 -0.0035  0.3735  0.3673
  179SOPE  H12R20420   4.177   3.536   7.565 -0.1219  0.4932  0.2814
  179SOPE  H12S20421   4.238   3.660   7.439  2.5500  0.4785 -0.4508
  179SOPE  C21320422   4.384   3.604   7.582 -0.9609 -0.1024 -0.2687
  179SOPE  H13R20423   4.467   3.653   7.528  1.5946 -3.9780 -0.0551
  179SOPE  H13S20424   4.431   3.507   7.610 -1.8514 -0.3657  0.3306
  179SOPE  C21420425   4.346   3.686   7.708  0.2285 -0.0098 -0.1182
  179SOPE  H14R20426   4.270   3.627   7.764 -0.4230  0.9909  0.0847
  179SOPE  H14S20427   4.289   3.778   7.679  1.3753  0.8561  0.3198
  179SOPE  C21520428   4.465   3.721   7.800  0.8935 -0.1285 -0.5289
  179SOPE  H15R20429   4.505   3.627   7.845  0.7911 -0.2939 -0.7811
  179SOPE  H15S20430   4.424   3.784   7.882 -1.5553 -2.3911  0.0713
  179SOPE  C21620431   4.574   3.802   7.734  0.8434  0.2691  0.0559
  179SOPE  H16R20432   4.537   3.890   7.677  0.6953 -0.2903 -0.7185
  179SOPE  H16S20433   4.642   3.747   7.664 -0.1480  0.6251 -1.2065
  179SOPE  C21720434   4.670   3.870   7.840  0.4310  0.7949  0.0673
  179SOPE  H17R20435   4.609   3.909   7.924 -0.3995 -0.1798 -0.0703
  179SOPE  H17S20436   4.737   3.945   7.792  1.3658 -0.1841 -0.1990
  179SOPE  C21820437   4.762   3.765   7.901 -0.2637 -0.4182 -0.1197
  179SOPE  H18R20438   4.817   3.809   7.987  1.4506 -0.0535 -1.3708
  179SOPE  H18S20439   4.833   3.723   7.826 -0.4093  1.3673 -1.2857
  179SOPE  H18T20440   4.702   3.684   7.947  1.1804 -2.4947 -1.7685
  179SOPE   C3320441   4.858   3.221   6.032  0.0215 -0.2347 -0.5298
  179SOPE   H3X20442   4.965   3.235   6.060 -0.3073  1.5410 -0.1194
  179SOPE   H3Y20443   4.858   3.190   5.925  1.2486  2.4291 -1.3431
  179SOPE   C3420444   4.791   3.108   6.114 -0.5510  0.3222 -0.0895
  179SOPE   H4X20445   4.865   3.026   6.126  0.0343  0.6858 -1.1126
  179SOPE   H4Y20446   4.710   3.064   6.053  1.7271 -1.0904 -2.1986
  179SOPE   C3520447   4.754   3.140   6.262  0.0769  0.2404 -0.3052
  179SOPE   H5X20448   4.673   3.216   6.268  1.0678  1.4499 -1.9068
  179SOPE   H5Y20449   4.841   3.173   6.322  0.6238 -0.9072 -0.4583
  179SOPE   C3620450   4.700   3.011   6.334 -0.1050 -0.0599  0.4094
  179SOPE   H6X20451   4.789   2.945   6.326  0.4252  0.7725 -0.8143
  179SOPE   H6Y20452   4.610   2.969   6.284  0.2123 -1.1696  0.7630
  179SOPE   C3720453   4.655   3.042   6.477 -0.4019  0.1403  0.9150
  179SOPE   H7X20454   4.559   3.098   6.476  0.0274  0.8673 -2.3817
  179SOPE   H7Y20455   4.726   3.105   6.535  0.4541 -0.6968  0.7926
  179SOPE   C3820456   4.645   2.907   6.560 -0.4345  0.4418 -0.0918
  179SOPE   H8X20457   4.735   2.842   6.554 -0.5254  0.0750  2.1414
  179SOPE   H8Y20458   4.565   2.845   6.514 -2.7915  2.8118  0.7167
  179SOPE   C3920459   4.602   2.935   6.708 -0.2932 -0.4240  0.2682
  179SOPE   H9X20460   4.604   2.840   6.766  0.1357 -0.4048  0.2905
  179SOPE   H9Y20461   4.497   2.970   6.706  0.2022  1.0371 -0.8500
  179SOPE  C31020462   4.683   3.043   6.788 -0.2462  0.3062 -0.6584
  179SOPE  H10X20463   4.683   3.144   6.740  0.1962 -0.6725 -2.7688
  179SOPE  H10Y20464   4.786   3.006   6.800 -0.5237  0.0571  0.9754
  179SOPE  C31120465   4.627   3.060   6.929  1.1744  0.4652 -0.6002
  179SOPE  H11X20466   4.634   2.959   6.974 -1.8513 -0.2421 -1.5556
  179SOPE  H11Y20467   4.520   3.088   6.940 -0.1524 -4.2590 -0.0870
  179SOPE  C31220468   4.708   3.157   7.012  0.2177  0.0514  0.1440
  179SOPE  H12X20469   4.707   3.257   6.963  0.6804  0.1160  0.2663
  179SOPE  H12Y20470   4.813   3.126   7.030 -0.5352 -1.5329  1.9668
  179SOPE  C31320471   4.646   3.157   7.147  0.2345 -0.0454 -0.7332
  179SOPE  H13X20472   4.640   3.057   7.195 -2.9460  0.6922  0.5233
  179SOPE  H13Y20473   4.545   3.202   7.158  0.7115  1.0729 -0.8112
  179SOPE  C31420474   4.741   3.219   7.256  0.2842  0.8685  0.0564
  179SOPE  H14X20475   4.755   3.328   7.238  0.2111  0.8011 -0.4112
  179SOPE  H14Y20476   4.838   3.166   7.256 -1.5979 -2.7716  0.4758
  179SOPE  C31520477   4.662   3.227   7.390  0.2382 -0.0828 -0.5694
  179SOPE  H15X20478   4.645   3.121   7.420 -0.5376  0.3020  0.3738
  179SOPE  H15Y20479   4.569   3.286   7.379  0.4048  0.5598  1.2623
  179SOPE  C31620480   4.735   3.300   7.502 -0.6461 -0.5667  0.2859
  179SOPE  H16X20481   4.757   3.404   7.472 -1.4535 -0.6616 -0.6379
  179SOPE  H16Y20482   4.831   3.250   7.530  0.1884  0.6918 -0.2966
  179SOPE  C31720483   4.654   3.317   7.629  0.3368  0.3298  0.0335
  179SOPE  H17X20484   4.630   3.222   7.681 -0.7738  0.5396 -0.0874
  179SOPE  H17Y20485   4.557   3.361   7.599  2.0819  3.8395 -0.6650
  179SOPE  C31820486   4.709   3.408   7.738  0.1275 -0.5010 -0.0806
  179SOPE  H18X20487   4.628   3.421   7.813  0.2250 -1.5447  0.2125
  179SOPE  H18Y20488   4.736   3.507   7.696 -2.4036 -0.1775 -0.9891
  179SOPE  H18Z20489   4.802   3.369   7.786  1.1259  3.7319  1.6356
  180SOPE     N20490   3.819   1.040   5.602  0.6171 -0.5851  0.4566
  180SOPE   HN120491   3.738   1.052   5.538  1.3126 -2.0767 -0.7305
  180SOPE   HN220492   3.896   1.028   5.534  1.3032 -1.1087  1.3118
  180SOPE   HN320493   3.807   0.948   5.649 -1.4438 -1.4937 -1.7395
  180SOPE   C1220494   3.866   1.147   5.701 -1.7097  0.3233 -0.7950
  180SOPE  H12A20495   3.789   1.150   5.780  0.2824 -1.5581  1.2882
  180SOPE  H12B20496   3.860   1.243   5.644  0.3995  0.0797 -1.4659
  180SOPE   C1120497   4.004   1.127   5.761 -0.5949 -0.0100 -0.2931
  180SOPE  H11A20498   4.078   1.108   5.680 -0.8923  1.4312 -0.9167
  180SOPE  H11B20499   4.004   1.044   5.834 -0.5427  1.7502  1.7561
  180SOPE     P20500   4.186   1.272   5.895  0.0671  0.1241  0.1256
  180SOPE   O1320501   4.245   1.392   5.837 -0.0128 -0.6264  0.1704
  180SOPE   O1420502   4.270   1.153   5.876 -0.4048 -0.2187  0.4027
  180SOPE   O1220503   4.046   1.253   5.826 -0.3228  1.0510  0.1104
  180SOPE   O1120504   4.156   1.291   6.053 -0.2041 -0.0282  0.3545
  180SOPE    C120505   4.255   1.352   6.135 -0.2520 -0.1956  0.4142
  180SOPE    HA20506   4.259   1.460   6.111  1.7589 -0.6513 -1.3831
  180SOPE    HB20507   4.348   1.294   6.117 -0.5786 -1.4047  2.4264
  180SOPE    C220508   4.212   1.321   6.288 -0.2452 -0.1273  0.8502
  180SOPE    HS20509   4.307   1.318   6.346  0.1956 -1.4838  0.0844
  180SOPE   O2120510   4.137   1.193   6.310 -0.1991 -0.5807  0.2603
  180SOPE   C2120511   4.210   1.084   6.300  0.2203 -0.2994 -0.7629
  180SOPE   O2220512   4.330   1.078   6.285 -0.3117 -0.2134 -0.4130
  180SOPE   C2220513   4.111   0.962   6.312  0.8616  0.1516  0.3992
  180SOPE   H2R20514   4.071   0.945   6.209  0.3644  0.0860  0.6016
  180SOPE   H2S20515   4.034   0.984   6.389 -1.2793 -1.4165 -1.2137
  180SOPE    C320516   4.134   1.441   6.354 -0.0028  0.4258  0.2011
  180SOPE    HX20517   4.053   1.470   6.284 -0.9346  0.7471  1.3858
  180SOPE    HY20518   4.202   1.527   6.371  0.6336 -0.2716  1.2659
  180SOPE   O3120519   4.069   1.404   6.482 -0.7444  0.1974 -0.0588
  180SOPE   C3120520   4.153   1.384   6.580 -0.7431  0.8049 -0.3027
  180SOPE   O3220521   4.273   1.408   6.579 -0.1785 -0.1069  0.2665
  180SOPE   C3220522   4.089   1.308   6.697 -0.2929 -1.1837 -0.0917
  180SOPE   H2X20523   3.998   1.366   6.724 -0.8839 -1.7064 -0.9028
  180SOPE   H2Y20524   4.149   1.323   6.789 -0.7839 -0.6185  0.1402
  180SOPE   C2320525   4.183   0.836   6.362 -0.0627  0.5294  1.1493
  180SOPE   H3R20526   4.278   0.827   6.305 -1.2622 -0.0319 -0.7873
  180SOPE   H3S20527   4.119   0.750   6.333 -0.0523  0.0705  2.4745
  180SOPE   C2420528   4.205   0.831   6.516  0.3270 -0.5290  0.0794
  180SOPE   H4R20529   4.244   0.929   6.553 -0.2748  0.0107 -0.7113
  180SOPE   H4S20530   4.108   0.820   6.569 -0.4126  2.5052 -0.5567
  180SOPE   C2520531   4.302   0.719   6.557  0.1288 -0.6359  0.4025
  180SOPE   H5R20532   4.250   0.628   6.595  1.0776 -1.7283 -0.8532
  180SOPE   H5S20533   4.372   0.692   6.476 -1.0065  0.7977 -1.0984
  180SOPE   C2620534   4.394   0.759   6.672  0.0449  0.0550 -0.2640
  180SOPE   H6R20535   4.462   0.844   6.652  0.5856 -0.4753 -0.7201
  180SOPE   H6S20536   4.339   0.793   6.762  1.2776 -0.3284  0.6531
  180SOPE   C2720537   4.493   0.654   6.713 -0.5306 -0.2806 -1.0882
  180SOPE   H7R20538   4.566   0.634   6.632  1.9465  1.0103  0.7599
  180SOPE   H7S20539   4.548   0.698   6.798  0.7830 -0.7424 -1.6858
  180SOPE   C2820540   4.434   0.526   6.758  0.2003 -0.5018 -0.8599
  180SOPE   H8R20541   4.368   0.555   6.842  0.4046  1.5825 -1.3673
  180SOPE   H8S20542   4.367   0.486   6.678  0.7603 -0.2967 -1.4398
  180SOPE   C2920543   4.543   0.427   6.808 -0.0631 -0.5705 -0.2935
  180SOPE   H9120544   4.566   0.352   6.731 -2.9611 -1.6385 -0.1601
  180SOPE  C21020545   4.598   0.411   6.933  0.4019 -0.8390  0.1179
  180SOPE  H10120546   4.674   0.333   6.946  1.2027 -0.6918 -3.1033
  180SOPE  C21120547   4.565   0.497   7.052  0.3450  0.2771 -0.5847
  180SOPE  H11R20548   4.482   0.571   7.039 -2.9026 -3.0646  0.3231
  180SOPE  H11S20549   4.652   0.562   7.074 -0.2140  0.7071  0.4026
  180SOPE  C21220550   4.522   0.420   7.181  0.6191 -0.1395  0.2956
  180SOPE  H12R20551   4.603   0.354   7.220  1.3675  0.6983  0.1797
  180SOPE  H12S20552   4.445   0.349   7.143  0.3061 -0.1049  0.8698
  180SOPE  C21320553   4.453   0.506   7.286  0.4784  0.2253  0.5268
  180SOPE  H13R20554   4.365   0.550   7.234  1.1672  1.0402  0.0385
  180SOPE  H13S20555   4.508   0.598   7.316  1.1185 -0.4586  1.4512
  180SOPE  C21420556   4.403   0.424   7.405 -0.3575 -0.8024  0.0915
  180SOPE  H14R20557   4.349   0.331   7.374  2.3245 -1.7049 -2.1205
  180SOPE  H14S20558   4.321   0.470   7.464  2.7669  1.0687  3.2068
  180SOPE  C21520559   4.517   0.387   7.495 -0.2165 -0.2228 -0.1956
  180SOPE  H15R20560   4.616   0.403   7.446 -1.2450 -0.1676 -2.3071
  180SOPE  H15S20561   4.513   0.279   7.521 -1.1808 -0.5020 -1.4546
  180SOPE  C21620562   4.527   0.485   7.609 -0.1960 -0.0776 -0.4772
  180SOPE  H16R20563   4.518   0.588   7.570  1.5573  0.0535 -0.5888
  180SOPE  H16S20564   4.623   0.474   7.663 -1.4161 -0.9295  1.5651
  180SOPE  C21720565   4.415   0.475   7.719  0.2680 -0.0629  0.1847
  180SOPE  H17R20566   4.311   0.482   7.683  1.0256  0.9786 -1.8747
  180SOPE  H17S20567   4.422   0.564   7.786 -0.6895 -1.3233  2.0094
  180SOPE  C21820568   4.439   0.359   7.817 -0.2228  0.5549 -0.0216
  180SOPE  H18R20569   4.528   0.373   7.881 -0.0412  1.4348 -0.4658
  180SOPE  H18S20570   4.444   0.265   7.758 -1.5877  0.3573  0.1436
  180SOPE  H18T20571   4.348   0.344   7.880  0.2033  0.2630  0.5320
  180SOPE   C3320572   4.056   1.156   6.671 -0.5080 -0.2161 -0.1790
  180SOPE   H3X20573   4.154   1.110   6.650 -0.3141  0.1308 -0.0348
  180SOPE   H3Y20574   3.989   1.151   6.582  1.1216 -0.9059 -1.3814
  180SOPE   C3420575   3.990   1.084   6.787 -0.4685 -0.7060 -0.1711
  180SOPE   H4X20576   3.908   1.015   6.757 -2.1755  1.0880  0.2017
  180SOPE   H4Y20577   3.935   1.159   6.848  0.2106 -0.9690  0.7668
  180SOPE   C3520578   4.080   0.994   6.875  0.8960 -0.6901 -0.1078
  180SOPE   H5X20579   4.135   1.060   6.945  2.7238 -0.2550 -1.9255
  180SOPE   H5Y20580   4.167   0.943   6.829  0.6565  0.1214 -1.4700
  180SOPE   C3620581   3.994   0.916   6.969 -0.0330 -0.1095  0.1192
  180SOPE   H6X20582   4.053   0.832   7.011 -1.7025 -0.5257  1.7244
  180SOPE   H6Y20583   3.912   0.866   6.912 -2.5206  2.3783  1.3957
  180SOPE   C3720584   3.923   0.995   7.074 -0.1616 -0.4887 -0.6806
  180SOPE   H7X20585   3.844   1.064   7.036 -0.8748 -1.5292 -1.1108
  180SOPE   H7Y20586   3.993   1.064   7.126  0.1635 -2.6317  1.8123
  180SOPE   C3820587   3.853   0.903   7.174 -0.4643 -0.0546  0.0151
  180SOPE   H8X20588   3.924   0.823   7.205 -0.5747 -0.7295 -1.4328
  180SOPE   H8Y20589   3.770   0.851   7.122 -0.4842 -0.0451  0.0375
  180SOPE   C3920590   3.801   0.969   7.297 -0.5107  0.1719  0.7643
  180SOPE   H9X20591   3.747   1.061   7.265 -0.7213  0.2394  1.3030
  180SOPE   H9Y20592   3.882   1.002   7.364  0.1512  1.6845 -0.7539
  180SOPE  C31020593   3.697   0.882   7.375  0.3221 -0.2013 -0.6543
  180SOPE  H10X20594   3.730   0.777   7.391  0.2265 -0.3493 -1.3884
  180SOPE  H10Y20595   3.607   0.870   7.311 -1.2943  0.0294  1.5170
  180SOPE  C31120596   3.656   0.951   7.506  0.3363 -0.1232 -0.4439
  180SOPE  H11X20597   3.627   1.057   7.488  1.7221  0.1817 -0.8675
  180SOPE  H11Y20598   3.743   0.967   7.573 -1.1674  1.0854  1.3144
  180SOPE  C31220599   3.539   0.888   7.579 -0.0007 -0.4598  0.1062
  180SOPE  H12X20600   3.556   0.779   7.563  0.2160 -0.3197 -0.6153
  180SOPE  H12Y20601   3.452   0.913   7.515 -0.6576  0.2782  1.2831
  180SOPE  C31320602   3.532   0.923   7.720 -0.3481  0.5969 -0.2005
  180SOPE  H13X20603   3.542   1.032   7.736  0.7007  0.2438  1.6386
  180SOPE  H13Y20604   3.615   0.869   7.771 -0.4680  0.3701 -0.2433
  180SOPE  C31420605   3.412   0.865   7.794 -0.2612  0.1624 -0.2814
  180SOPE  H14X20606   3.453   0.851   7.896 -0.5244  0.1092 -0.1828
  180SOPE  H14Y20607   3.386   0.761   7.764 -3.2502  0.8923 -0.2938
  180SOPE  C31520608   3.293   0.956   7.799  0.8202  0.1227 -0.5495
  180SOPE  H15X20609   3.252   0.939   7.697 -0.5582 -0.5734  0.1025
  180SOPE  H15Y20610   3.328   1.059   7.822  0.1321  0.4404 -0.9133
  180SOPE  C31620611   3.200   0.902   7.912 -1.2370 -0.6465  0.5779
  180SOPE  H16X20612   3.269   0.870   7.994  0.3468 -0.5492 -0.6907
  180SOPE  H16Y20613   3.148   0.813   7.871 -1.2793  0.2432 -1.3454
  180SOPE  C31720614   3.109   1.018   7.955 -0.6258  0.3301  0.3201
  180SOPE  H17X20615   3.178   1.100   7.983  1.7541 -1.7621  0.6773
  180SOPE  H17Y20616   3.051   0.994   8.047 -0.0673 -0.6470  0.4235
  180SOPE  C31820617   3.016   1.050   7.834  0.6980 -0.0495 -0.6386
  180SOPE  H18X20618   2.940   1.126   7.862  0.9343  0.5285 -1.5506
  180SOPE  H18Y20619   2.960   0.957   7.808 -0.9828  0.8017 -0.1644
  180SOPE  H18Z20620   3.063   1.083   7.739  2.8264 -4.2144 -1.1269
  181SOPE     N20621   2.576   0.121   5.899 -0.3329 -0.3861  0.6641
  181SOPE   HN120622   2.639   0.183   5.953 -0.1030 -0.7761  0.8502
  181SOPE   HN220623   2.511   0.185   5.849  0.7706 -0.4577 -0.9037
  181SOPE   HN320624   2.520   0.056   5.957 -0.2020 -1.7792 -0.7354
  181SOPE   C1220625   2.665   0.035   5.807 -0.4358 -0.1957  0.5517
  181SOPE  H12A20626   2.606  -0.025   5.733 -1.8172  1.0104  0.6598
  181SOPE  H12B20627   2.721  -0.037   5.870  0.0232  0.1334  0.5188
  181SOPE   C1120628   2.779   0.115   5.725  0.3134 -0.3788 -0.2284
  181SOPE  H11A20629   2.732   0.166   5.638 -1.7008  0.3422  1.2398
  181SOPE  H11B20630   2.857   0.045   5.686  0.7839  0.0751 -0.1106
  181SOPE     P20631   2.865   0.351   5.814 -0.3659 -0.0885 -0.5487
  181SOPE   O1320632   2.730   0.405   5.801 -0.1035  0.1125  0.3246
  181SOPE   O1420633   2.976   0.379   5.716  0.2381  0.0893  0.1103
  181SOPE   O1220634   2.846   0.194   5.818 -0.0817 -0.3230 -0.7847
  181SOPE   O1120635   2.902   0.384   5.963  1.2348 -0.3231 -0.1456
  181SOPE    C120636   3.041   0.361   5.995  0.4331  0.7473 -0.3830
  181SOPE    HA20637   3.111   0.411   5.925  0.1982  1.9718  0.2483
  181SOPE    HB20638   3.058   0.251   6.001  1.1076  0.9298  1.2833
  181SOPE    C220639   3.074   0.426   6.134  0.6804 -0.1717  0.2652
  181SOPE    HS20640   3.184   0.439   6.143  0.5013  2.3119 -0.5378
  181SOPE   O2120641   3.010   0.352   6.237 -0.5078 -0.7508  0.3105
  181SOPE   C2120642   3.078   0.249   6.279 -0.3104  0.0689 -0.4163
  181SOPE   O2220643   3.174   0.199   6.226  0.1691 -0.0254 -0.3009
  181SOPE   C2220644   3.013   0.193   6.409  0.2759  0.2164  0.3968
  181SOPE   H2R20645   3.080   0.116   6.454 -2.4256 -2.3442  0.2124
  181SOPE   H2S20646   2.928   0.126   6.382  1.4709 -0.7022 -1.1857
  181SOPE    C320647   3.013   0.571   6.150  0.2219 -0.2754 -0.1890
  181SOPE    HX20648   2.909   0.544   6.176  0.3398 -0.6057 -0.0592
  181SOPE    HY20649   3.015   0.624   6.052 -4.5254 -1.4518 -1.0436
  181SOPE   O3120650   3.073   0.644   6.257 -0.1467  0.1875  0.4183
  181SOPE   C3120651   3.179   0.713   6.231  0.0007  0.6289 -0.1805
  181SOPE   O3220652   3.236   0.732   6.128  0.3061  0.3705 -0.1956
  181SOPE   C3220653   3.214   0.785   6.366 -0.4016 -0.1560  0.3860
  181SOPE   H2X20654   3.242   0.705   6.438  0.6695  0.7143  0.9465
  181SOPE   H2Y20655   3.121   0.827   6.409 -1.1628 -1.7657  0.3522
  181SOPE   C2320656   2.974   0.302   6.510  0.0858 -0.8131  0.3754
  181SOPE   H3R20657   2.871   0.335   6.487  0.8360  1.2513 -0.1860
  181SOPE   H3S20658   3.044   0.386   6.488 -2.2687  0.8085 -1.0986
  181SOPE   C2420659   2.971   0.260   6.656  0.3084  0.2192 -0.4774
  181SOPE   H4R20660   2.921   0.330   6.727 -0.6167 -2.9618  2.1200
  181SOPE   H4S20661   2.914   0.165   6.661  0.2161  0.3835  2.2728
  181SOPE   C2520662   3.107   0.227   6.718 -0.2557  0.6502 -0.0250
  181SOPE   H5R20663   3.152   0.137   6.671 -0.4206  0.2554  0.5660
  181SOPE   H5S20664   3.165   0.315   6.684 -0.2544 -0.1498 -2.2035
  181SOPE   C2620665   3.097   0.202   6.868 -0.3874  0.0116  0.1991
  181SOPE   H6R20666   3.086   0.305   6.909 -1.9504  0.0444 -0.3057
  181SOPE   H6S20667   3.010   0.139   6.896 -0.6464  0.1787 -0.2349
  181SOPE   C2720668   3.232   0.138   6.914 -0.9338 -0.0042 -0.1164
  181SOPE   H7R20669   3.266   0.060   6.842  0.9602  1.4635 -0.8450
  181SOPE   H7S20670   3.314   0.213   6.911 -0.3776 -0.5927  0.1396
  181SOPE   C2820671   3.220   0.078   7.050  0.0017  0.2084 -0.2097
  181SOPE   H8R20672   3.323   0.060   7.085 -0.5322 -0.2314  1.1824
  181SOPE   H8S20673   3.179   0.153   7.121 -2.2040 -0.6016 -0.5844
  181SOPE   C2920674   3.153  -0.049   7.069 -0.0003  0.0975 -0.1507
  181SOPE   H9120675   3.080  -0.080   6.992  0.1650  0.1388 -0.3225
  181SOPE  C21020676   3.166  -0.125   7.187 -0.0333  0.1662 -0.1822
  181SOPE  H10120677   3.108  -0.218   7.194 -2.1482  1.4558  0.0756
  181SOPE  C21120678   3.246  -0.101   7.312 -0.5267 -0.0184  0.3229
  181SOPE  H11R20679   3.252   0.006   7.342  1.7122  0.1299 -0.6056
  181SOPE  H11S20680   3.353  -0.123   7.296 -0.7526  0.0502 -1.3672
  181SOPE  C21220681   3.184  -0.176   7.435  0.3596  0.0629 -0.3276
  181SOPE  H12R20682   3.244  -0.165   7.528 -2.0961 -0.0103  1.3319
  181SOPE  H12S20683   3.183  -0.285   7.418  1.0144 -0.2991  1.7880
  181SOPE  C21320684   3.041  -0.126   7.472 -0.6639 -0.5317 -0.3747
  181SOPE  H13R20685   2.984  -0.117   7.377 -0.4087 -0.4340 -0.5204
  181SOPE  H13S20686   3.056  -0.028   7.522  0.7574 -1.0165  0.1878
  181SOPE  C21420687   2.980  -0.229   7.567  0.0213 -0.2456  0.2801
  181SOPE  H14R20688   3.050  -0.233   7.653 -0.5735 -0.4004  0.7563
  181SOPE  H14S20689   3.000  -0.332   7.531  0.3866  0.6853 -2.2605
  181SOPE  C21520690   2.833  -0.213   7.576 -0.9455 -0.8828  0.4458
  181SOPE  H15R20691   2.786  -0.267   7.661  2.1628  0.3108  3.0075
  181SOPE  H15S20692   2.782  -0.250   7.485 -0.6140  1.2194 -0.6357
  181SOPE  C21620693   2.792  -0.077   7.622 -0.0579  0.8519 -0.6580
  181SOPE  H16R20694   2.826   0.007   7.558  1.6889 -0.8649 -2.0699
  181SOPE  H16S20695   2.842  -0.059   7.720 -0.5868 -0.2724 -0.1693
  181SOPE  C21720696   2.639  -0.060   7.654 -0.1526  0.0978 -0.5131
  181SOPE  H17R20697   2.609  -0.105   7.751  0.3632  1.8264  0.4731
  181SOPE  H17S20698   2.588  -0.117   7.574  0.3565 -0.2821 -0.5689
  181SOPE  C21820699   2.587   0.083   7.660 -0.6477 -0.7895  0.1867
  181SOPE  H18R20700   2.606   0.147   7.572 -1.5032  2.6736  2.4168
  181SOPE  H18S20701   2.639   0.133   7.745  1.4232 -0.7015 -1.0940
  181SOPE  H18T20702   2.480   0.093   7.688 -0.4009 -0.8810  1.2003
  181SOPE   C3320703   3.326   0.891   6.361  0.7800 -0.4413 -0.2641
  181SOPE   H3X20704   3.288   0.988   6.323  0.5614 -0.3212  0.2668
  181SOPE   H3Y20705   3.400   0.864   6.282  0.3018  0.2024 -0.9415
  181SOPE   C3420706   3.406   0.899   6.487 -0.0823  0.1185  0.4922
  181SOPE   H4X20707   3.488   0.826   6.505  0.2941  0.7066  1.1729
  181SOPE   H4Y20708   3.332   0.882   6.569  0.3709  0.5284  0.9870
  181SOPE   C3520709   3.449   1.053   6.513 -0.4936 -0.2535 -0.2346
  181SOPE   H5X20710   3.353   1.110   6.507 -1.7930 -2.1392  1.7394
  181SOPE   H5Y20711   3.519   1.088   6.435  0.0903  0.0904  0.4448
  181SOPE   C3620712   3.522   1.083   6.649  0.3969  0.3351  0.5510
  181SOPE   H6X20713   3.525   1.194   6.660 -0.3863  0.7451 -2.8132
  181SOPE   H6Y20714   3.624   1.047   6.627  0.3582 -0.2126  1.2431
  181SOPE   C3720715   3.477   1.005   6.773  0.1876  0.6299 -0.9344
  181SOPE   H7X20716   3.483   0.894   6.768 -1.0830  0.6420 -2.9876
  181SOPE   H7Y20717   3.372   1.033   6.793  0.1217  0.8633 -1.6189
  181SOPE   C3820718   3.553   1.042   6.904 -0.3988 -0.6021 -0.6312
  181SOPE   H8X20719   3.549   1.151   6.927 -2.0508 -0.8980  0.6196
  181SOPE   H8Y20720   3.664   1.035   6.896 -0.3625  1.9384 -3.0566
  181SOPE   C3920721   3.499   0.965   7.027 -0.6116  0.1928  0.4177
  181SOPE   H9X20722   3.568   0.981   7.113  0.5330  2.5768 -0.8982
  181SOPE   H9Y20723   3.503   0.857   7.000 -0.9194  0.8228 -2.2304
  181SOPE  C31020724   3.358   0.997   7.067 -0.9009  0.1596  0.0946
  181SOPE  H10X20725   3.300   0.989   6.973  1.6103  1.0291 -1.5684
  181SOPE  H10Y20726   3.372   1.100   7.107 -0.9937  0.7764 -1.4267
  181SOPE  C31120727   3.318   0.900   7.180 -0.3736  1.2024 -0.3162
  181SOPE  H11X20728   3.412   0.856   7.219  0.0145  1.2263 -1.2188
  181SOPE  H11Y20729   3.265   0.814   7.134  0.8610  0.6352 -0.7237
  181SOPE  C31220730   3.235   0.961   7.295  0.3827 -0.6765 -0.5188
  181SOPE  H12X20731   3.306   1.037   7.335  0.9693 -0.0082 -2.7560
  181SOPE  H12Y20732   3.232   0.895   7.384 -1.0453 -0.6391 -0.5319
  181SOPE  C31320733   3.090   1.011   7.251  0.4646  1.2619  1.0399
  181SOPE  H13X20734   3.083   0.990   7.142  1.7500 -1.5137  1.4507
  181SOPE  H13Y20735   3.074   1.116   7.283  2.1923  1.2638  1.9428
  181SOPE  C31420736   2.972   0.928   7.314 -0.3804  0.0543  0.1171
  181SOPE  H14X20737   2.916   0.996   7.382  1.1655 -0.9769  2.4814
  181SOPE  H14Y20738   3.022   0.849   7.374  0.3573  0.3154 -0.1525
  181SOPE  C31520739   2.874   0.869   7.208  0.6305 -0.1189 -0.2139
  181SOPE  H15X20740   2.806   0.797   7.257  1.4760  0.7960  2.3538
  181SOPE  H15Y20741   2.935   0.803   7.142  0.4554 -0.7035  0.2024
  181SOPE  C31620742   2.785   0.964   7.135  0.3327  0.4105  0.1201
  181SOPE  H16X20743   2.807   1.072   7.150  0.3255  0.2462  1.3462
  181SOPE  H16Y20744   2.685   0.969   7.184  0.1227  2.6248 -0.4859
  181SOPE  C31720745   2.777   0.914   6.986 -0.3751 -0.2801 -0.0868
  181SOPE  H17X20746   2.741   0.809   6.984 -0.8582 -0.1837  2.2519
  181SOPE  H17Y20747   2.882   0.920   6.950 -0.7154 -3.5272 -1.8794
  181SOPE  C31820748   2.697   0.999   6.883 -0.1640 -0.4421 -0.3465
  181SOPE  H18X20749   2.683   1.107   6.906 -0.1281 -0.7775  1.3122
  181SOPE  H18Y20750   2.595   0.954   6.877 -0.2858 -0.0424 -1.4866
  181SOPE  H18Z20751   2.743   0.997   6.782  1.0456  1.2065  0.1582
  182SOPE     N20752   4.560   0.971   6.181 -0.6252 -0.1781  0.2447
  182SOPE   HN120753   4.461   0.978   6.150 -0.3799  1.1427 -0.2910
  182SOPE   HN220754   4.567   0.877   6.225  0.5102 -0.9227 -1.4610
  182SOPE   HN320755   4.578   1.040   6.257  1.5791 -0.0252 -0.3765
  182SOPE   C1220756   4.663   0.984   6.077 -0.0620 -0.1114  0.2049
  182SOPE  H12A20757   4.667   1.081   6.024 -1.0384 -0.3442 -0.2906
  182SOPE  H12B20758   4.647   0.903   6.003  1.8272 -1.1442  0.8847
  182SOPE   C1120759   4.810   0.975   6.134  0.5484  0.2946  0.1336
  182SOPE  H11A20760   4.822   0.901   6.216 -0.5313  0.4790  0.4632
  182SOPE  H11B20761   4.823   1.076   6.179 -1.4950  0.4276  0.4627
  182SOPE     P20762   4.943   0.820   5.969  0.1521  0.5878  0.1115
  182SOPE   O1320763   5.082   0.827   5.920 -0.6584  0.0416 -0.2147
  182SOPE   O1420764   4.847   0.796   5.856  0.5224 -0.0104  0.4369
  182SOPE   O1220765   4.906   0.959   6.034 -0.3212  0.6562  0.1166
  182SOPE   O1120766   4.930   0.714   6.085  0.0205 -0.3112  0.4757
  182SOPE    C120767   5.018   0.609   6.113  0.0451 -0.9491 -0.3657
  182SOPE    HA20768   5.037   0.597   6.222  0.0486 -1.6730 -0.4425
  182SOPE    HB20769   5.116   0.634   6.068 -0.3253  0.7926 -0.2159
  182SOPE    C220770   4.969   0.481   6.051 -0.3518 -0.2583  0.0652
  182SOPE    HS20771   4.906   0.511   5.965  0.4678  3.8938  0.8293
  182SOPE   O2120772   4.884   0.412   6.147  0.2965 -0.0573 -0.0833
  182SOPE   C2120773   4.823   0.299   6.091 -0.0103 -0.0218  0.2166
  182SOPE   O2220774   4.827   0.273   5.971 -0.2520  0.2287 -0.1924
  182SOPE   C2220775   4.766   0.213   6.205 -0.1743  0.2078  0.1630
  182SOPE   H2R20776   4.656   0.231   6.202 -0.2849 -0.1510  1.4305
  182SOPE   H2S20777   4.794   0.254   6.305  0.5027  0.2869 -0.0559
  182SOPE    C320778   5.082   0.394   5.998 -0.1982  0.0017 -0.1287
  182SOPE    HX20779   5.138   0.458   5.926 -0.7922  2.4168  1.4768
  182SOPE    HY20780   5.052   0.305   5.939  0.4804 -0.2414 -0.1071
  182SOPE   O3120781   5.173   0.359   6.113  0.5651  0.5620  0.4415
  182SOPE   C3120782   5.179   0.237   6.154 -0.5419  0.3711 -0.0715
  182SOPE   O3220783   5.138   0.137   6.100  1.1673  0.2914 -0.1572
  182SOPE   C3220784   5.247   0.234   6.292  0.6505  0.5574  0.2179
  182SOPE   H2X20785   5.186   0.302   6.356 -0.1436 -0.7201  0.8254
  182SOPE   H2Y20786   5.344   0.281   6.267 -0.6746  2.7221 -1.0325
  182SOPE   C2320787   4.817   0.062   6.201  0.3894  0.3791 -0.6459
  182SOPE   H3R20788   4.928   0.058   6.209  0.2598 -0.6414  0.7929
  182SOPE   H3S20789   4.790   0.015   6.104  0.6665 -3.2449  0.9546
  182SOPE   C2420790   4.769  -0.021   6.320 -0.2803  0.4588 -0.1583
  182SOPE   H4R20791   4.829  -0.114   6.316  1.1025  1.2305  1.9596
  182SOPE   H4S20792   4.790   0.030   6.417  1.0966  1.9977 -1.2245
  182SOPE   C2520793   4.619  -0.058   6.322  0.0840 -0.6683 -0.4599
  182SOPE   H5R20794   4.551   0.028   6.303 -1.3808 -1.0831  2.5378
  182SOPE   H5S20795   4.592  -0.131   6.243 -3.5736  0.6085 -0.4756
  182SOPE   C2620796   4.578  -0.105   6.462 -0.7114 -0.0646 -0.6298
  182SOPE   H6R20797   4.474  -0.144   6.450  0.4832 -2.9827 -1.9018
  182SOPE   H6S20798   4.651  -0.186   6.484 -2.3875 -1.5390 -0.3498
  182SOPE   C2720799   4.566  -0.002   6.582  0.2261  0.0420  0.2983
  182SOPE   H7R20800   4.666   0.042   6.601  0.6086 -1.4314  1.8688
  182SOPE   H7S20801   4.495   0.070   6.538  0.2888 -1.0349 -1.6119
  182SOPE   C2820802   4.505  -0.074   6.698  0.2523 -0.0114  0.0051
  182SOPE   H8R20803   4.478   0.003   6.774  0.5514  1.5531 -1.4249
  182SOPE   H8S20804   4.407  -0.109   6.661 -0.5494  2.7094 -0.6168
  182SOPE   C2920805   4.586  -0.190   6.755  0.3485  0.0806  0.1126
  182SOPE   H9120806   4.592  -0.264   6.675  0.4415  0.5602 -0.3254
  182SOPE  C21020807   4.642  -0.210   6.877  0.5362  0.3203  0.4380
  182SOPE  H10120808   4.707  -0.298   6.887 -1.2342 -1.1987 -0.9045
  182SOPE  C21120809   4.628  -0.107   6.989 -0.0005  0.2049  0.2027
  182SOPE  H11R20810   4.584  -0.013   6.949 -0.2689 -0.4749 -1.1424
  182SOPE  H11S20811   4.726  -0.076   7.033 -0.3500  1.3280  0.1948
  182SOPE  C21220812   4.525  -0.162   7.101 -0.2539 -0.3576  0.5763
  182SOPE  H12R20813   4.572  -0.259   7.129 -0.5116 -1.2965 -2.1214
  182SOPE  H12S20814   4.423  -0.185   7.064 -0.1455  1.1217 -0.6937
  182SOPE  C21320815   4.522  -0.058   7.218 -0.0869 -0.8022  1.1348
  182SOPE  H13R20816   4.516   0.050   7.192  1.3794 -1.0231 -0.1639
  182SOPE  H13S20817   4.615  -0.071   7.277  0.2366 -1.7667  0.4275
  182SOPE  C21420818   4.403  -0.087   7.308  0.6914 -0.7378  0.1664
  182SOPE  H14R20819   4.415  -0.186   7.357  0.5847 -1.1212 -0.5895
  182SOPE  H14S20820   4.306  -0.070   7.257  1.1152 -0.8843 -0.6917
  182SOPE  C21520821   4.393   0.006   7.431 -0.8763  0.9100 -0.0048
  182SOPE  H15R20822   4.371   0.112   7.407  3.0939  1.7740 -0.0449
  182SOPE  H15S20823   4.482  -0.006   7.495  0.2298 -1.2139 -1.8882
  182SOPE  C21620824   4.280  -0.044   7.521 -0.6069 -0.1590 -0.3259
  182SOPE  H16R20825   4.310  -0.143   7.561 -0.8583 -0.5028 -0.9732
  182SOPE  H16S20826   4.188  -0.072   7.466 -0.1381 -0.9838 -0.6917
  182SOPE  C21720827   4.236   0.045   7.639 -0.1189 -0.0723  0.7975
  182SOPE  H17R20828   4.222   0.147   7.597  1.2981  0.0178  0.5024
  182SOPE  H17S20829   4.321   0.067   7.707 -0.1854 -0.0474  0.8722
  182SOPE  C21820830   4.117  -0.013   7.716  0.8648 -0.1816  1.1371
  182SOPE  H18R20831   4.085   0.073   7.779  0.9830 -0.6251  1.8105
  182SOPE  H18S20832   4.149  -0.103   7.773  0.5663 -1.0370 -0.0274
  182SOPE  H18T20833   4.025  -0.028   7.657  0.6186  0.0801  1.4488
  182SOPE   C3320834   5.270   0.091   6.347  0.0536  0.5884  0.5300
  182SOPE   H3X20835   5.333   0.035   6.275  0.0855  2.6586 -1.0945
  182SOPE   H3Y20836   5.167   0.049   6.345  1.6152 -3.3206 -0.8841
  182SOPE   C3420837   5.331   0.105   6.485 -0.3023 -0.0154  0.3705
  182SOPE   H4X20838   5.421   0.170   6.488 -0.1757 -0.1827  0.1752
  182SOPE   H4Y20839   5.362   0.000   6.508  0.8697  0.1094 -0.6411
  182SOPE   C3520840   5.234   0.160   6.586 -0.1202  0.0413  0.2386
  182SOPE   H5X20841   5.245   0.270   6.578 -0.8241  0.1449  0.5810
  182SOPE   H5Y20842   5.275   0.137   6.687  1.2927  3.5683  0.5441
  182SOPE   C3620843   5.090   0.110   6.584  0.1233  0.5210 -0.2909
  182SOPE   H6X20844   5.095  -0.000   6.596  1.6320  0.7765  1.9529
  182SOPE   H6Y20845   5.043   0.116   6.484 -0.1669 -0.2649 -0.2033
  182SOPE   C3720846   4.997   0.161   6.694  0.7385 -0.3286 -0.3034
  182SOPE   H7X20847   4.895   0.117   6.691  0.8905 -0.6456 -1.1214
  182SOPE   H7Y20848   4.983   0.271   6.690 -2.4894 -0.6716 -0.0439
  182SOPE   C3820849   5.050   0.136   6.836 -0.4617  0.1692 -0.3567
  182SOPE   H8X20850   5.143   0.187   6.870  0.7413 -2.3373  0.1566
  182SOPE   H8Y20851   5.079   0.029   6.838  2.0126  0.8048 -0.9426
  182SOPE   C3920852   4.941   0.164   6.948 -0.4272  0.1789 -0.0947
  182SOPE   H9X20853   4.839   0.131   6.917  1.0316 -1.4059 -3.4326
  182SOPE   H9Y20854   4.934   0.274   6.962  0.1270  0.0446  1.3391
  182SOPE  C31020855   4.979   0.093   7.077 -0.3408  0.2918  0.1060
  182SOPE  H10X20856   5.086   0.111   7.099  0.1209 -1.0006 -1.0476
  182SOPE  H10Y20857   4.961  -0.016   7.075 -0.6742  0.3523 -0.3234
  182SOPE  C31120858   4.903   0.160   7.194  0.2955 -0.2859  0.6942
  182SOPE  H11X20859   4.796   0.130   7.205  0.6651 -1.0941  2.2322
  182SOPE  H11Y20860   4.899   0.268   7.168 -0.0573 -0.4964 -0.1346
  182SOPE  C31220861   4.964   0.141   7.336  0.0465  1.0515  0.8531
  182SOPE  H12X20862   5.062   0.194   7.339 -0.2134  1.5735  0.2195
  182SOPE  H12Y20863   4.988   0.037   7.367 -0.1407  0.8863  0.4491
  182SOPE  C31320864   4.872   0.198   7.445 -0.5019  0.5587 -0.2395
  182SOPE  H13X20865   4.775   0.143   7.454  0.7333 -1.3821  1.7225
  182SOPE  H13Y20866   4.851   0.304   7.421 -1.6553  0.6912  1.2786
  182SOPE  C31420867   4.945   0.183   7.579 -0.0516  0.2717 -0.8368
  182SOPE  H14X20868   5.038   0.243   7.578  0.9813 -1.2995 -0.5509
  182SOPE  H14Y20869   4.968   0.076   7.596 -2.0305  0.0782  0.7319
  182SOPE  C31520870   4.858   0.230   7.698  0.3127  0.0155  0.3152
  182SOPE  H15X20871   4.767   0.167   7.685  2.1597 -2.4735 -0.8947
  182SOPE  H15Y20872   4.839   0.337   7.674  0.6289 -0.4506 -2.1985
  182SOPE  C31620873   4.942   0.228   7.827 -0.6169  0.0253 -0.0185
  182SOPE  H16X20874   5.032   0.287   7.803 -1.5435  1.2591 -0.5286
  182SOPE  H16Y20875   4.987   0.129   7.853 -1.9869 -0.0038  2.4095
  182SOPE  C31720876   4.863   0.272   7.950 -0.6563 -1.1741  1.0914
  182SOPE  H17X20877   4.818   0.368   7.917  0.8540 -0.7143  0.3349
  182SOPE  H17Y20878   4.925   0.291   8.039 -0.3657  0.1254  0.6283
  182SOPE  C31820879   4.755   0.167   7.988 -0.0697 -0.5809 -0.9575
  182SOPE  H18X20880   4.808   0.069   7.986 -0.2422 -0.6653 -1.5143
  182SOPE  H18Y20881   4.682   0.159   7.905  0.7724  0.9454 -1.8750
  182SOPE  H18Z20882   4.734   0.204   8.090  0.4428  1.5703 -1.5885
  183SOPE     N20883   6.889   6.158   5.925 -0.1438 -0.3965 -0.3094
  183SOPE   HN120884   6.829   6.108   5.855 -2.8073  2.2697 -0.0448
  183SOPE   HN220885   6.876   6.260   5.909 -1.3342 -0.2253  1.5398
  183SOPE   HN320886   6.990   6.139   5.910 -0.1663  1.6012 -3.3029
  183SOPE   C1220887   6.836   6.124   6.065  0.5044  0.3646 -0.1567
  183SOPE  H12A20888   6.726   6.132   6.052  0.1104 -0.4077  2.4901
  183SOPE  H12B20889   6.864   6.209   6.130 -0.4377 -0.7456  1.7419
  183SOPE   C1120890   6.885   5.988   6.117 -0.1833  0.2857  0.2662
  183SOPE  H11A20891   6.833   5.960   6.210  0.1227 -0.6631  0.1595
  183SOPE  H11B20892   6.994   5.990   6.142 -0.9098  1.6573  3.5009
  183SOPE     P20893   6.816   5.755   6.013 -0.1018  0.1719 -0.2054
  183SOPE   O1320894   6.829   5.702   5.873  0.1598 -0.6091 -0.6942
  183SOPE   O1420895   6.686   5.739   6.077 -0.6329  0.4715 -0.9270
  183SOPE   O1220896   6.868   5.892   6.012 -0.2461  0.0244 -0.5845
  183SOPE   O1120897   6.926   5.678   6.096 -0.3455  0.3138  0.0077
  183SOPE    C120898   6.889   5.562   6.173  0.2641 -0.1182 -0.0583
  183SOPE    HA20899   6.960   5.480   6.149  0.2354 -0.6722  1.7010
  183SOPE    HB20900   6.792   5.519   6.142 -0.0889  1.0641 -0.6430
  183SOPE    C220901   6.900   5.584   6.320 -0.3504 -0.6705 -0.3624
  183SOPE    HS20902   6.882   5.489   6.375  1.3740 -1.0664 -0.4403
  183SOPE   O2120903   6.816   5.694   6.356 -0.3181 -0.0634 -0.8235
  183SOPE   C2120904   6.695   5.659   6.391  0.1712 -0.3015  0.1941
  183SOPE   O2220905   6.651   5.548   6.402  0.2154 -0.0816 -0.5120
  183SOPE   C2220906   6.627   5.786   6.436  0.4548 -0.7549  0.1822
  183SOPE   H2R20907   6.564   5.831   6.356 -1.4792 -1.2017  1.4267
  183SOPE   H2S20908   6.703   5.865   6.459 -0.9265  0.3504  1.0342
  183SOPE    C320909   7.040   5.610   6.367 -0.0344 -0.9889  0.9841
  183SOPE    HX20910   7.092   5.686   6.304  0.5313 -1.1480  1.2588
  183SOPE    HY20911   7.095   5.515   6.352  0.7021 -0.0723 -2.7236
  183SOPE   O3120912   7.028   5.636   6.508  0.3362  0.4341 -0.5537
  183SOPE   C3120913   7.142   5.677   6.569 -0.0138  0.2887  0.4603
  183SOPE   O3220914   7.245   5.703   6.506  0.1995 -0.5992  0.2816
  183SOPE   C3220915   7.133   5.665   6.713  0.6160  0.1226 -0.0770
  183SOPE   H2X20916   7.236   5.662   6.754  0.5174 -0.2448  0.1496
  183SOPE   H2Y20917   7.091   5.572   6.757 -0.8392  1.5123  1.5593
  183SOPE   C2320918   6.555   5.747   6.562  0.2867  0.5962  0.1851
  183SOPE   H3R20919   6.478   5.667   6.555  0.3057  0.3958  1.9260
  183SOPE   H3S20920   6.496   5.836   6.594 -2.0546 -0.7709 -0.2182
  183SOPE   C2420921   6.650   5.709   6.674  0.3457 -0.1144  0.2212
  183SOPE   H4R20922   6.720   5.626   6.652  0.6575 -0.0264  0.9032
  183SOPE   H4S20923   6.701   5.799   6.713  2.2212 -0.4335 -1.3926
  183SOPE   C2520924   6.558   5.662   6.788  0.3496  0.3752  0.3311
  183SOPE   H5R20925   6.503   5.748   6.830 -1.2281 -0.3211 -0.2861
  183SOPE   H5S20926   6.485   5.583   6.762 -1.0634  1.4177  1.0875
  183SOPE   C2620927   6.630   5.591   6.914  0.3689  0.5816 -0.1914
  183SOPE   H6R20928   6.683   5.499   6.884 -0.4635  0.3111 -0.8480
  183SOPE   H6S20929   6.709   5.662   6.946  3.3211 -2.5401 -0.3012
  183SOPE   C2720930   6.529   5.560   7.032 -0.6095 -0.1649 -0.1171
  183SOPE   H7R20931   6.498   5.658   7.075 -1.0353 -0.3789  0.0607
  183SOPE   H7S20932   6.438   5.506   7.000 -0.1362 -1.4060  0.5920
  183SOPE   C2820933   6.589   5.487   7.161  0.1280  0.2380  0.0034
  183SOPE   H8R20934   6.672   5.549   7.201  0.8977 -0.6238 -0.2372
  183SOPE   H8S20935   6.517   5.497   7.244 -0.5867 -1.3233 -0.4148
  183SOPE   C2920936   6.644   5.348   7.142 -0.4209 -0.2932 -0.8436
  183SOPE   H9120937   6.723   5.337   7.066 -0.3350 -2.2257 -0.4922
  183SOPE  C21020938   6.603   5.243   7.215  0.5949  0.4056 -0.2005
  183SOPE  H10120939   6.654   5.151   7.183  1.4382 -0.2093  2.6898
  183SOPE  C21120940   6.494   5.231   7.326 -0.4835  0.4470  0.1656
  183SOPE  H11R20941   6.430   5.143   7.305 -0.3799  1.1048 -3.2515
  183SOPE  H11S20942   6.428   5.320   7.322  0.0733  0.7973 -1.9438
  183SOPE  C21220943   6.550   5.221   7.473  0.0299  0.0082 -0.3595
  183SOPE  H12R20944   6.482   5.266   7.548 -0.0144  0.5917 -0.7427
  183SOPE  H12S20945   6.648   5.273   7.461  1.2800 -1.4608  3.0934
  183SOPE  C21320946   6.587   5.070   7.503 -0.4722  0.2208 -0.1050
  183SOPE  H13R20947   6.663   5.029   7.433  0.7368  0.9795  0.7453
  183SOPE  H13S20948   6.493   5.017   7.475 -1.3679  2.0918 -0.7025
  183SOPE  C21420949   6.619   5.058   7.651 -0.0269 -0.0461 -0.8299
  183SOPE  H14R20950   6.636   4.950   7.671 -1.2523  0.0639  0.9607
  183SOPE  H14S20951   6.530   5.089   7.711  0.6016 -1.0133  0.6376
  183SOPE  C21520952   6.741   5.135   7.699  0.1868  0.0231 -0.6799
  183SOPE  H15R20953   6.714   5.243   7.691 -0.1570  0.1056  1.3839
  183SOPE  H15S20954   6.834   5.130   7.639  1.7583  1.7031  1.5432
  183SOPE  C21620955   6.782   5.094   7.838 -0.5852  0.3978  0.0435
  183SOPE  H16R20956   6.694   5.075   7.904 -1.0580  0.7343 -0.4905
  183SOPE  H16S20957   6.848   5.170   7.884 -1.1226  2.1349 -2.0275
  183SOPE  C21720958   6.865   4.962   7.840 -0.0642 -0.4696  0.1738
  183SOPE  H17R20959   6.952   4.973   7.772 -1.0793  0.8803 -0.9462
  183SOPE  H17S20960   6.806   4.875   7.804 -1.8348  1.7211 -2.3607
  183SOPE  C21820961   6.908   4.939   7.985 -0.2927 -0.0319  0.3935
  183SOPE  H18R20962   6.836   4.972   8.063 -3.1212  0.1878 -2.1968
  183SOPE  H18S20963   7.001   4.995   8.007 -0.2944 -0.4336  1.4524
  183SOPE  H18T20964   6.941   4.834   7.997 -0.3695 -0.1108 -0.0769
  183SOPE   C3320965   7.054   5.783   6.783 -0.1834  0.5409 -0.0156
  183SOPE   H3X20966   6.961   5.812   6.730 -1.2777 -1.5729  0.7048
  183SOPE   H3Y20967   7.125   5.868   6.796 -0.3506  0.7569 -0.5199
  183SOPE   C3420968   7.007   5.753   6.926 -0.3078  0.2517 -0.3328
  183SOPE   H4X20969   7.098   5.720   6.979 -0.9977  1.8638  1.9153
  183SOPE   H4Y20970   6.942   5.663   6.934 -1.3368  0.9140 -1.0619
  183SOPE   C3520971   6.946   5.869   7.002  0.1070 -0.2825 -0.0936
  183SOPE   H5X20972   6.851   5.913   6.966  0.6243  0.0699 -1.0544
  183SOPE   H5Y20973   7.019   5.951   7.022 -0.1269 -0.1371  0.1668
  183SOPE   C3620974   6.918   5.821   7.141  0.7096  0.2706 -0.2962
  183SOPE   H6X20975   7.013   5.801   7.196  0.7405  0.9705 -0.0948
  183SOPE   H6Y20976   6.860   5.726   7.136 -1.0308  1.3556 -0.9304
  183SOPE   C3720977   6.837   5.929   7.215 -0.1417 -0.0455  0.1194
  183SOPE   H7X20978   6.741   5.929   7.159 -0.7871  1.1056  1.1933
  183SOPE   H7Y20979   6.897   6.021   7.192  0.2249 -0.1352  0.7045
  183SOPE   C3820980   6.813   5.892   7.359 -0.1971  0.1991 -0.2894
  183SOPE   H8X20981   6.755   5.798   7.373  1.4600 -0.9281 -0.8506
  183SOPE   H8Y20982   6.748   5.964   7.413 -1.3228 -0.5116 -0.6912
  183SOPE   C3920983   6.931   5.865   7.446 -0.5886  0.1457  0.3450
  183SOPE   H9X20984   7.013   5.939   7.437 -1.1153  0.8333  1.1168
  183SOPE   H9Y20985   6.973   5.769   7.409 -1.8664  0.1194 -1.0838
  183SOPE  C31020986   6.895   5.868   7.596 -0.0255 -0.5044  1.3704
  183SOPE  H10X20987   6.894   5.975   7.626 -0.2360 -0.1932  0.3018
  183SOPE  H10Y20988   6.976   5.821   7.655 -1.3878 -1.6441  2.3532
  183SOPE  C31120989   6.767   5.794   7.641 -0.9165  0.1619 -0.2778
  183SOPE  H11X20990   6.766   5.692   7.596  1.3019 -0.0240  0.0309
  183SOPE  H11Y20991   6.687   5.858   7.599 -0.5191 -0.2484 -1.6884
  183SOPE  C31220992   6.747   5.773   7.794 -0.1111 -0.4782 -0.9106
  183SOPE  H12X20993   6.639   5.774   7.821  0.4901  1.4993  1.5903
  183SOPE  H12Y20994   6.789   5.860   7.848  1.5387 -2.5988  1.3177
  183SOPE  C31320995   6.820   5.647   7.838 -0.7010 -0.8253  0.2957
  183SOPE  H13X20996   6.927   5.644   7.807 -0.7388 -2.1502  0.2416
  183SOPE  H13Y20997   6.772   5.566   7.779  0.1750 -0.2753 -1.2156
  183SOPE  C31420998   6.817   5.616   7.988  0.0566  0.3720 -0.4380
  183SOPE  H14X20999   6.857   5.512   7.995 -0.7044  0.2035  1.5838
  183SOPE  H14Y21000   6.710   5.627   8.017  0.0537 -0.7455  0.0128
  183SOPE  C31521001   6.905   5.701   8.083  0.2923 -0.2008  0.9454
  183SOPE  H15X21002   6.881   5.809   8.069  2.0051  0.1792  0.7319
  183SOPE  H15Y21003   7.011   5.677   8.060  0.0516 -0.3905  0.0255
  183SOPE  C31621004   6.880   5.667   8.232  0.3313  0.9827 -0.1589
  183SOPE  H16X21005   6.972   5.678   8.293  0.0821 -1.7123  0.7658
  183SOPE  H16Y21006   6.853   5.560   8.247 -2.0875  1.4103 -1.1575
  183SOPE  C31721007   6.767   5.749   8.294  0.1379 -0.3416  0.0870
  183SOPE  H17X21008   6.669   5.727   8.247 -0.0831  0.6581  0.0618
  183SOPE  H17Y21009   6.790   5.858   8.286  2.2772 -0.8268 -0.9325
  183SOPE  C31821010   6.752   5.707   8.439 -0.4171  0.0511 -0.1370
  183SOPE  H18X21011   6.819   5.758   8.513 -0.3360 -1.2299  0.6849
  183SOPE  H18Y21012   6.758   5.597   8.446  1.6624  0.0616 -1.4340
  183SOPE  H18Z21013   6.653   5.740   8.478 -0.5227 -0.8317  0.3539
  184SOPE     N21014   5.173   7.176   5.868 -0.0701 -0.3069  0.3276
  184SOPE   HN121015   5.261   7.216   5.907 -1.3092  2.3481  0.4464
  184SOPE   HN221016   5.192   7.085   5.821  2.5458  0.4151 -0.1382
  184SOPE   HN321017   5.151   7.242   5.791  2.4706  0.4923  0.2163
  184SOPE   C1221018   5.069   7.139   5.965  0.1328  0.0699  0.7230
  184SOPE  H12A21019   5.027   7.233   6.007 -0.1596  0.2626  0.0108
  184SOPE  H12B21020   5.120   7.085   6.047  0.8024 -0.1860  0.1449
  184SOPE   C1121021   4.952   7.060   5.903 -0.6718  0.1923 -0.7396
  184SOPE  H11A21022   4.891   7.020   5.987  0.5646 -3.0372 -1.3374
  184SOPE  H11B21023   4.991   6.971   5.850 -1.3356 -1.5499  1.6444
  184SOPE     P21024   4.748   7.093   5.755  0.4957  0.1801  0.0895
  184SOPE   O1321025   4.781   6.969   5.678 -0.3199 -0.2903 -0.2024
  184SOPE   O1421026   4.685   7.209   5.685  0.3863 -0.7026  0.0429
  184SOPE   O1221027   4.879   7.149   5.828  0.1507 -0.6114 -0.4128
  184SOPE   O1121028   4.664   7.043   5.879  0.5185 -0.4408 -0.3879
  184SOPE    C121029   4.612   7.145   5.960  0.3393 -0.2044 -0.1895
  184SOPE    HA21030   4.639   7.251   5.939 -1.6128  0.2273 -0.6481
  184SOPE    HB21031   4.659   7.119   6.057 -2.1897 -1.5127  0.7435
  184SOPE    C221032   4.454   7.129   5.958  0.7161  0.4208  0.1210
  184SOPE    HS21033   4.429   7.147   5.851 -0.1627  0.6074  0.3512
  184SOPE   O2121034   4.407   7.219   6.056  0.4032 -0.3605 -0.3370
  184SOPE   C2121035   4.294   7.284   6.030  0.1560 -0.4652 -0.2366
  184SOPE   O2221036   4.232   7.270   5.925  0.7384 -0.1976 -0.2024
  184SOPE   C2221037   4.265   7.380   6.141  0.3687  0.1373 -0.6081
  184SOPE   H2R21038   4.302   7.479   6.105  1.1126 -0.9072 -2.8346
  184SOPE   H2S21039   4.331   7.348   6.225 -0.1371  1.8764  0.4922
  184SOPE    C321040   4.400   6.983   5.983 -0.9904 -0.4186 -0.1346
  184SOPE    HX21041   4.428   6.930   5.889 -1.9104 -3.0511  1.0094
  184SOPE    HY21042   4.290   6.977   5.970 -0.5528 -2.8187 -3.3000
  184SOPE   O3121043   4.458   6.926   6.109  0.0489  0.0445  0.6778
  184SOPE   C3121044   4.369   6.921   6.206  0.1085  0.1228 -0.0989
  184SOPE   O3221045   4.254   6.962   6.201  0.1991  0.4046  0.4088
  184SOPE   C3221046   4.433   6.850   6.324  0.3043 -0.1548 -0.8378
  184SOPE   H2X21047   4.543   6.861   6.336  0.1182 -0.0316  0.9025
  184SOPE   H2Y21048   4.414   6.741   6.316 -0.3438 -0.2870  1.8769
  184SOPE   C2321049   4.109   7.398   6.166  0.0875 -0.3783 -0.3959
  184SOPE   H3R21050   4.058   7.305   6.200  1.2279 -1.0251 -0.4257
  184SOPE   H3S21051   4.060   7.440   6.076 -0.7508 -2.9636 -1.2112
  184SOPE   C2421052   4.087   7.509   6.275 -0.3518 -0.0233 -0.5713
  184SOPE   H4R21053   4.131   7.601   6.231 -0.0011  0.0358 -0.1015
  184SOPE   H4S21054   3.976   7.516   6.278 -0.4257 -1.1046 -0.2643
  184SOPE   C2521055   4.150   7.485   6.407  0.1121 -0.2739  0.5705
  184SOPE   H5R21056   4.135   7.379   6.439  1.3639 -1.0362 -1.2520
  184SOPE   H5S21057   4.260   7.478   6.390  0.7082 -0.2278  3.9926
  184SOPE   C2621058   4.120   7.595   6.503  0.5557  0.9859 -0.8341
  184SOPE   H6R21059   4.154   7.695   6.469 -0.8939  3.4135  4.3543
  184SOPE   H6S21060   4.013   7.611   6.528 -0.1122 -2.0754 -1.4518
  184SOPE   C2721061   4.191   7.579   6.641  0.2542  0.5254 -0.6746
  184SOPE   H7R21062   4.301   7.586   6.628  0.5580 -0.8276  0.9238
  184SOPE   H7S21063   4.169   7.659   6.715 -1.1251 -0.2442 -0.2172
  184SOPE   C2821064   4.160   7.446   6.712  0.3231  0.3287 -0.1113
  184SOPE   H8R21065   4.051   7.431   6.701  0.1755  2.4130 -1.6811
  184SOPE   H8S21066   4.215   7.368   6.653 -1.5717 -0.4044 -0.9465
  184SOPE   C2921067   4.199   7.447   6.859 -0.0220 -0.4295  0.3505
  184SOPE   H9121068   4.299   7.487   6.880  0.0497 -0.2727 -0.2732
  184SOPE  C21021069   4.146   7.377   6.962  0.2107 -0.1433  1.0051
  184SOPE  H10121070   4.193   7.385   7.061 -0.6233  1.2101  1.3175
  184SOPE  C21121071   4.033   7.281   6.956 -0.0373  0.0815 -0.1250
  184SOPE  H11R21072   4.029   7.234   6.855  2.3507  1.8335 -1.0670
  184SOPE  H11S21073   3.943   7.345   6.968  1.6273  2.1911  1.5116
  184SOPE  C21221074   4.048   7.171   7.064 -1.1365 -0.0509 -0.8777
  184SOPE  H12R21075   4.034   7.220   7.163  2.0698  0.5441 -0.6580
  184SOPE  H12S21076   4.144   7.115   7.060  0.5011  2.3427  2.3672
  184SOPE  C21321077   3.936   7.059   7.056  0.7576 -0.3571 -0.4656
  184SOPE  H13R21078   3.947   7.011   6.957  0.1081  1.0043 -1.2028
  184SOPE  H13S21079   3.842   7.117   7.060  0.1998 -1.3241  0.5805
  184SOPE  C21421080   3.946   6.955   7.180  0.6418  0.3680  0.2637
  184SOPE  H14R21081   4.049   6.914   7.173  0.9887  1.2217  0.2864
  184SOPE  H14S21082   3.868   6.876   7.172  0.3412  0.7660 -0.8685
  184SOPE  C21521083   3.940   7.018   7.323 -0.0738  0.2334 -0.4904
  184SOPE  H15R21084   3.833   7.044   7.333 -0.2556 -0.2390 -1.1641
  184SOPE  H15S21085   3.994   7.115   7.335 -0.1837  0.1439  0.7498
  184SOPE  C21621086   3.984   6.916   7.436  0.1627 -0.2759 -0.0176
  184SOPE  H16R21087   4.093   6.899   7.446  0.4007  0.2671 -1.6502
  184SOPE  H16S21088   3.949   6.818   7.397  2.2230 -0.7095 -0.7949
  184SOPE  C21721089   3.924   6.964   7.570  0.1343 -0.5054 -0.2849
  184SOPE  H17R21090   3.818   6.955   7.540 -0.3371 -1.9865  1.7424
  184SOPE  H17S21091   3.969   7.065   7.588 -1.0331 -0.0861  0.3308
  184SOPE  C21821092   3.945   6.867   7.693 -0.9390  0.3129  0.3737
  184SOPE  H18R21093   3.866   6.896   7.766 -0.2925  1.1811  0.7349
  184SOPE  H18S21094   4.036   6.888   7.753  0.2695  1.1413 -1.6986
  184SOPE  H18T21095   3.936   6.758   7.673  0.8934  0.2435 -0.1459
  184SOPE   C3321096   4.372   6.891   6.459  0.2965  0.2769 -0.3779
  184SOPE   H3X21097   4.357   7.001   6.454 -0.7672  0.1654  0.4607
  184SOPE   H3Y21098   4.438   6.872   6.546  1.2609  0.2586 -1.0988
  184SOPE   C3421099   4.237   6.828   6.496 -0.0679  0.1879  0.1551
  184SOPE   H4X21100   4.233   6.720   6.521 -0.4387  0.7694  2.6819
  184SOPE   H4Y21101   4.182   6.836   6.399 -0.6565 -2.1491  0.2827
  184SOPE   C3521102   4.166   6.882   6.615  0.1513  0.3804 -1.2796
  184SOPE   H5X21103   4.072   6.823   6.605  1.6217 -2.3136  0.2852
  184SOPE   H5Y21104   4.148   6.992   6.611 -2.8128 -0.0017  0.0228
  184SOPE   C3621105   4.229   6.865   6.752  0.4025 -0.3780 -0.0566
  184SOPE   H6X21106   4.160   6.887   6.837  0.3512 -0.8969  0.0383
  184SOPE   H6Y21107   4.312   6.939   6.758  0.2854 -0.3650  1.8239
  184SOPE   C3721108   4.296   6.731   6.788 -0.1955  0.1553 -0.4317
  184SOPE   H7X21109   4.380   6.711   6.718 -0.0906  1.5881 -0.7328
  184SOPE   H7Y21110   4.214   6.657   6.781 -1.9492  2.0817 -0.6908
  184SOPE   C3821111   4.365   6.703   6.920  0.4693 -0.1672  0.5561
  184SOPE   H8X21112   4.441   6.783   6.935 -0.3608  0.7839 -0.2876
  184SOPE   H8Y21113   4.418   6.605   6.914  0.1503 -0.3623  0.9114
  184SOPE   C3921114   4.276   6.693   7.044  1.1038 -0.3348  0.0672
  184SOPE   H9X21115   4.222   6.596   7.037 -1.9362  1.2890  0.2322
  184SOPE   H9Y21116   4.205   6.778   7.050 -0.3067 -1.6191  2.1820
  184SOPE  C31021117   4.359   6.687   7.177  0.2310 -0.3638  0.3803
  184SOPE  H10X21118   4.425   6.777   7.179  0.3447 -0.4443  0.2629
  184SOPE  H10Y21119   4.416   6.592   7.176 -0.9299 -1.0633 -2.2260
  184SOPE  C31121120   4.271   6.699   7.302 -0.7666  0.0276  0.4250
  184SOPE  H11X21121   4.184   6.632   7.286  2.0847 -3.6689 -0.5877
  184SOPE  H11Y21122   4.233   6.803   7.309 -1.6989 -0.3469  0.9775
  184SOPE  C31221123   4.353   6.655   7.424  0.6037 -0.2945 -0.1041
  184SOPE  H12X21124   4.450   6.707   7.411  0.4559  0.4940  1.8768
  184SOPE  H12Y21125   4.379   6.547   7.418  0.8022 -0.3100  1.0790
  184SOPE  C31321126   4.292   6.687   7.559  0.9126  0.2203  0.0188
  184SOPE  H13X21127   4.250   6.790   7.561  3.5562  1.3226  2.0976
  184SOPE  H13Y21128   4.362   6.692   7.646 -2.1408 -0.6621  2.6234
  184SOPE  C31421129   4.190   6.585   7.597  0.2572 -0.5527  0.4522
  184SOPE  H14X21130   4.192   6.492   7.538  0.2202  0.7385 -1.6378
  184SOPE  H14Y21131   4.088   6.625   7.578  0.7914  0.3371 -0.6277
  184SOPE  C31521132   4.199   6.533   7.742  0.1737 -1.1581  0.2283
  184SOPE  H15X21133   4.197   6.620   7.811 -2.0688  2.4899 -4.1476
  184SOPE  H15Y21134   4.299   6.486   7.747 -0.3503 -2.7119 -2.8494
  184SOPE  C31621135   4.101   6.424   7.792 -0.3944  0.1800  0.0103
  184SOPE  H16X21136   4.118   6.334   7.730 -2.8519  0.8011 -1.6439
  184SOPE  H16Y21137   4.003   6.472   7.773  0.5546  2.2752  0.2731
  184SOPE  C31721138   4.142   6.389   7.932 -0.2895  0.3633 -0.5644
  184SOPE  H17X21139   4.140   6.483   7.990  0.2710  1.0365 -1.6204
  184SOPE  H17Y21140   4.242   6.340   7.938 -0.6921 -0.5567 -1.1672
  184SOPE  C31821141   4.041   6.290   7.988  0.4791 -0.1834 -0.3691
  184SOPE  H18X21142   4.061   6.253   8.091  0.7048  0.2643 -0.2512
  184SOPE  H18Y21143   4.024   6.201   7.924  0.2624 -0.7195  0.4297
  184SOPE  H18Z21144   3.948   6.351   7.992 -0.4210 -1.6238  1.3876
  185SAPI   C1221145   5.719   2.116  10.145 -0.0431  0.4299 -0.3133
  185SAPI    H221146   5.655   2.156  10.064 -2.6213 -2.3114  0.2842
  185SAPI    O221147   5.667   2.160  10.271 -0.4279 -0.8804  0.0523
  185SAPI   HO221148   5.603   2.229  10.252  0.4525 -0.6620 -2.2809
  185SAPI   C1321149   5.729   1.965  10.139  0.0319 -0.6275  0.1086
  185SAPI    H321150   5.783   1.930  10.048  0.9750 -0.4844  0.6081
  185SAPI    O321151   5.599   1.910  10.127 -0.4149 -0.6057 -0.3699
  185SAPI   HO321152   5.599   1.835  10.187 -0.0012  0.8770  1.5248
  185SAPI   C1421153   5.802   1.912  10.261 -0.6480  0.3475 -0.7372
  185SAPI    H421154   5.753   1.949  10.354  2.2162  0.7055  0.6881
  185SAPI    O421155   5.800   1.766  10.264 -0.3064  0.1165  0.0315
  185SAPI   HO421156   5.886   1.735  10.294 -0.4438  0.4397  0.7541
  185SAPI   C1521157   5.944   1.967  10.249 -0.2597 -1.0670  0.0520
  185SAPI    H521158   5.979   1.934  10.149  1.2200  0.2805  0.1113
  185SAPI    O521159   6.034   1.912  10.342 -0.0072 -0.1515 -0.3666
  185SAPI   HO521160   6.116   1.916  10.292 -0.4529  3.1535 -0.8825
  185SAPI   C1621161   5.955   2.120  10.250 -0.5457 -0.5857  0.7542
  185SAPI    H621162   5.915   2.160  10.346  0.7559 -1.3180  1.5946
  185SAPI    O621163   6.092   2.158  10.235 -0.1254  0.7046 -0.3855
  185SAPI   HO621164   6.115   2.159  10.142 -1.2866  1.8620 -0.6835
  185SAPI   C1121165   5.865   2.171  10.138  0.6954 -0.6846  0.3819
  185SAPI    H121166   5.909   2.134  10.043  0.8780 -1.2779  0.6979
  185SAPI     P21167   5.912   2.402  10.013  0.2020 -0.0626 -0.5823
  185SAPI   O1321168   6.052   2.366   9.974  0.0022  0.2333  0.7034
  185SAPI   O1421169   5.882   2.543  10.048  0.3635 -0.2627  0.0842
  185SAPI   O1221170   5.859   2.315  10.139 -0.8900 -0.0286 -0.4919
  185SAPI   O1121171   5.814   2.351   9.895 -0.4010 -0.3233  0.1199
  185SAPI    C121172   5.669   2.376   9.893 -0.7063 -0.0329 -0.1423
  185SAPI    HA21173   5.613   2.280   9.900 -0.4544 -0.0587  1.8589
  185SAPI    HB21174   5.642   2.421   9.991 -1.7303 -0.2992 -0.3009
  185SAPI    C221175   5.625   2.466   9.774  0.1985 -0.2182 -0.4861
  185SAPI    HS21176   5.529   2.514   9.803  0.4095 -0.4631  0.6414
  185SAPI   O2121177   5.596   2.387   9.654 -0.1625 -0.2445 -0.1555
  185SAPI   C2121178   5.534   2.454   9.561  0.5915  0.5891  0.6295
  185SAPI   O2221179   5.487   2.562   9.569 -0.1535 -0.3126 -0.1531
  185SAPI   C2221180   5.535   2.383   9.425 -0.1305 -0.8493  0.0337
  185SAPI   H2R21181   5.590   2.287   9.423  2.9190  0.8148  0.2466
  185SAPI   H2S21182   5.437   2.371   9.373 -1.1511  0.7626  1.5033
  185SAPI    C321183   5.729   2.584   9.739 -0.0607  0.2449 -0.1194
  185SAPI    HX21184   5.758   2.625   9.838 -1.7371  0.9351  0.0999
  185SAPI    HY21185   5.680   2.666   9.683 -1.4250 -0.1353  0.4956
  185SAPI   O3121186   5.834   2.522   9.667  0.2583 -0.6071  0.7153
  185SAPI   C3121187   5.946   2.590   9.664  0.3960  0.0034 -0.0173
  185SAPI   O3221188   5.971   2.697   9.716  0.6852 -0.1523  0.0954
  185SAPI   C3221189   6.057   2.515   9.599 -0.2148  0.9091 -0.9300
  185SAPI   H2X21190   6.023   2.420   9.554 -0.6491  1.4968 -1.8655
  185SAPI   H2Y21191   6.136   2.488   9.672  0.6501  1.0767 -1.8055
  185SAPI   C2321192   5.613   2.475   9.322  0.2120  1.3756 -0.3895
  185SAPI   H3R21193   5.718   2.489   9.354  0.5836  0.7381 -1.3257
  185SAPI   H3S21194   5.562   2.574   9.329 -1.6872  0.3273  1.1993
  185SAPI   C2421195   5.603   2.431   9.174 -0.1340 -0.1382 -0.7193
  185SAPI   H4R21196   5.621   2.523   9.114  0.5319 -2.0876 -3.6103
  185SAPI   H4S21197   5.498   2.403   9.150 -1.2653  3.4732 -0.2959
  185SAPI   C2521198   5.703   2.330   9.129  0.4166  0.5910 -0.2879
  185SAPI   H5R21199   5.717   2.256   9.209 -0.0245  1.3749  0.5264
  185SAPI   C2621200   5.756   2.306   9.005  0.2683  0.0359  0.6464
  185SAPI   H6R21201   5.824   2.222   8.987 -0.7582 -0.6661  0.0046
  185SAPI   C2721202   5.734   2.399   8.883 -0.4611 -0.5602  0.3799
  185SAPI   H7R21203   5.671   2.490   8.898  1.9685  1.0192  1.1813
  185SAPI   H7S21204   5.673   2.336   8.813 -0.6580 -0.6235  0.6061
  185SAPI   C2821205   5.873   2.429   8.834 -0.0298 -0.0072 -0.2588
  185SAPI   H8R21206   5.952   2.354   8.851 -1.6697 -1.8676 -0.5910
  185SAPI   C2921207   5.926   2.532   8.768  0.5723  0.3211  0.0745
  185SAPI   H9R21208   6.032   2.523   8.740  0.9681  2.1572  0.9312
  185SAPI  C21021209   5.855   2.658   8.714  0.0993  0.5635  0.0326
  185SAPI  H10R21210   5.932   2.739   8.713 -0.5949  1.2520  1.1590
  185SAPI  H10S21211   5.763   2.675   8.774  1.7721  0.2575  2.7655
  185SAPI  C21121212   5.801   2.622   8.572  0.7686  0.3600 -0.3957
  185SAPI  H11R21213   5.762   2.520   8.556 -2.2318  1.3979  0.0471
  185SAPI  C21221214   5.759   2.721   8.491  0.6570  0.6350 -0.5567
  185SAPI  H12R21215   5.720   2.706   8.390 -0.4215 -0.3373 -0.0004
  185SAPI  C21321216   5.763   2.861   8.528  0.3417  0.1433 -0.3559
  185SAPI  H13R21217   5.865   2.890   8.561 -0.7150  2.2042  1.2628
  185SAPI  H13S21218   5.694   2.877   8.614 -0.2245 -0.2764 -0.7259
  185SAPI  C21421219   5.740   2.959   8.418  0.1892  0.5935 -0.6848
  185SAPI  H14R21220   5.824   2.986   8.352  0.9030  0.1879  0.0445
  185SAPI  C21521221   5.624   3.010   8.382  0.2102  0.2954  0.2864
  185SAPI  H15R21222   5.626   3.061   8.285  0.0254 -2.3288 -1.1300
  185SAPI  C21621223   5.485   2.988   8.446 -0.7136  0.5472 -0.0715
  185SAPI  H16R21224   5.424   3.080   8.443  0.3298  1.2087 -1.5772
  185SAPI  H16S21225   5.493   2.946   8.548 -1.0228 -1.2870 -0.7649
  185SAPI  C21721226   5.395   2.886   8.370  0.6766 -0.0150 -0.5645
  185SAPI  H17R21227   5.358   2.940   8.280  1.7359  1.2866 -0.2276
  185SAPI  H17S21228   5.309   2.856   8.433  2.1518 -4.0046 -0.2917
  185SAPI  C21821229   5.463   2.750   8.326 -0.3661  0.1660  0.5497
  185SAPI  H18R21230   5.483   2.694   8.419 -2.3327 -0.2492  0.7424
  185SAPI  H18S21231   5.543   2.779   8.253 -0.7529 -2.2330 -0.8769
  185SAPI  C21921232   5.371   2.669   8.239  0.1834 -0.1452 -0.1515
  185SAPI  H19R21233   5.330   2.737   8.162  0.5847  0.7756  0.4457
  185SAPI  H19S21234   5.288   2.653   8.311  0.7998  0.4935  0.7212
  185SAPI  C22021235   5.424   2.540   8.181 -0.1586 -0.8785 -0.0353
  185SAPI  H20R21236   5.364   2.517   8.090 -1.2262  2.3652 -0.2097
  185SAPI  H20S21237   5.421   2.462   8.259 -3.9344  1.2885  2.1211
  185SAPI  H20T21238   5.526   2.555   8.138 -1.1969 -0.3571 -2.3807
  185SAPI   C3321239   6.132   2.601   9.494  0.1862  0.1839  0.9680
  185SAPI   H3X21240   6.223   2.547   9.461 -0.0445 -0.1979  0.9515
  185SAPI   H3Y21241   6.163   2.698   9.539  0.5344  0.9527 -0.8959
  185SAPI   C3421242   6.047   2.636   9.372 -0.9791 -0.1903 -0.2838
  185SAPI   H4X21243   5.949   2.684   9.394 -0.3382  2.2546 -2.5370
  185SAPI   H4Y21244   6.015   2.546   9.316 -2.3185 -0.9282  1.5975
  185SAPI   C3521245   6.128   2.724   9.280  0.1743  0.4111  0.7913
  185SAPI   H5X21246   6.235   2.693   9.280  0.2315  0.4826  3.4415
  185SAPI   H5Y21247   6.122   2.825   9.326  0.4795 -0.1021  1.9626
  185SAPI   C3621248   6.075   2.720   9.137  0.0190 -0.5074 -0.1363
  185SAPI   H6X21249   5.967   2.744   9.147  0.2894  0.6316  0.0849
  185SAPI   H6Y21250   6.078   2.615   9.100  0.6168 -0.1047 -1.2532
  185SAPI   C3721251   6.142   2.822   9.043  0.0347  0.0703  0.1779
  185SAPI   H7X21252   6.247   2.793   9.024  0.0097 -0.5678  0.9620
  185SAPI   H7Y21253   6.136   2.921   9.093  2.7173  0.9463 -1.1818
  185SAPI   C3821254   6.078   2.848   8.904  0.2278  0.3360 -0.1400
  185SAPI   H8X21255   5.969   2.868   8.907  0.1373 -0.3330  1.0293
  185SAPI   H8Y21256   6.092   2.756   8.842 -1.6203 -0.8470  1.1498
  185SAPI   C3921257   6.142   2.965   8.832  0.3301 -0.0896 -0.0398
  185SAPI   H9X21258   6.252   2.949   8.828  0.2735 -0.1528 -1.7229
  185SAPI   H9Y21259   6.124   3.062   8.884  0.4605  0.6064 -1.2599
  185SAPI  C31021260   6.073   2.983   8.691 -0.0356  0.0850 -0.5909
  185SAPI  H10X21261   5.972   3.028   8.705 -0.8655 -2.0576  0.5763
  185SAPI  H10Y21262   6.068   2.886   8.637 -2.7766  0.2383 -0.6771
  185SAPI  C31121263   6.144   3.066   8.588 -0.2442 -0.8533  0.4960
  185SAPI  H11X21264   6.246   3.024   8.572 -0.0875  0.1879 -1.3509
  185SAPI  H11Y21265   6.137   3.171   8.622 -2.0257 -0.9652  0.5473
  185SAPI  C31221266   6.078   3.075   8.450 -0.0050  0.2313 -0.5656
  185SAPI  H12X21267   5.978   3.121   8.461 -0.1175 -0.0710 -0.3050
  185SAPI  H12Y21268   6.076   2.977   8.397  0.5117 -0.8642  1.3926
  185SAPI  C31321269   6.170   3.174   8.370  0.4064 -0.0792 -0.4236
  185SAPI  H13X21270   6.221   3.105   8.299 -0.3033  0.9889 -2.0130
  185SAPI  H13Y21271   6.248   3.213   8.440 -1.1539  0.3966  1.0739
  185SAPI  C31421272   6.116   3.291   8.291 -0.1893  0.0280 -0.3561
  185SAPI  H14X21273   6.034   3.258   8.224 -1.7449 -3.1145  2.9600
  185SAPI  H14Y21274   6.207   3.333   8.243 -1.5622  2.6413 -0.7677
  185SAPI  C31521275   6.048   3.397   8.384 -0.6997 -0.1921  0.3242
  185SAPI  H15X21276   6.122   3.453   8.446 -1.6287  1.2513  0.1347
  185SAPI  H15Y21277   5.974   3.339   8.444 -0.3017  0.3773  1.3672
  185SAPI  C31621278   5.971   3.505   8.300 -0.2468 -0.3052  0.6233
  185SAPI  H16X21279   5.927   3.575   8.374 -2.4073  0.9974 -1.8283
  185SAPI  H16Y21280   5.885   3.452   8.255  0.9505 -3.3162  1.7561
  185SAPI  C31721281   6.061   3.575   8.195  0.1340  0.1373  0.9139
  185SAPI  H17X21282   6.064   3.510   8.105 -0.7927  1.9082 -0.4344
  185SAPI  H17Y21283   6.164   3.595   8.232 -0.0862  0.8159  1.1748
  185SAPI  C31821284   5.991   3.702   8.151  0.8548  0.3100  0.3960
  185SAPI  H18X21285   6.051   3.743   8.067  0.9232  0.4065  0.4910
  185SAPI  H18Y21286   5.979   3.780   8.230 -3.1825  0.6147 -0.4143
  185SAPI  H18Z21287   5.890   3.669   8.121  0.6457 -1.0157  2.4386
  186SAPI   C1221288   5.685   0.248  10.448  0.1168  0.0425 -0.1230
  186SAPI    H221289   5.654   0.178  10.368  0.3733 -0.8035  0.5200
  186SAPI    O221290   5.590   0.243  10.556 -0.3611  0.2135 -0.0143
  186SAPI   HO221291   5.514   0.197  10.520  1.4128 -0.0015 -3.8330
  186SAPI   C1321292   5.811   0.189  10.501 -0.4597 -1.4680 -0.0254
  186SAPI    H321293   5.878   0.200  10.413 -0.0152  0.8623  0.5748
  186SAPI    O321294   5.792   0.047  10.525  0.3725  1.2318 -0.1694
  186SAPI   HO321295   5.877   0.006  10.511 -0.5954 -1.2531  0.9570
  186SAPI   C1421296   5.865   0.274  10.615 -0.1058  0.2289  0.4506
  186SAPI    H421297   5.795   0.273  10.702  1.0723  1.8933  1.4406
  186SAPI    O421298   5.994   0.218  10.659 -0.2213  0.2373  0.3408
  186SAPI   HO421299   6.002   0.230  10.754  1.1218 -2.5535  0.6370
  186SAPI   C1521300   5.894   0.415  10.561 -0.0774 -0.1236 -0.0196
  186SAPI    H521301   5.967   0.422  10.478 -0.2004 -0.3235 -0.1430
  186SAPI    O521302   5.946   0.496  10.666  0.4925 -0.0816 -0.3663
  186SAPI   HO521303   6.019   0.541  10.623  0.3934 -0.4919 -0.9743
  186SAPI   C1621304   5.761   0.470  10.513 -0.6171 -0.3788  0.0127
  186SAPI    H621305   5.686   0.470  10.595 -0.2379 -0.2330  0.3601
  186SAPI    O621306   5.770   0.600  10.467 -0.1930 -0.5011 -0.1860
  186SAPI   HO621307   5.718   0.595  10.387  0.3394 -1.4649 -0.4706
  186SAPI   C1121308   5.706   0.393  10.394  0.2295 -0.6509  1.3273
  186SAPI    H121309   5.782   0.381  10.314 -1.7703  0.3358 -0.7745
  186SAPI     P21310   5.570   0.538  10.208 -0.2174 -0.4053 -0.5929
  186SAPI   O1321311   5.687   0.621  10.200 -0.3338  0.4458 -0.9009
  186SAPI   O1421312   5.437   0.601  10.209  0.2775 -0.2117 -0.0328
  186SAPI   O1221313   5.588   0.436  10.335 -0.1950 -0.2448 -0.1941
  186SAPI   O1121314   5.575   0.441  10.082  0.5606  0.2824 -0.4640
  186SAPI    C121315   5.522   0.312  10.091  0.1694 -0.2374 -0.5815
  186SAPI    HA21316   5.583   0.242  10.152 -1.5072 -0.8676  0.4020
  186SAPI    HB21317   5.426   0.318  10.147 -0.4726 -0.5275 -1.6346
  186SAPI    C221318   5.480   0.267   9.944 -0.0416  0.2205  0.0245
  186SAPI    HS21319   5.405   0.185   9.947  0.2781 -0.1728 -1.8178
  186SAPI   O2121320   5.599   0.222   9.879  0.1847 -0.3486  0.5214
  186SAPI   C2121321   5.613   0.092   9.883  0.3496  0.0059 -0.0252
  186SAPI   O2221322   5.545   0.010   9.941  0.4941 -0.1593 -0.1918
  186SAPI   C2221323   5.726   0.061   9.785 -1.1398  0.1018  0.9848
  186SAPI   H2R21324   5.793   0.149   9.773 -0.7865 -0.2445  0.3831
  186SAPI   H2S21325   5.784  -0.017   9.839 -0.2734 -0.6382 -0.9741
  186SAPI    C321326   5.419   0.384   9.859  0.5855  0.5376 -0.1678
  186SAPI    HX21327   5.505   0.454   9.847 -0.2829  1.5793 -0.4169
  186SAPI    HY21328   5.352   0.448   9.920  0.5757 -0.1781  0.5760
  186SAPI   O3121329   5.370   0.331   9.730 -0.0768  0.0226 -0.6871
  186SAPI   C3121330   5.255   0.270   9.724 -0.2311  0.5356 -0.0219
  186SAPI   O3221331   5.181   0.250   9.820 -0.2363 -0.1483 -0.0621
  186SAPI   C3221332   5.232   0.213   9.576 -0.4151 -0.2232 -0.2266
  186SAPI   H2X21333   5.330   0.222   9.524  0.4575 -1.3801  1.1797
  186SAPI   H2Y21334   5.165   0.288   9.528 -0.5734  0.4704  1.0640
  186SAPI   C2321335   5.677  -0.003   9.652  0.5587  0.2575 -0.6687
  186SAPI   H3R21336   5.599  -0.076   9.681  0.9877 -0.0455 -0.2800
  186SAPI   H3S21337   5.760  -0.062   9.607  0.5127 -0.2112 -0.1396
  186SAPI   C2421338   5.618   0.109   9.558  0.3043 -0.9787  0.3358
  186SAPI   H4R21339   5.709   0.173   9.553  0.7425 -1.3441  3.1772
  186SAPI   H4S21340   5.545   0.175   9.608  1.5456  1.4251 -0.8893
  186SAPI   C2521341   5.568   0.051   9.429  0.3707 -0.1172 -0.6833
  186SAPI   H5R21342   5.526  -0.050   9.443 -0.5536 -0.0186 -2.6069
  186SAPI   C2621343   5.562   0.109   9.305  0.3962 -0.0630  0.6254
  186SAPI   H6R21344   5.530   0.049   9.218  0.4843  2.6762 -1.3605
  186SAPI   C2721345   5.598   0.249   9.266 -0.0269 -0.1817 -0.7110
  186SAPI   H7R21346   5.651   0.248   9.168  1.4422  4.3273 -0.0590
  186SAPI   H7S21347   5.677   0.301   9.324 -1.4647 -0.5827  1.6661
  186SAPI   C2821348   5.465   0.331   9.267 -0.4716  0.6528 -0.1605
  186SAPI   H8R21349   5.416   0.345   9.365 -0.3316 -3.4241  0.5999
  186SAPI   C2921350   5.390   0.373   9.162  0.4374 -0.2663 -0.6973
  186SAPI   H9R21351   5.300   0.435   9.177  0.8531 -0.3593  2.5176
  186SAPI  C21021352   5.415   0.359   9.014  0.3093  0.3023 -0.9885
  186SAPI  H10R21353   5.339   0.421   8.961  0.4641  1.7239  0.4103
  186SAPI  H10S21354   5.389   0.254   8.990  1.8263 -0.8491  2.1867
  186SAPI  C21121355   5.549   0.395   8.944  0.2624 -0.0463  0.1312
  186SAPI  H11R21356   5.638   0.365   9.002 -0.4594  0.3298  1.4535
  186SAPI  C21221357   5.550   0.468   8.835 -0.0372 -0.6058 -0.5495
  186SAPI  H12R21358   5.646   0.471   8.781  0.3517 -0.0981  0.1734
  186SAPI  C21321359   5.434   0.522   8.748 -0.4405  0.1412  0.2761
  186SAPI  H13R21360   5.470   0.594   8.670  0.8602 -2.5325 -1.6924
  186SAPI  H13S21361   5.359   0.572   8.813 -0.2005 -1.6184  1.9201
  186SAPI  C21421362   5.368   0.419   8.660 -0.5025  0.6154 -0.2439
  186SAPI  H14R21363   5.427   0.333   8.626 -1.4478  0.0584 -0.4812
  186SAPI  C21521364   5.245   0.433   8.604 -0.5943  0.2264  0.8423
  186SAPI  H15R21365   5.205   0.347   8.548  0.5097 -1.0258  1.9362
  186SAPI  C21621366   5.155   0.555   8.619 -0.5516 -0.5523  0.0910
  186SAPI  H16R21367   5.202   0.633   8.683  1.0303 -2.0982  0.8487
  186SAPI  H16S21368   5.070   0.526   8.685 -1.9557  0.0672 -1.4163
  186SAPI  C21721369   5.100   0.613   8.492  0.4187  0.7409  0.0232
  186SAPI  H17R21370   5.183   0.664   8.438  2.1520 -2.1023 -0.1052
  186SAPI  H17S21371   5.033   0.695   8.523 -0.8481 -2.0984  5.4061
  186SAPI  C21821372   5.021   0.508   8.406  0.6084 -0.0471 -0.1828
  186SAPI  H18R21373   4.938   0.477   8.473  0.2899  4.4068  1.6660
  186SAPI  H18S21374   5.080   0.416   8.384 -1.1924 -2.1425  3.3508
  186SAPI  C21921375   4.972   0.564   8.280 -0.2970 -0.7219  1.1645
  186SAPI  H19R21376   4.936   0.668   8.294  2.8466  0.7670 -1.2771
  186SAPI  H19S21377   4.890   0.502   8.236 -0.4465  0.1985  0.1143
  186SAPI  C22021378   5.068   0.573   8.161 -0.5543  0.0897 -0.0457
  186SAPI  H20R21379   5.148   0.640   8.198  1.2280 -1.7209 -0.5323
  186SAPI  H20S21380   5.020   0.617   8.071  0.0712 -0.6504 -0.7525
  186SAPI  H20T21381   5.114   0.474   8.141 -0.1804  0.5105 -1.3229
  186SAPI   C3321382   5.178   0.069   9.565 -0.3600  0.3452 -0.1341
  186SAPI   H3X21383   5.102   0.058   9.645  0.1365 -1.8982  0.0572
  186SAPI   H3Y21384   5.261  -0.002   9.586 -0.0823  1.2287  1.8210
  186SAPI   C3421385   5.112   0.037   9.432  0.1212 -0.3764 -0.8950
  186SAPI   H4X21386   5.043   0.121   9.414  2.6985  2.1835  0.6748
  186SAPI   H4Y21387   5.064  -0.063   9.440 -0.9019  0.1894  0.1205
  186SAPI   C3521388   5.221   0.012   9.326  0.7892 -0.4127  0.3690
  186SAPI   H5X21389   5.262  -0.089   9.349  1.1112  0.1841  2.5825
  186SAPI   H5Y21390   5.303   0.087   9.337 -1.2658  1.8376  0.7558
  186SAPI   C3621391   5.167   0.019   9.179 -0.5598  0.4045  0.5933
  186SAPI   H6X21392   5.148   0.125   9.154  3.0244  1.2046  1.0225
  186SAPI   H6Y21393   5.075  -0.041   9.163 -0.5554  0.2479  1.1304
  186SAPI   C3721394   5.278  -0.022   9.076 -0.1467 -0.3030  0.7618
  186SAPI   H7X21395   5.291  -0.132   9.088 -0.8685 -0.2859  1.7691
  186SAPI   H7Y21396   5.376   0.025   9.097 -0.2895 -0.1956  1.1834
  186SAPI   C3821397   5.250   0.025   8.930 -0.6438 -0.2189  0.0979
  186SAPI   H8X21398   5.261   0.134   8.912  1.2960 -0.4036  0.0434
  186SAPI   H8Y21399   5.146  -0.009   8.910  0.2512 -1.1063 -3.2543
  186SAPI   C3921400   5.339  -0.052   8.836 -0.1197  0.0328 -0.0644
  186SAPI   H9X21401   5.351  -0.157   8.873  2.1218 -0.4287 -2.0402
  186SAPI   H9Y21402   5.440  -0.008   8.840  0.4127 -1.1532 -0.1367
  186SAPI  C31021403   5.280  -0.066   8.700  0.3470  0.3173  0.0752
  186SAPI  H10X21404   5.215   0.021   8.673 -0.6102 -0.7764 -1.2422
  186SAPI  H10Y21405   5.209  -0.152   8.703  1.3651 -0.5473 -0.4078
  186SAPI  C31121406   5.388  -0.090   8.598 -0.6889  0.6569  0.2877
  186SAPI  H11X21407   5.346  -0.100   8.495 -1.3736  2.4298  0.3864
  186SAPI  H11Y21408   5.449  -0.182   8.612 -0.7782  0.8112  1.7617
  186SAPI  C31221409   5.481   0.027   8.573  0.2881 -0.2912 -0.2665
  186SAPI  H12X21410   5.549   0.050   8.658  2.0559 -0.1969 -1.6644
  186SAPI  H12Y21411   5.433   0.126   8.560  0.5036 -0.0093  1.0044
  186SAPI  C31321412   5.570   0.016   8.447 -0.4439  0.2596  0.3471
  186SAPI  H13X21413   5.507   0.007   8.356 -2.3458 -2.4272  1.8585
  186SAPI  H13Y21414   5.627  -0.077   8.463 -0.4191 -0.1732 -2.0638
  186SAPI  C31421415   5.659   0.139   8.419  0.4431  0.5294  0.1216
  186SAPI  H14X21416   5.728   0.141   8.506  0.7493  1.7673 -0.1376
  186SAPI  H14Y21417   5.591   0.226   8.401 -2.2821 -1.6106 -0.2799
  186SAPI  C31521418   5.727   0.131   8.279  0.3471  0.2553 -0.2982
  186SAPI  H15X21419   5.648   0.144   8.202  0.0251 -0.2887 -0.0571
  186SAPI  H15Y21420   5.758   0.024   8.276  1.8809  0.2847  6.4473
  186SAPI  C31621421   5.846   0.219   8.262 -0.7786  0.3715 -0.3187
  186SAPI  H16X21422   5.918   0.189   8.342  1.3385  1.1029 -1.8916
  186SAPI  H16Y21423   5.804   0.321   8.272 -1.2656  0.1279  0.2116
  186SAPI  C31721424   5.908   0.206   8.133 -0.5268  0.4140 -0.3753
  186SAPI  H17X21425   5.837   0.235   8.052  1.0765 -2.0759 -2.7805
  186SAPI  H17Y21426   5.942   0.100   8.128  0.7349  0.8187 -0.5999
  186SAPI  C31821427   6.044   0.287   8.120 -0.1424 -0.2041 -0.7827
  186SAPI  H18X21428   6.120   0.244   8.188  0.2415  1.7984  0.0923
  186SAPI  H18Y21429   6.016   0.388   8.158 -1.4702 -0.2528 -1.5994
  186SAPI  H18Z21430   6.082   0.281   8.016  0.0608  1.0274 -0.7910
  187SAPI   C1221431   0.617   2.038   5.734  0.0374 -0.4879  0.2413
  187SAPI    H221432   0.538   2.109   5.769 -1.2302  0.1607 -3.6444
  187SAPI    O221433   0.632   1.948   5.849  0.3827  0.2454  0.1199
  187SAPI   HO221434   0.612   1.998   5.929  1.3051  0.1979  0.3939
  187SAPI   C1321435   0.563   1.962   5.617 -0.3263  0.3698 -0.1650
  187SAPI    H321436   0.561   2.038   5.535 -0.9516 -1.1513 -1.5854
  187SAPI    O321437   0.429   1.908   5.631 -0.2089  0.4163  0.0445
  187SAPI   HO321438   0.446   1.828   5.681  0.8800  1.1833  0.9262
  187SAPI   C1421439   0.668   1.856   5.566 -0.1748 -0.0496 -0.4504
  187SAPI    H421440   0.686   1.777   5.642  0.5563 -0.7414 -1.3216
  187SAPI    O421441   0.622   1.790   5.448  0.4078  0.6186  0.2733
  187SAPI   HO421442   0.587   1.704   5.471  1.0407  0.3187  0.1381
  187SAPI   C1521443   0.794   1.945   5.541 -0.6584 -0.7332  0.0739
  187SAPI    H521444   0.776   2.031   5.473 -0.5333  0.0938  1.0697
  187SAPI    O521445   0.901   1.869   5.468  0.7878  0.5215 -0.0483
  187SAPI   HO521446   0.869   1.838   5.383  2.4889 -4.3991  0.9454
  187SAPI   C1621447   0.844   2.013   5.667 -0.2514  0.3872  0.4401
  187SAPI    H621448   0.867   1.930   5.738 -1.7113 -1.4295 -1.1250
  187SAPI    O621449   0.966   2.076   5.641  0.8436  0.1527  0.1930
  187SAPI   HO621450   0.979   2.135   5.716 -0.2626 -0.8239  1.1833
  187SAPI   C1121451   0.746   2.111   5.713  0.2510  0.3682  0.3736
  187SAPI    H121452   0.727   2.178   5.626  0.4746  1.0277  0.8319
  187SAPI     P21453   0.807   2.340   5.839  0.1067 -0.0478 -1.0485
  187SAPI   O1321454   0.692   2.399   5.766  0.2959  0.2942 -0.3444
  187SAPI   O1421455   0.940   2.387   5.795 -0.4359 -0.0136 -0.4249
  187SAPI   O1221456   0.794   2.176   5.831 -0.1585  0.3963 -0.2002
  187SAPI   O1121457   0.788   2.360   5.997  0.2165  0.5103 -0.1823
  187SAPI    C121458   0.895   2.373   6.086  0.4953 -0.0986 -0.1569
  187SAPI    HA21459   0.993   2.335   6.049  0.4653 -0.0187 -0.3161
  187SAPI    HB21460   0.909   2.480   6.114  2.1916 -0.0770 -1.0450
  187SAPI    C221461   0.867   2.284   6.204  0.3537 -0.5773  0.6069
  187SAPI    HS21462   0.815   2.196   6.160 -1.8411  1.8772 -1.9255
  187SAPI   O2121463   0.790   2.352   6.307  0.1489 -0.5210  0.6068
  187SAPI   C2121464   0.719   2.264   6.381  0.2695 -0.7561 -0.0423
  187SAPI   O2221465   0.689   2.152   6.344 -0.4577  0.1656 -0.1193
  187SAPI   C2221466   0.690   2.321   6.523 -0.4610 -0.3031  0.4798
  187SAPI   H2R21467   0.786   2.322   6.579  0.2242 -1.7041 -0.6381
  187SAPI   H2S21468   0.652   2.425   6.513  0.5428 -0.1019 -1.4428
  187SAPI    C321469   1.005   2.231   6.263 -1.2320  0.2665 -0.3295
  187SAPI    HX21470   1.056   2.323   6.298 -0.1137 -0.2220 -0.6251
  187SAPI    HY21471   1.071   2.196   6.180 -1.0193  1.0532 -0.4935
  187SAPI   O3121472   0.983   2.144   6.369  0.4402  0.1121  0.2837
  187SAPI   C3121473   0.976   2.016   6.335  0.9609 -0.1487 -0.0365
  187SAPI   O3221474   0.997   1.970   6.222 -0.2887 -0.4138 -0.9305
  187SAPI   C3221475   0.943   1.928   6.457 -0.1354 -0.6781  0.0166
  187SAPI   H2X21476   1.029   1.863   6.484 -1.1160 -1.9290  0.1859
  187SAPI   H2Y21477   0.877   1.849   6.415  1.0593 -0.1110 -3.0908
  187SAPI   C2321478   0.580   2.251   6.597 -0.1868 -0.2550 -0.6598
  187SAPI   H3R21479   0.583   2.140   6.593 -1.7031 -0.3071 -0.7849
  187SAPI   H3S21480   0.482   2.271   6.548 -0.5291 -0.8065 -0.2098
  187SAPI   C2421481   0.561   2.298   6.743 -0.1071 -0.3058  0.6796
  187SAPI   H4R21482   0.651   2.262   6.798 -0.2053 -1.5272  0.0477
  187SAPI   H4S21483   0.477   2.252   6.800  0.4657 -0.8516  1.0847
  187SAPI   C2521484   0.557   2.448   6.749 -0.4900 -0.6454  0.8702
  187SAPI   H5R21485   0.480   2.502   6.691  1.3628  0.8357 -0.2874
  187SAPI   C2621486   0.636   2.526   6.830  0.8216  0.4817 -0.4359
  187SAPI   H6R21487   0.637   2.635   6.812  2.0220  0.3675 -1.1255
  187SAPI   C2721488   0.748   2.474   6.919  0.1009 -0.7611  0.6180
  187SAPI   H7R21489   0.840   2.536   6.914 -0.8339  0.6392  0.4712
  187SAPI   H7S21490   0.783   2.382   6.867 -0.1238 -0.2194 -0.5006
  187SAPI   C2821491   0.720   2.458   7.063 -0.1914  0.4311  0.0493
  187SAPI   H8R21492   0.669   2.363   7.085  1.4892 -1.1567 -2.7017
  187SAPI   C2921493   0.758   2.540   7.164  0.6159 -0.7303 -0.4866
  187SAPI   H9R21494   0.726   2.523   7.268 -3.5279 -0.1398 -1.5752
  187SAPI  C21021495   0.850   2.663   7.148 -0.8648 -0.0032  0.2963
  187SAPI  H10R21496   0.834   2.707   7.047  0.7487  0.6683  0.3152
  187SAPI  H10S21497   0.955   2.629   7.153 -0.1169  2.3287  1.0757
  187SAPI  C21121498   0.827   2.764   7.256  0.0562 -0.0371 -0.5355
  187SAPI  H11R21499   0.759   2.841   7.219 -1.7814 -0.8648  1.0441
  187SAPI  C21221500   0.886   2.772   7.380 -0.2663  0.1374  0.7161
  187SAPI  H12R21501   0.843   2.847   7.447 -2.2078  0.9594 -1.3864
  187SAPI  C21321502   0.989   2.678   7.430 -0.4914  0.8997 -0.1753
  187SAPI  H13R21503   1.011   2.598   7.355 -0.7653  2.3760 -1.8569
  187SAPI  H13S21504   0.940   2.626   7.515 -0.3448  1.7649  0.4361
  187SAPI  C21421505   1.132   2.730   7.478 -0.0233  0.1650  0.0317
  187SAPI  H14R21506   1.185   2.799   7.411 -0.2475 -0.2350 -0.5661
  187SAPI  C21521507   1.204   2.674   7.581 -0.0102  0.1460  0.9279
  187SAPI  H15R21508   1.305   2.715   7.595 -0.4434  1.4452  0.3725
  187SAPI  C21621509   1.170   2.553   7.665  0.0619  0.3376 -0.1672
  187SAPI  H16R21510   1.267   2.503   7.688 -0.3871 -0.3399  0.2474
  187SAPI  H16S21511   1.121   2.481   7.596 -1.5055  1.1190  0.1111
  187SAPI  C21721512   1.082   2.588   7.783 -0.1309  0.0483  0.6469
  187SAPI  H17R21513   0.993   2.640   7.743 -0.6623 -0.5694  1.0275
  187SAPI  H17S21514   1.129   2.650   7.863 -0.8799  1.5606 -0.0733
  187SAPI  C21821515   1.045   2.462   7.856 -0.1462 -1.3035 -0.2614
  187SAPI  H18R21516   1.132   2.410   7.902  1.5709  2.3260  0.7881
  187SAPI  H18S21517   0.997   2.393   7.784 -0.2217 -2.7327  1.1076
  187SAPI  C21921518   0.947   2.478   7.974  0.0416  0.6972  0.1439
  187SAPI  H19R21519   0.860   2.540   7.944  0.6035  1.3944 -0.0890
  187SAPI  H19S21520   1.006   2.534   8.050  2.3341 -0.9003 -0.4147
  187SAPI  C22021521   0.889   2.349   8.028  0.4823 -0.5332  0.2339
  187SAPI  H20R21522   0.971   2.277   8.049 -0.1612 -1.5540 -0.7411
  187SAPI  H20S21523   0.809   2.307   7.963 -0.1504  0.4816  0.3360
  187SAPI  H20T21524   0.833   2.368   8.122 -0.1307 -0.0631 -0.2177
  187SAPI   C3321525   0.870   1.988   6.573  0.1412  0.6033 -0.7102
  187SAPI   H3X21526   0.777   2.032   6.531 -0.5905  0.4384  0.7106
  187SAPI   H3Y21527   0.931   2.074   6.610 -1.6363  1.1248  1.0610
  187SAPI   C3421528   0.859   1.888   6.689 -0.7196  0.0256  0.2443
  187SAPI   H4X21529   0.963   1.855   6.704  0.5454  4.6143  2.4778
  187SAPI   H4Y21530   0.804   1.793   6.671 -1.4799  0.5214 -0.0827
  187SAPI   C3521531   0.800   1.964   6.813 -0.3810  0.1858  0.9019
  187SAPI   H5X21532   0.739   1.900   6.880  0.9737 -2.7369 -0.5143
  187SAPI   H5Y21533   0.735   2.047   6.777  0.2353  1.7100  3.2259
  187SAPI   C3621534   0.901   2.037   6.896 -0.2995  0.8229  0.5395
  187SAPI   H6X21535   0.843   2.094   6.973  0.4982 -0.8540  2.4362
  187SAPI   H6Y21536   0.959   2.112   6.837 -1.1053  0.7831 -0.3072
  187SAPI   C3721537   0.992   1.948   6.983 -0.1194  0.2074 -0.9484
  187SAPI   H7X21538   1.094   1.955   6.941  0.3601  3.6932  0.6565
  187SAPI   H7Y21539   0.962   1.841   6.990  0.3642 -0.0065 -2.0285
  187SAPI   C3821540   1.001   1.989   7.137 -0.2275 -0.3840 -0.3601
  187SAPI   H8X21541   1.046   1.901   7.187  0.3935 -0.7514 -1.5409
  187SAPI   H8Y21542   0.899   2.011   7.176  0.4592  0.7750  0.8175
  187SAPI   C3921543   1.089   2.111   7.163 -0.1734 -0.0586 -0.7141
  187SAPI   H9X21544   1.052   2.200   7.107 -0.7260 -0.0542 -0.3367
  187SAPI   H9Y21545   1.188   2.091   7.116  1.2659  1.8725  1.3653
  187SAPI  C31021546   1.095   2.148   7.317  0.2521  0.3551 -0.1726
  187SAPI  H10X21547   0.995   2.144   7.364 -0.1348  0.1432 -1.0043
  187SAPI  H10Y21548   1.128   2.254   7.321  1.1835  0.0690 -0.0818
  187SAPI  C31121549   1.208   2.082   7.394  0.1972  0.1379  0.3266
  187SAPI  H11X21550   1.291   2.089   7.319 -1.3910  3.4948 -1.2275
  187SAPI  H11Y21551   1.200   1.972   7.411  0.8994  0.3411  2.1119
  187SAPI  C31221552   1.245   2.144   7.527 -0.1748  0.1215 -0.2127
  187SAPI  H12X21553   1.289   2.244   7.508  0.6433 -0.0977  0.4545
  187SAPI  H12Y21554   1.321   2.076   7.572  0.3292 -0.8917 -2.5234
  187SAPI  C31321555   1.127   2.153   7.631 -0.1273 -0.2851  0.1634
  187SAPI  H13X21556   1.047   2.214   7.586 -0.4905 -0.9612 -0.1129
  187SAPI  H13Y21557   1.172   2.213   7.713  0.8504  1.7802 -1.8471
  187SAPI  C31421558   1.074   2.019   7.676  0.2206  0.3509  0.3466
  187SAPI  H14X21559   1.155   1.975   7.737  1.4478  0.3126 -1.2925
  187SAPI  H14Y21560   1.070   1.958   7.584 -2.3477  0.4714  0.3441
  187SAPI  C31521561   0.939   2.038   7.741  0.1769  0.4601  0.0681
  187SAPI  H15X21562   0.868   2.080   7.667  2.2824  0.1784 -2.1745
  187SAPI  H15Y21563   0.928   2.104   7.830  0.0653 -0.9664  1.1250
  187SAPI  C31621564   0.870   1.904   7.772  0.2758 -0.3760 -0.0140
  187SAPI  H16X21565   0.874   1.836   7.684 -1.7861 -1.1363  0.4614
  187SAPI  H16Y21566   0.763   1.932   7.779  0.6206  0.7365  0.9570
  187SAPI  C31721567   0.927   1.817   7.885  1.2128  0.7435 -0.6753
  187SAPI  H17X21568   0.902   1.875   7.977 -2.2376 -1.1856 -0.3059
  187SAPI  H17Y21569   1.038   1.809   7.880  1.4784  3.4196 -0.0145
  187SAPI  C31821570   0.859   1.680   7.894  0.0186  0.0187  0.6324
  187SAPI  H18X21571   0.902   1.623   7.979 -0.1522  2.1509  2.1822
  187SAPI  H18Y21572   0.872   1.623   7.799 -0.4831  0.2185  0.4435
  187SAPI  H18Z21573   0.751   1.679   7.920 -0.4228  0.8338 -1.0952
  188SAPI   C1221574   0.747   5.144   5.687  0.2642 -0.3958 -0.2951
  188SAPI    H221575   0.755   5.079   5.777 -2.7551  0.5630  0.7453
  188SAPI    O221576   0.801   5.082   5.572 -0.0650 -0.6008  0.1919
  188SAPI   HO221577   0.888   5.044   5.589 -0.2243 -0.3444  1.5670
  188SAPI   C1321578   0.601   5.168   5.658 -0.1299  0.3576  0.4490
  188SAPI    H321579   0.556   5.215   5.749  0.8116  1.7991  0.1931
  188SAPI    O321580   0.533   5.048   5.640  0.1159  0.3381  0.2628
  188SAPI   HO321581   0.585   5.000   5.574  1.0594  0.3687  0.9755
  188SAPI   C1421582   0.586   5.260   5.546  0.3968 -0.6199  0.3599
  188SAPI    H421583   0.620   5.217   5.449  1.2667 -2.2353  1.3785
  188SAPI    O421584   0.448   5.284   5.511  0.1446 -0.2284 -0.2510
  188SAPI   HO421585   0.432   5.250   5.423  1.2745 -0.5367 -0.3414
  188SAPI   C1521586   0.652   5.391   5.568 -0.9828  0.3458 -0.4651
  188SAPI    H521587   0.614   5.431   5.665 -1.6393 -0.8498 -0.2233
  188SAPI    O521588   0.628   5.483   5.452  0.2855 -0.3648 -0.4050
  188SAPI   HO521589   0.572   5.557   5.478 -1.8076 -2.1047  0.1808
  188SAPI   C1621590   0.802   5.364   5.586 -0.2755 -0.4900  0.4121
  188SAPI    H621591   0.858   5.318   5.501  0.0549  0.4348  0.1227
  188SAPI    O621592   0.871   5.483   5.612 -0.2919 -0.5957  0.9562
  188SAPI   HO621593   0.952   5.444   5.647 -0.4142 -2.0301 -0.3233
  188SAPI   C1121594   0.826   5.270   5.708 -0.0944 -0.1308 -0.4442
  188SAPI    H121595   0.793   5.323   5.800  1.4353  1.4519 -0.7896
  188SAPI     P21596   1.032   5.189   5.869  0.2580  0.1531  0.0130
  188SAPI   O1321597   1.159   5.120   5.842 -0.0084 -0.4632  0.8219
  188SAPI   O1421598   0.922   5.119   5.948 -0.2837  0.1041  0.3751
  188SAPI   O1221599   0.971   5.248   5.725  0.8494  0.2330  0.1395
  188SAPI   O1121600   1.065   5.323   5.935 -0.0989  0.0248 -0.0344
  188SAPI    C121601   1.028   5.355   6.067  0.0360  0.1090  0.5913
  188SAPI    HA21602   0.944   5.298   6.113 -0.5334  0.1539 -0.3954
  188SAPI    HB21603   1.111   5.329   6.137  0.1110 -2.0973 -0.2514
  188SAPI    C221604   0.992   5.502   6.068  0.2602  0.0256 -0.6876
  188SAPI    HS21605   1.077   5.565   6.035 -0.3312  0.9604 -0.4452
  188SAPI   O2121606   0.997   5.531   6.213  0.7180 -0.1678  0.0712
  188SAPI   C2121607   0.976   5.656   6.237  0.0024 -0.9560  0.0207
  188SAPI   O2221608   0.945   5.744   6.156 -0.2231  0.5737  0.8228
  188SAPI   C2221609   0.990   5.681   6.389 -0.4296 -0.8084  0.8213
  188SAPI   H2R21610   1.082   5.623   6.407 -1.4340 -2.3697  1.0083
  188SAPI   H2S21611   1.018   5.787   6.406 -1.3328 -0.2294 -1.1247
  188SAPI    C321612   0.861   5.532   5.984 -1.0917  0.3383  0.0182
  188SAPI    HX21613   0.888   5.512   5.878  1.4296  0.2754  0.6317
  188SAPI    HY21614   0.821   5.636   5.988 -0.1179  0.6737  2.0123
  188SAPI   O3121615   0.754   5.436   6.010 -0.4255  0.5214 -0.5310
  188SAPI   C3121616   0.686   5.459   6.119  0.0928  0.1561 -0.0832
  188SAPI   O3221617   0.694   5.547   6.197 -0.5722  0.2808  0.4026
  188SAPI   C3221618   0.580   5.348   6.133 -0.0381 -0.2168  0.1109
  188SAPI   H2X21619   0.585   5.293   6.037  0.5246  0.1132 -0.0534
  188SAPI   H2Y21620   0.484   5.403   6.122  1.1293  1.7047 -0.7319
  188SAPI   C2321621   0.866   5.635   6.466  0.8456 -0.3025 -0.5479
  188SAPI   H3R21622   0.829   5.536   6.431  0.1389  0.5437 -2.2337
  188SAPI   H3S21623   0.777   5.699   6.447  2.3069  1.8767 -0.2572
  188SAPI   C2421624   0.888   5.638   6.618 -0.3956 -0.7742  0.6250
  188SAPI   H4R21625   0.791   5.656   6.669 -1.3531  0.9727 -1.6798
  188SAPI   H4S21626   0.935   5.736   6.638 -0.6463 -0.7180  0.9499
  188SAPI   C2521627   0.975   5.535   6.688 -0.0892  0.7944 -0.2264
  188SAPI   H5R21628   1.080   5.533   6.653  0.1425  0.3016  0.5049
  188SAPI   C2621629   0.941   5.456   6.790  0.4640  0.7405 -0.3982
  188SAPI   H6R21630   1.021   5.395   6.836 -0.0440 -0.0249 -0.5094
  188SAPI   C2721631   0.808   5.453   6.862  0.1181  0.0672 -0.1520
  188SAPI   H7R21632   0.767   5.555   6.876 -2.1678 -0.9439  0.6029
  188SAPI   H7S21633   0.831   5.426   6.967 -1.8854  0.6849  0.4646
  188SAPI   C2821634   0.695   5.370   6.795 -0.3610  0.2773  0.3062
  188SAPI   H8R21635   0.700   5.376   6.686  1.9457  2.0160  0.4709
  188SAPI   C2921636   0.603   5.300   6.861 -0.2636  0.4232  0.2537
  188SAPI   H9R21637   0.544   5.232   6.798 -0.8837  0.8109  0.4047
  188SAPI  C21021638   0.604   5.288   7.014 -0.7627  0.4189 -0.3642
  188SAPI  H10R21639   0.531   5.363   7.052  1.1642  1.5571  1.1962
  188SAPI  H10S21640   0.701   5.311   7.063 -0.5792  0.6630 -0.8400
  188SAPI  C21121641   0.566   5.151   7.058 -0.0112  0.1977  0.8702
  188SAPI  H11R21642   0.586   5.069   6.987  0.5677  1.5479 -0.5717
  188SAPI  C21221643   0.504   5.121   7.170 -0.2796 -0.0938  0.2060
  188SAPI  H12R21644   0.488   5.014   7.189 -1.3420 -0.2489 -1.4357
  188SAPI  C21321645   0.466   5.212   7.285  0.0480  0.5859  0.5117
  188SAPI  H13R21646   0.402   5.288   7.236  0.8480  0.2532 -1.0858
  188SAPI  H13S21647   0.546   5.282   7.316 -0.6347  1.9374 -0.6888
  188SAPI  C21421648   0.382   5.152   7.396  0.2949  0.4675 -0.1779
  188SAPI  H14R21649   0.439   5.115   7.483 -1.9635  1.3600  1.7603
  188SAPI  C21521650   0.249   5.141   7.401 -0.5502  0.8314 -0.3418
  188SAPI  H15R21651   0.198   5.110   7.494 -0.2721  0.9433 -0.1481
  188SAPI  C21621652   0.155   5.180   7.287  0.1908 -0.1240 -0.0788
  188SAPI  H16R21653   0.076   5.102   7.274  0.7166 -0.7498  0.4543
  188SAPI  H16S21654   0.202   5.200   7.189 -0.6052 -1.4973 -0.7707
  188SAPI  C21721655   0.073   5.315   7.336  0.2593 -0.2760  0.5160
  188SAPI  H17R21656  -0.005   5.329   7.258  1.1437 -2.3393 -0.7876
  188SAPI  H17S21657   0.146   5.399   7.339 -1.6884  1.4861 -0.3166
  188SAPI  C21821658   0.002   5.295   7.474 -0.2568 -0.2516 -0.1150
  188SAPI  H18R21659   0.088   5.296   7.544 -0.1490  2.4467 -0.2327
  188SAPI  H18S21660  -0.047   5.196   7.483 -0.0637 -0.0851  3.4337
  188SAPI  C21921661  -0.096   5.416   7.503 -0.5406 -0.5074  0.7636
  188SAPI  H19R21662  -0.049   5.512   7.475 -0.9745 -0.2425  0.9355
  188SAPI  H19S21663  -0.104   5.443   7.611  0.9203 -2.1655  1.3114
  188SAPI  C22021664  -0.241   5.382   7.461 -0.5229 -0.2251  0.8334
  188SAPI  H20R21665  -0.235   5.297   7.389  0.1005 -1.2911  2.1274
  188SAPI  H20S21666  -0.288   5.471   7.414 -1.2984 -0.8745  0.3651
  188SAPI  H20T21667  -0.303   5.361   7.550 -1.6567 -1.5562 -0.2467
  188SAPI   C3321668   0.578   5.256   6.258  0.2635 -0.0671 -0.5555
  188SAPI   H3X21669   0.484   5.197   6.254  0.0631  0.3635 -3.1148
  188SAPI   H3Y21670   0.579   5.314   6.353 -0.0619  1.5100 -1.5091
  188SAPI   C3421671   0.702   5.161   6.238  0.1083 -0.2511 -0.1586
  188SAPI   H4X21672   0.787   5.233   6.237 -0.3234  0.2952  1.2379
  188SAPI   H4Y21673   0.695   5.124   6.134 -0.1140 -0.1344 -0.1851
  188SAPI   C3521674   0.735   5.051   6.333 -0.0929 -0.6255 -0.0006
  188SAPI   H5X21675   0.825   5.001   6.291 -0.5543 -1.5568  0.1054
  188SAPI   H5Y21676   0.655   4.975   6.348  1.1181 -2.0899 -0.7908
  188SAPI   C3621677   0.777   5.106   6.470 -0.2196 -0.1180  0.2349
  188SAPI   H6X21678   0.692   5.131   6.536  0.0324 -1.4372  1.0828
  188SAPI   H6Y21679   0.841   5.196   6.455 -1.1081  0.5571  0.4842
  188SAPI   C3721680   0.865   5.013   6.552  0.4263 -0.2562  0.7333
  188SAPI   H7X21681   0.950   4.988   6.485  0.5613 -0.5601  1.0170
  188SAPI   H7Y21682   0.813   4.917   6.575  1.2235 -1.2474 -1.4636
  188SAPI   C3821683   0.917   5.083   6.681  0.9558  0.2264 -0.0067
  188SAPI   H8X21684   0.823   5.122   6.725  1.4114  2.1701 -0.7058
  188SAPI   H8Y21685   0.974   5.171   6.644 -2.8608  2.3133 -1.1517
  188SAPI   C3921686   1.004   5.004   6.778 -0.0071  0.6505 -0.7176
  188SAPI   H9X21687   1.098   4.979   6.726  0.2483 -0.3698  0.2262
  188SAPI   H9Y21688   0.950   4.908   6.792 -0.0296  0.6631 -0.7175
  188SAPI  C31021689   1.048   5.062   6.913  0.1560  0.7779  0.8375
  188SAPI  H10X21690   1.080   5.167   6.894 -0.7675  0.9717  0.2822
  188SAPI  H10Y21691   1.139   5.005   6.942 -1.3056 -2.7721 -1.1454
  188SAPI  C31121692   0.938   5.065   7.024 -0.2246  0.2319  0.1450
  188SAPI  H11X21693   0.900   4.961   7.029 -2.3462  0.8022 -2.6482
  188SAPI  H11Y21694   0.852   5.130   6.994 -0.3933  0.4421  1.0592
  188SAPI  C31221695   0.977   5.117   7.157 -0.4730 -0.2442 -0.8918
  188SAPI  H12X21696   1.070   5.060   7.180 -0.5478  0.1731  0.5233
  188SAPI  H12Y21697   0.900   5.086   7.231 -0.2667  2.2237  0.4068
  188SAPI  C31321698   0.994   5.263   7.160 -0.0612  0.1040 -0.1522
  188SAPI  H13X21699   0.901   5.315   7.129 -0.6932 -0.6221  0.5172
  188SAPI  H13Y21700   1.075   5.301   7.094 -1.3079  2.0344 -0.6167
  188SAPI  C31421701   1.016   5.304   7.305  0.1775 -0.4573 -0.2935
  188SAPI  H14X21702   1.054   5.221   7.368  1.2310 -0.5793 -1.0742
  188SAPI  H14Y21703   0.917   5.321   7.352  0.0657  0.7028 -0.9122
  188SAPI  C31521704   1.098   5.435   7.314  0.1433  0.3571 -0.2007
  188SAPI  H15X21705   1.041   5.520   7.272  0.9695  1.5355  1.0265
  188SAPI  H15Y21706   1.192   5.416   7.257 -0.4441 -3.3256 -0.0706
  188SAPI  C31621707   1.128   5.455   7.466 -0.1220  0.1773  0.0065
  188SAPI  H16X21708   1.198   5.376   7.501 -0.4613  0.3215  1.0151
  188SAPI  H16Y21709   1.031   5.437   7.516 -1.1359 -1.5350 -2.4737
  188SAPI  C31721710   1.179   5.597   7.492 -0.2330 -0.6732 -0.2597
  188SAPI  H17X21711   1.147   5.662   7.408  1.8813  1.9512  0.8969
  188SAPI  H17Y21712   1.289   5.605   7.478 -0.6616  3.3836 -2.0519
  188SAPI  C31821713   1.137   5.673   7.615  0.0543  0.0735  0.0198
  188SAPI  H18X21714   1.165   5.780   7.606  2.1154 -0.3752  0.8546
  188SAPI  H18Y21715   1.170   5.628   7.711 -1.0926 -1.5460 -0.3306
  188SAPI  H18Z21716   1.028   5.668   7.636  0.3608  1.7301  2.2593
  189POPC     N21717   4.196   6.557  10.181  0.2179  0.6254 -0.2696
  189POPC   C1221718   4.192   6.590  10.030  0.1986  0.4382  0.5849
  189POPC  H12A21719   4.293   6.599   9.994  0.0525  1.5269  0.4062
  189POPC  H12B21720   4.140   6.684  10.018 -1.5524 -0.8407 -2.1792
  189POPC   C1321721   4.262   6.422  10.198 -0.2438  0.1037  0.7891
  189POPC  H13A21722   4.201   6.355  10.139  0.2383 -1.7844  2.3839
  189POPC  H13B21723   4.361   6.421  10.155 -1.1226  2.2472 -1.3711
  189POPC  H13C21724   4.251   6.389  10.300  1.8633 -4.4711 -0.3075
  189POPC   C1421725   4.283   6.659  10.260 -0.1783 -0.5952 -0.3887
  189POPC  H14A21726   4.385   6.634  10.238 -0.3795 -0.4529 -1.5499
  189POPC  H14B21727   4.268   6.756  10.214  0.5287 -0.2221  0.1739
  189POPC  H14C21728   4.268   6.655  10.367 -0.1833 -1.8026 -0.4339
  189POPC   C1521729   4.063   6.568  10.246 -0.8167  0.1757  0.0338
  189POPC  H15A21730   3.994   6.503  10.194 -0.3280 -0.6417  0.3872
  189POPC  H15B21731   4.035   6.672  10.252  0.0939  0.5340 -1.8505
  189POPC  H15C21732   4.044   6.535  10.347 -1.7954 -0.5639 -0.3867
  189POPC   C1121733   4.115   6.487   9.936  0.0746  0.1473  0.6166
  189POPC  H11A21734   4.184   6.400   9.926  0.3933  0.3671  0.8937
  189POPC  H11B21735   4.116   6.534   9.835 -0.9613 -2.3625 -0.6046
  189POPC     P21736   3.860   6.556   9.955  0.1028  0.1049 -0.4661
  189POPC   O1321737   3.912   6.698   9.934  0.3616 -0.0169 -0.4575
  189POPC   O1421738   3.761   6.529  10.055 -0.4383  0.0750 -0.8473
  189POPC   O1221739   3.983   6.461   9.983  0.0769 -0.6626 -0.2455
  189POPC   O1121740   3.824   6.489   9.815 -0.6462 -0.2105 -0.4633
  189POPC    C121741   3.786   6.559   9.701 -0.0025 -0.9661 -0.3181
  189POPC    HA21742   3.800   6.669   9.711 -1.4382 -0.9213  1.4290
  189POPC    HB21743   3.679   6.541   9.677 -0.3403 -0.0656  0.4567
  189POPC    C221744   3.882   6.531   9.588 -0.7506 -0.0713  0.4443
  189POPC    HS21745   3.976   6.574   9.629 -1.3497  0.6828  1.0250
  189POPC   O2121746   3.828   6.605   9.473  0.2351  0.1842 -0.6236
  189POPC   C2121747   3.902   6.613   9.368 -0.6095 -0.2895  0.2295
  189POPC   O2221748   4.018   6.573   9.360 -0.2650  0.1440  0.4033
  189POPC   C2221749   3.823   6.694   9.267 -0.6895  0.5746 -0.0611
  189POPC   H2R21750   3.810   6.794   9.312  1.1452 -0.9845  4.1905
  189POPC   H2S21751   3.722   6.657   9.239  0.1840 -0.7713 -1.5214
  189POPC    C321752   3.898   6.373   9.572 -0.2735 -0.3291  0.3985
  189POPC    HX21753   3.945   6.330   9.662 -0.9136 -0.6527  0.5809
  189POPC    HY21754   3.961   6.362   9.481 -1.4035  2.5557 -0.8278
  189POPC   O3121755   3.770   6.325   9.540  0.5462 -0.7747 -0.0313
  189POPC   C3121756   3.752   6.197   9.592  0.7695 -0.8765  0.4759
  189POPC   O3221757   3.842   6.124   9.634  0.0239 -0.5963  0.3733
  189POPC   C3221758   3.604   6.163   9.589 -0.9182  0.4029  0.7766
  189POPC   H2X21759   3.571   6.196   9.488 -0.7885 -0.8902  0.3062
  189POPC   H2Y21760   3.537   6.212   9.663 -1.6692 -0.7624  0.8768
  189POPC   C2321761   3.902   6.719   9.133 -1.0397  0.0342 -0.3198
  189POPC   H3R21762   3.903   6.622   9.079 -1.0842 -0.2562  0.1980
  189POPC   H3S21763   4.002   6.752   9.167 -1.2891  1.2799 -0.7726
  189POPC   C2421764   3.827   6.812   9.039 -0.3717 -0.9537 -0.1741
  189POPC   H4R21765   3.851   6.918   9.064  0.5141 -0.8153 -1.5659
  189POPC   H4S21766   3.717   6.805   9.028 -0.0204 -1.0824 -4.4710
  189POPC   C2521767   3.869   6.796   8.888  0.2788  0.6025  0.5161
  189POPC   H5R21768   3.838   6.695   8.853 -2.6861  1.3365  0.8547
  189POPC   H5S21769   3.978   6.812   8.871  0.1446  0.2603 -0.7560
  189POPC   C2621770   3.795   6.897   8.793  0.0424 -0.3437 -0.2342
  189POPC   H6R21771   3.828   6.996   8.831 -0.8975 -0.2070  0.2475
  189POPC   H6S21772   3.686   6.883   8.809 -0.5520  0.0186 -3.6989
  189POPC   C2721773   3.835   6.878   8.649  0.5816  0.1186 -0.2946
  189POPC   H7R21774   3.838   6.772   8.617  5.6637  0.0273  0.1008
  189POPC   H7S21775   3.939   6.916   8.650  1.4758 -2.1234  3.8682
  189POPC   C2821776   3.749   6.953   8.557  0.2151 -0.3826 -0.2889
  189POPC   H8R21777   3.750   7.056   8.598 -0.3165  0.3872 -2.1705
  189POPC   H8S21778   3.647   6.909   8.565 -0.0446 -0.4629 -3.4119
  189POPC   C2921779   3.768   6.951   8.407  0.0854  0.8557  0.2219
  189POPC   H9121780   3.680   6.975   8.345  1.0029  1.7434 -0.7504
  189POPC  C21021781   3.879   6.921   8.338 -0.2835 -0.0133  0.4662
  189POPC  H10121782   3.862   6.910   8.230 -0.0657  1.6199  0.2563
  189POPC  C21121783   4.019   6.885   8.371  0.3301 -0.2098  0.2998
  189POPC  H11R21784   4.040   6.777   8.352 -0.5638 -0.8653  2.7912
  189POPC  H11S21785   4.045   6.898   8.479 -0.4166 -0.8588  0.5673
  189POPC  C21221786   4.117   6.970   8.291  0.6136 -0.5991  0.7387
  189POPC  H12R21787   4.210   6.944   8.345  1.8690 -0.2315 -1.2080
  189POPC  H12S21788   4.095   7.079   8.293 -2.9907 -1.2593  2.1799
  189POPC  C21321789   4.135   6.930   8.140 -0.0991 -0.2061  0.4190
  189POPC  H13R21790   4.048   6.956   8.075 -1.1615  1.6691  2.4963
  189POPC  H13S21791   4.142   6.820   8.135 -0.1821 -0.1056 -2.6127
  189POPC  C21421792   4.269   6.991   8.083 -0.1045  0.8021 -0.4946
  189POPC  H14R21793   4.348   6.961   8.155 -0.1108  0.6157 -0.5659
  189POPC  H14S21794   4.255   7.101   8.091  0.7395  0.7542  2.4372
  189POPC  C21521795   4.316   6.937   7.945 -0.7011  0.3760  0.1411
  189POPC  H15R21796   4.232   6.943   7.872 -0.2402  1.9185 -0.2772
  189POPC  H15S21797   4.335   6.828   7.958  1.4034  1.0269  3.1283
  189POPC  C21621798   4.441   7.005   7.888 -0.0539  0.3446 -0.4365
  189POPC  H16R21799   4.528   6.977   7.952 -0.4360  1.1108  0.4378
  189POPC  H16S21800   4.426   7.114   7.899 -1.6361  0.0084  0.9763
  189POPC  C21721801   4.475   6.966   7.744  0.6999 -0.0355  1.2335
  189POPC  H17R21802   4.386   7.001   7.688  1.0309  0.4372  0.9979
  189POPC  H17S21803   4.478   6.855   7.734  1.7886  0.0549  0.4438
  189POPC  C21821804   4.602   7.035   7.695  0.1761  0.3506 -0.3706
  189POPC  H18R21805   4.672   7.045   7.781 -1.2462  0.4505  0.7835
  189POPC  H18S21806   4.571   7.138   7.665 -0.4953  0.4512  0.6449
  189POPC  H18T21807   4.656   6.976   7.618  2.6959 -1.6885  2.8719
  189POPC   C3321808   3.585   6.011   9.611 -0.4049  0.0651  0.5592
  189POPC   H3X21809   3.478   5.984   9.611 -0.6643  0.9593 -1.6876
  189POPC   H3Y21810   3.633   5.981   9.707  3.0716  1.3013 -0.7003
  189POPC   C3421811   3.649   5.924   9.506 -0.0466  0.5307 -0.3115
  189POPC   H4X21812   3.643   5.818   9.538  1.0402  0.7091  0.5129
  189POPC   H4Y21813   3.759   5.933   9.501 -0.1695  2.1938 -0.3288
  189POPC   C3521814   3.596   5.944   9.365 -0.2522  0.0225  0.6593
  189POPC   H5X21815   3.593   6.051   9.335  0.4311 -1.0019 -3.3275
  189POPC   H5Y21816   3.492   5.909   9.353  0.5417 -2.4009  0.5551
  189POPC   C3621817   3.670   5.850   9.269 -0.0367  0.1804  0.1904
  189POPC   H6X21818   3.647   5.748   9.306  1.1515  0.4707  1.7841
  189POPC   H6Y21819   3.780   5.861   9.272  0.2962 -3.0158  2.6653
  189POPC   C3721820   3.614   5.859   9.126 -0.2656  0.5928 -0.3490
  189POPC   H7X21821   3.624   5.966   9.097  0.4754  0.2927 -1.2414
  189POPC   H7Y21822   3.504   5.841   9.119 -0.3048 -0.0444  1.6921
  189POPC   C3821823   3.674   5.771   9.012 -0.6127  0.0196 -0.4537
  189POPC   H8X21824   3.614   5.794   8.922 -0.8407  0.1599 -0.2663
  189POPC   H8Y21825   3.654   5.664   9.035 -2.2496  0.4037 -0.0827
  189POPC   C3921826   3.823   5.797   8.991 -0.4305  0.3548  0.0128
  189POPC   H9X21827   3.874   5.780   9.088 -1.7208 -2.0398  0.3015
  189POPC   H9Y21828   3.835   5.904   8.961  1.8858  0.7317  2.1758
  189POPC  C31021829   3.871   5.696   8.887 -0.5157 -0.4080  0.1529
  189POPC  H10X21830   3.867   5.589   8.920 -1.4993 -0.5320 -0.3445
  189POPC  H10Y21831   3.976   5.721   8.862 -0.1096  1.5013  3.4692
  189POPC  C31121832   3.796   5.708   8.754  0.2633  0.3468 -0.4032
  189POPC  H11X21833   3.800   5.809   8.707 -0.5855  0.7042  0.2872
  189POPC  H11Y21834   3.690   5.677   8.771  0.1561 -0.7498 -2.7478
  189POPC  C31221835   3.864   5.620   8.647  0.2273  0.0662  0.3876
  189POPC  H12X21836   3.861   5.513   8.674  1.6527  0.6684  3.1263
  189POPC  H12Y21837   3.972   5.646   8.658  0.1826 -0.7467  3.1835
  189POPC  C31321838   3.801   5.642   8.510 -0.4177  0.1160  0.9837
  189POPC  H13X21839   3.848   5.730   8.462  0.5612  0.2746  2.2109
  189POPC  H13Y21840   3.691   5.646   8.527 -0.9470  0.8906 -2.3828
  189POPC  C31421841   3.832   5.524   8.414  0.0244 -0.9494  0.6921
  189POPC  H14X21842   3.806   5.573   8.318 -0.4688 -1.2984  0.6393
  189POPC  H14Y21843   3.767   5.437   8.439 -0.9189  0.1111  1.9879
  189POPC  C31521844   3.969   5.473   8.408  0.8653  0.0614 -0.3089
  189POPC  H15X21845   3.965   5.382   8.344 -1.2079 -0.5659  0.6801
  189POPC  H15Y21846   4.009   5.441   8.507 -0.5021  4.0425  1.5855
  189POPC  C31621847   4.072   5.568   8.350  0.3540 -0.1849  0.1402
  189POPC  H16X21848   4.045   5.614   8.253  1.1969  0.9850  0.4475
  189POPC  H16Y21849   4.174   5.524   8.335  0.2190  0.1735 -1.9728
  189POPC  H16Z21850   4.076   5.660   8.411  2.0016 -1.3420  1.8695
  190POPC     N21851   6.350   2.525  10.105 -0.7821  0.5687 -0.2371
  190POPC   C1221852   6.266   2.620  10.016 -0.0040  0.1990 -0.2026
  190POPC  H12A21853   6.270   2.721  10.053 -0.7894  0.6949 -1.4246
  190POPC  H12B21854   6.165   2.584  10.012  0.2882 -0.5672 -0.9250
  190POPC   C1321855   6.343   2.382  10.047 -0.4121 -0.6399  0.0998
  190POPC  H13A21856   6.415   2.320  10.097 -0.8903 -0.0438  1.5589
  190POPC  H13B21857   6.242   2.342  10.047 -0.2770 -0.9890  0.8887
  190POPC  H13C21858   6.369   2.399   9.943  1.7068 -0.5705  0.6255
  190POPC   C1421859   6.486   2.582  10.127  0.2080  0.0488  0.3175
  190POPC  H14A21860   6.539   2.546  10.214  1.4180  1.4483  0.1793
  190POPC  H14B21861   6.546   2.571  10.038  2.8340 -1.0857  2.1523
  190POPC  H14C21862   6.473   2.689  10.135 -2.3552 -0.0831 -1.4148
  190POPC   C1521863   6.267   2.529  10.230  0.0981  0.0138  0.1772
  190POPC  H15A21864   6.170   2.483  10.217 -0.2667  0.9763 -0.5572
  190POPC  H15B21865   6.261   2.630  10.268 -0.2431  0.4372 -0.9945
  190POPC  H15C21866   6.314   2.468  10.306  1.0315 -1.1686 -1.3273
  190POPC   C1121867   6.309   2.630   9.867 -0.7146 -0.5550  0.2076
  190POPC  H11A21868   6.233   2.688   9.810 -1.6873  0.4479  2.4688
  190POPC  H11B21869   6.312   2.535   9.808 -1.7051 -0.0918 -0.6225
  190POPC     P21870   6.444   2.855   9.871  0.1277  0.2918 -0.2481
  190POPC   O1321871   6.451   2.877  10.017 -0.1708  0.7439  0.1850
  190POPC   O1421872   6.337   2.922   9.791 -0.1426 -0.3172  0.1608
  190POPC   O1221873   6.433   2.694   9.851 -0.1361 -0.3065  0.0357
  190POPC   O1121874   6.585   2.893   9.811 -0.0824  0.1410  0.1935
  190POPC    C121875   6.660   2.808   9.733 -0.1951 -0.3609 -0.7374
  190POPC    HA21876   6.663   2.704   9.773 -1.1380 -0.0185  0.2480
  190POPC    HB21877   6.763   2.849   9.725 -0.4443  1.0432  2.3932
  190POPC    C221878   6.620   2.795   9.586 -0.1061 -0.3076  0.0965
  190POPC    HS21879   6.526   2.737   9.573  0.6850 -1.3167 -1.2796
  190POPC   O2121880   6.723   2.730   9.509 -0.8920 -0.0873  0.8791
  190POPC   C2121881   6.721   2.600   9.505 -0.6717 -0.2096 -0.0116
  190POPC   O2221882   6.644   2.530   9.577 -0.2481 -0.4265 -0.4687
  190POPC   C2221883   6.808   2.548   9.385  0.4356 -0.2691 -0.0414
  190POPC   H2R21884   6.876   2.470   9.427  1.4218  0.9869  0.7544
  190POPC   H2S21885   6.860   2.631   9.333 -1.0082 -0.1180 -1.2609
  190POPC    C321886   6.607   2.940   9.525  0.0559 -0.0810 -0.1827
  190POPC    HX21887   6.701   2.994   9.553 -0.1700  0.9737 -1.4193
  190POPC    HY21888   6.527   3.001   9.574 -0.0149 -0.3475  0.0329
  190POPC   O3121889   6.609   2.948   9.380 -0.6343  0.3784  0.1203
  190POPC   C3121890   6.495   2.945   9.313 -0.0013  0.0330 -0.2328
  190POPC   O3221891   6.382   2.932   9.365  0.5391  0.0304  0.0840
  190POPC   C3221892   6.526   2.969   9.167 -0.1862 -0.0521 -0.4572
  190POPC   H2X21893   6.599   3.052   9.160 -0.4202  0.0850 -1.2561
  190POPC   H2Y21894   6.433   3.003   9.117 -0.8366 -1.1573 -0.0316
  190POPC   C2321895   6.721   2.481   9.279  0.3396 -0.8680 -0.0593
  190POPC   H3R21896   6.672   2.559   9.218  2.1795  0.8768  0.6077
  190POPC   H3S21897   6.653   2.411   9.330  1.0556 -0.7625  1.0734
  190POPC   C2421898   6.791   2.390   9.183 -0.3751 -0.2092 -0.5392
  190POPC   H4R21899   6.727   2.303   9.154  1.7331 -2.0320  0.1828
  190POPC   H4S21900   6.888   2.364   9.229 -0.1779 -0.0512 -0.8690
  190POPC   C2521901   6.844   2.454   9.054  0.2425 -0.2374  0.6126
  190POPC   H5R21902   6.915   2.539   9.069  0.6848 -0.5426  0.2593
  190POPC   H5S21903   6.751   2.490   9.007 -0.0833 -1.1826  0.5220
  190POPC   C2621904   6.908   2.354   8.962  0.4600 -0.1239 -0.5910
  190POPC   H6R21905   6.831   2.296   8.906 -0.3911  1.2626 -0.8622
  190POPC   H6S21906   6.967   2.277   9.015  0.6203  0.6853  0.4062
  190POPC   C2721907   7.003   2.408   8.850 -0.3732  0.4167 -0.7045
  190POPC   H7R21908   7.043   2.316   8.802  0.7402  0.9913 -0.9213
  190POPC   H7S21909   7.084   2.467   8.898  0.9585 -0.4445 -1.8566
  190POPC   C2821910   6.934   2.516   8.760  0.2322  0.4209  0.9194
  190POPC   H8R21911   7.009   2.545   8.683 -0.3658  1.5155  0.7361
  190POPC   H8S21912   6.905   2.616   8.799 -1.4181 -0.4722  2.0318
  190POPC   C2921913   6.809   2.449   8.702  0.1215 -0.3999  0.6691
  190POPC   H9121914   6.724   2.423   8.767 -1.5098  0.1010 -1.1793
  190POPC  C21021915   6.793   2.430   8.571  0.4661 -0.3804  0.1532
  190POPC  H10121916   6.697   2.394   8.530  0.0071  0.8814  0.0987
  190POPC  C21121917   6.884   2.465   8.456 -0.4932 -0.0117 -0.9606
  190POPC  H11R21918   6.945   2.377   8.427  2.2442  0.0250  4.1721
  190POPC  H11S21919   6.971   2.519   8.499 -1.0006 -0.1441  0.2526
  190POPC  C21221920   6.821   2.526   8.334  0.8585  0.0928 -0.1346
  190POPC  H12R21921   6.750   2.461   8.279  1.2850  0.6287 -1.3461
  190POPC  H12S21922   6.904   2.543   8.262 -0.8328  0.1017 -2.1469
  190POPC  C21321923   6.754   2.662   8.357  0.1616  0.2510  0.4404
  190POPC  H13R21924   6.830   2.717   8.417  1.5586 -0.0308 -1.0412
  190POPC  H13S21925   6.657   2.657   8.411  0.6075 -0.2076  1.2277
  190POPC  C21421926   6.735   2.732   8.225 -0.0226 -0.4595 -0.5575
  190POPC  H14R21927   6.829   2.748   8.168  0.4353 -0.3130  0.2374
  190POPC  H14S21928   6.706   2.834   8.259 -1.4540 -1.1099  0.2194
  190POPC  C21521929   6.627   2.658   8.146  0.4082  0.0335  0.5626
  190POPC  H15R21930   6.548   2.613   8.210  0.3971  0.2981  0.7307
  190POPC  H15S21931   6.662   2.560   8.105  0.7789 -0.4283  1.9700
  190POPC  C21621932   6.572   2.749   8.039 -0.3073 -0.0386 -1.0288
  190POPC  H16R21933   6.645   2.797   7.971 -1.1262  1.6961 -0.7042
  190POPC  H16S21934   6.526   2.839   8.085  1.3314  0.5252 -0.4706
  190POPC  C21721935   6.467   2.675   7.961 -0.0525  0.4589 -0.7120
  190POPC  H17R21936   6.400   2.744   7.906  2.4626  2.3890 -1.4161
  190POPC  H17S21937   6.400   2.620   8.031 -1.8606 -1.0488 -3.5015
  190POPC  C21821938   6.515   2.558   7.872  0.0355  0.8733 -0.3540
  190POPC  H18R21939   6.616   2.580   7.833 -0.0163  1.0619 -0.3817
  190POPC  H18S21940   6.440   2.538   7.793  0.4363  0.6368 -0.6760
  190POPC  H18T21941   6.542   2.476   7.943 -1.8331  0.5031 -0.0431
  190POPC   C3321942   6.578   2.840   9.105  0.4295  0.2786 -0.1814
  190POPC   H3X21943   6.515   2.754   9.138  0.8319 -0.2209 -0.6913
  190POPC   H3Y21944   6.687   2.830   9.123  0.0889 -1.5833  1.0462
  190POPC   C3421945   6.555   2.855   8.955  0.7811 -0.7466 -0.0819
  190POPC   H4X21946   6.606   2.948   8.922 -0.2563  0.4853  1.6795
  190POPC   H4Y21947   6.445   2.868   8.942  0.6789  0.2088  1.6929
  190POPC   C3521948   6.611   2.744   8.873  0.1658  0.5395  0.1002
  190POPC   H5X21949   6.569   2.645   8.900  1.5203 -0.7309 -2.3505
  190POPC   H5Y21950   6.720   2.734   8.889  0.0754  1.9151  1.7148
  190POPC   C3621951   6.585   2.767   8.725 -1.1128  0.1039  0.4495
  190POPC   H6X21952   6.647   2.687   8.679 -1.8386  0.8739 -1.9648
  190POPC   H6Y21953   6.622   2.867   8.693  1.7268 -0.9150  0.3850
  190POPC   C3721954   6.437   2.747   8.689  0.2391  0.2286  0.8456
  190POPC   H7X21955   6.378   2.840   8.706  0.4374  0.8901 -1.7848
  190POPC   H7Y21956   6.391   2.663   8.745 -0.2146  1.4472  2.3331
  190POPC   C3821957   6.414   2.741   8.536 -0.2050  0.2454 -0.1485
  190POPC   H8X21958   6.462   2.652   8.488 -0.3129  0.8131 -1.3288
  190POPC   H8Y21959   6.461   2.832   8.492  1.9028  0.7621  3.0181
  190POPC   C3921960   6.264   2.732   8.499 -0.0499  0.4230  0.1990
  190POPC   H9X21961   6.237   2.837   8.473  1.7893  1.3058  1.8256
  190POPC   H9Y21962   6.208   2.705   8.591  0.3098 -0.8775  0.0446
  190POPC  C31021963   6.231   2.633   8.382 -0.3162 -0.2608 -0.2988
  190POPC  H10X21964   6.277   2.534   8.403 -1.0828 -0.8645 -1.3897
  190POPC  H10Y21965   6.256   2.689   8.289 -1.3757 -0.4814 -0.7249
  190POPC  C31121966   6.083   2.613   8.378  0.3364  0.2171  0.2253
  190POPC  H11X21967   6.024   2.708   8.384  1.9496  1.2788 -0.2728
  190POPC  H11Y21968   6.058   2.570   8.477 -1.5704  1.8100  0.4915
  190POPC  C31221969   6.038   2.513   8.269  0.2864  0.4854 -0.2335
  190POPC  H12X21970   5.949   2.463   8.313  1.3852  0.8729  2.5622
  190POPC  H12Y21971   6.108   2.429   8.250 -0.9270 -1.1664  2.3182
  190POPC  C31321972   6.015   2.574   8.131 -0.3317  0.0529  0.0291
  190POPC  H13X21973   6.030   2.498   8.050  0.5741  0.9348 -0.6404
  190POPC  H13Y21974   6.090   2.655   8.125 -0.2878 -0.0643 -1.3200
  190POPC  C31421975   5.870   2.626   8.131  0.3320 -0.1229 -0.0632
  190POPC  H14X21976   5.854   2.689   8.222 -2.1366 -0.7073 -0.0720
  190POPC  H14Y21977   5.803   2.538   8.141 -0.0609  0.1785 -0.0594
  190POPC  C31521978   5.834   2.695   7.999  0.0404  0.7749 -0.2062
  190POPC  H15X21979   5.932   2.736   7.968  0.2423  0.0814 -0.4874
  190POPC  H15Y21980   5.757   2.774   8.015  0.8661  1.7766 -1.1253
  190POPC  C31621981   5.783   2.589   7.902  0.3734  0.2498 -0.6731
  190POPC  H16X21982   5.695   2.539   7.947  2.5105 -0.7671  2.5340
  190POPC  H16Y21983   5.863   2.511   7.901 -0.2445 -0.4084 -0.0568
  190POPC  H16Z21984   5.766   2.640   7.805  2.8090 -1.0139 -1.8289
  191POPC     N21985   4.336   4.526   5.869 -0.1913 -0.0713  0.0815
  191POPC   C1221986   4.208   4.461   5.926  0.0228 -0.2562  0.2135
  191POPC  H12A21987   4.204   4.363   5.881  4.7117  0.3746 -1.9289
  191POPC  H12B21988   4.115   4.499   5.886  0.5507  0.8189 -0.0060
  191POPC   C1321989   4.450   4.434   5.901  0.6849  0.3541 -0.2295
  191POPC  H13A21990   4.481   4.458   6.001 -1.0177 -2.4662  1.0207
  191POPC  H13B21991   4.431   4.328   5.898  0.9504  0.1854  2.8181
  191POPC  H13C21992   4.537   4.459   5.842  0.8344  2.7721  0.9372
  191POPC   C1421993   4.315   4.526   5.722 -0.2268 -0.5144  0.3457
  191POPC  H14A21994   4.232   4.588   5.691 -0.0434 -0.0295  0.8175
  191POPC  H14B21995   4.397   4.566   5.664  0.8542  1.5343  3.2024
  191POPC  H14C21996   4.296   4.424   5.690  1.3087 -1.0021  0.9434
  191POPC   C1521997   4.371   4.662   5.918  0.8522 -0.3515  0.1281
  191POPC  H15A21998   4.297   4.729   5.876  1.9149  0.3401 -0.6614
  191POPC  H15B21999   4.462   4.693   5.868  0.0240 -2.2208 -2.6380
  191POPC  H15C22000   4.388   4.665   6.025 -3.6868  0.9290  0.9208
  191POPC   C1122001   4.198   4.445   6.081  0.3523 -0.1190 -0.1187
  191POPC  H11A22002   4.102   4.390   6.095  0.1791  0.4626  1.0264
  191POPC  H11B22003   4.190   4.545   6.130 -1.0452  0.8526 -2.2312
  191POPC     P22004   4.290   4.207   6.134  0.2540  0.0268  0.1440
  191POPC   O1322005   4.350   4.157   6.012 -0.1507  0.3267  0.6404
  191POPC   O1422006   4.153   4.159   6.175 -0.7413 -0.2618  0.0688
  191POPC   O1222007   4.302   4.367   6.136 -0.1226 -0.1081 -0.0675
  191POPC   O1122008   4.383   4.165   6.256 -0.4288  0.0136 -0.4685
  191POPC    C122009   4.528   4.187   6.239  0.6225  0.1866  0.3168
  191POPC    HA22010   4.572   4.204   6.339  0.2569  2.8790  0.0655
  191POPC    HB22011   4.562   4.269   6.172  2.0937 -1.0579 -0.4984
  191POPC    C222012   4.599   4.064   6.193 -0.4693  0.5305 -0.0571
  191POPC    HS22013   4.531   4.030   6.111 -0.1102  1.4113 -0.7280
  191POPC   O2122014   4.606   3.978   6.308 -0.3080 -0.5257 -0.4851
  191POPC   C2122015   4.581   3.845   6.277 -0.0288 -1.0518  0.1418
  191POPC   O2222016   4.564   3.804   6.163  0.2221 -0.4560  0.5306
  191POPC   C2222017   4.590   3.757   6.407 -1.2211 -0.2624 -0.1840
  191POPC   H2R22018   4.485   3.729   6.427 -0.8411 -0.3526  1.7087
  191POPC   H2S22019   4.634   3.817   6.490  0.3085 -1.4662 -0.1034
  191POPC    C322020   4.739   4.091   6.123  0.5862  1.0142  0.2581
  191POPC    HX22021   4.731   4.178   6.055 -0.7179  1.0862  0.4946
  191POPC    HY22022   4.761   3.997   6.067 -0.3942  1.4411 -0.8593
  191POPC   O3122023   4.837   4.126   6.223 -0.1627  0.9022  0.2065
  191POPC   C3122024   4.903   4.013   6.269  0.1453  0.0643  0.1118
  191POPC   O3222025   4.880   3.897   6.241 -0.3587  0.6299 -0.2443
  191POPC   C3222026   4.977   4.056   6.398  0.3370  0.2241 -0.3732
  191POPC   H2X22027   4.931   4.148   6.439 -0.0941  0.6004 -1.6829
  191POPC   H2Y22028   5.080   4.082   6.366  0.5189 -0.9165 -0.7521
  191POPC   C2322029   4.681   3.631   6.370 -0.4070  0.6770 -0.2767
  191POPC   H3R22030   4.755   3.664   6.293  0.3732 -0.4822 -0.0348
  191POPC   H3S22031   4.606   3.558   6.331 -0.5299  0.9974 -0.6434
  191POPC   C2422032   4.752   3.565   6.488 -1.0113  0.5271 -0.2524
  191POPC   H4R22033   4.809   3.647   6.537 -3.0702  1.8857 -0.0774
  191POPC   H4S22034   4.820   3.485   6.451  0.0070  1.4629 -0.4272
  191POPC   C2522035   4.655   3.512   6.592 -0.3258 -0.4263 -0.8099
  191POPC   H5R22036   4.584   3.446   6.538 -3.4859  0.5549  2.0210
  191POPC   H5S22037   4.599   3.593   6.643  0.2876  1.7464 -3.5125
  191POPC   C2622038   4.741   3.443   6.702  0.5390 -0.5071 -0.8372
  191POPC   H6R22039   4.818   3.377   6.657  0.4775 -1.7902  0.9116
  191POPC   H6S22040   4.677   3.366   6.750  0.7207  0.7689  1.4899
  191POPC   C2722041   4.817   3.537   6.806  0.3164 -0.7350  0.6981
  191POPC   H7R22042   4.873   3.612   6.746 -1.0393  1.3535  2.0099
  191POPC   H7S22043   4.893   3.474   6.859  0.8228  0.5895  1.5557
  191POPC   C2822044   4.725   3.612   6.899 -0.0906 -1.2489  0.1736
  191POPC   H8R22045   4.669   3.539   6.962 -1.0154 -0.7921 -0.1125
  191POPC   H8S22046   4.641   3.644   6.834  0.6706  0.8718  0.2153
  191POPC   C2922047   4.768   3.732   6.973 -0.4004 -0.0500  0.0698
  191POPC   H9122048   4.806   3.814   6.911  1.2699 -0.7677  0.1098
  191POPC  C21022049   4.770   3.747   7.100  0.4837  0.0349 -0.0010
  191POPC  H10122050   4.792   3.849   7.133 -1.4875 -0.0873  1.8018
  191POPC  C21122051   4.714   3.649   7.203  0.5513  0.3221  0.0674
  191POPC  H11R22052   4.691   3.545   7.172  0.5024  0.2066  0.4951
  191POPC  H11S22053   4.615   3.691   7.233  1.6371  2.6186  0.4919
  191POPC  C21222054   4.790   3.652   7.337 -0.0311 -0.0824  0.1365
  191POPC  H12R22055   4.728   3.604   7.416 -0.5071  0.8661  0.3605
  191POPC  H12S22056   4.815   3.753   7.377  0.5342  0.0462 -0.5319
  191POPC  C21322057   4.921   3.586   7.324 -0.8018  0.4458  0.5575
  191POPC  H13R22058   4.990   3.661   7.279  0.2496  0.3559  1.9563
  191POPC  H13S22059   4.920   3.490   7.269  5.0646  0.1190  0.6159
  191POPC  C21422060   4.980   3.557   7.462 -0.0914 -0.2598  0.5873
  191POPC  H14R22061   5.028   3.457   7.466  0.7551  0.1780  2.4140
  191POPC  H14S22062   4.896   3.529   7.529 -0.2479 -1.5884 -0.1513
  191POPC  C21522063   5.070   3.658   7.532  0.4327  0.9379 -0.5303
  191POPC  H15R22064   5.011   3.750   7.552  0.0815  0.5011  0.5197
  191POPC  H15S22065   5.158   3.695   7.475  0.8044  1.2250  0.2171
  191POPC  C21622066   5.124   3.602   7.663  0.1660 -0.6302 -0.7193
  191POPC  H16R22067   5.212   3.538   7.641 -1.0942 -1.4630 -3.6678
  191POPC  H16S22068   5.057   3.521   7.701  1.2643 -1.8697 -1.3793
  191POPC  C21722069   5.148   3.709   7.766 -0.7380 -0.2978  0.5529
  191POPC  H17R22070   5.070   3.788   7.753  0.8725  1.3003  0.2921
  191POPC  H17S22071   5.240   3.768   7.748 -0.7105  0.0060  1.7026
  191POPC  C21822072   5.147   3.650   7.903 -0.5843 -0.1071 -0.1766
  191POPC  H18R22073   5.176   3.717   7.987 -2.0167  0.6270 -0.2576
  191POPC  H18S22074   5.226   3.572   7.913  0.1595  0.5950 -0.4721
  191POPC  H18T22075   5.044   3.617   7.929 -0.2743 -0.9923 -0.0422
  191POPC   C3322076   4.982   3.944   6.509 -0.5709  0.4424  0.2159
  191POPC   H3X22077   5.048   3.860   6.477 -3.3837 -2.7571  2.5269
  191POPC   H3Y22078   4.890   3.882   6.511 -0.6317  0.4967 -0.7561
  191POPC   C3422079   5.014   4.003   6.646  0.1058 -0.6315 -0.1461
  191POPC   H4X22080   4.919   4.052   6.676  0.8556  0.1368  1.0145
  191POPC   H4Y22081   5.091   4.082   6.634  0.4971 -1.1201 -0.8808
  191POPC   C3522082   5.072   3.900   6.748  0.9438  0.0898  0.2327
  191POPC   H5X22083   5.157   3.840   6.710  0.9783 -0.1733  0.7234
  191POPC   H5Y22084   4.990   3.829   6.775 -0.6841  2.4982  1.8120
  191POPC   C3622085   5.119   3.962   6.875  0.2345 -0.1986 -0.8827
  191POPC   H6X22086   5.042   4.000   6.945  2.5129 -1.2311  2.3009
  191POPC   H6Y22087   5.178   4.048   6.838 -0.0136  1.0955  1.6037
  191POPC   C3722088   5.194   3.851   6.954 -1.0319  0.7065  0.1422
  191POPC   H7X22089   5.255   3.793   6.881 -1.7760  0.2144 -0.0898
  191POPC   H7Y22090   5.116   3.789   7.002 -0.7750 -0.7798 -1.2966
  191POPC   C3822091   5.275   3.914   7.066 -0.6250 -0.2647  0.1649
  191POPC   H8X22092   5.216   3.949   7.154  0.5251 -1.1914  1.3283
  191POPC   H8Y22093   5.326   4.003   7.023 -2.6154  0.5891 -0.5294
  191POPC   C3922094   5.381   3.812   7.112 -0.0461 -0.1152  0.7783
  191POPC   H9X22095   5.455   3.790   7.032 -1.0031 -1.7205  0.3274
  191POPC   H9Y22096   5.330   3.718   7.141 -1.7495  1.1354  1.9604
  191POPC  C31022097   5.471   3.872   7.227  0.1203  0.4358 -0.6659
  191POPC  H10X22098   5.509   3.965   7.180  0.1837 -0.0773 -1.6288
  191POPC  H10Y22099   5.558   3.804   7.240 -0.0951 -0.0955 -1.9958
  191POPC  C31122100   5.387   3.908   7.348  0.3538  0.6964  0.1191
  191POPC  H11X22101   5.313   3.832   7.381  0.7594 -0.1776 -0.9864
  191POPC  H11Y22102   5.323   3.998   7.331  0.0834  0.4394 -0.2306
  191POPC  C31222103   5.467   3.938   7.477  0.3193  0.0363  0.6856
  191POPC  H12X22104   5.543   4.016   7.459  1.6003 -1.4944 -0.6846
  191POPC  H12Y22105   5.519   3.841   7.491 -2.1427 -1.4520 -0.0758
  191POPC  C31322106   5.372   3.975   7.591  0.1482  0.3272 -0.1950
  191POPC  H13X22107   5.289   3.902   7.599  2.0137 -1.9620 -1.0680
  191POPC  H13Y22108   5.329   4.078   7.585 -0.8756 -0.1694 -1.6082
  191POPC  C31422109   5.462   3.976   7.715  0.4775 -0.6966  0.7878
  191POPC  H14X22110   5.557   4.015   7.672 -1.2540  1.5295 -1.1933
  191POPC  H14Y22111   5.476   3.871   7.748  2.2087 -1.0435 -0.9875
  191POPC  C31522112   5.410   4.062   7.831  0.1007  0.4268  0.5143
  191POPC  H15X22113   5.310   4.028   7.864 -1.6363  0.6609 -4.1509
  191POPC  H15Y22114   5.391   4.165   7.794  1.8037  0.5071 -0.2221
  191POPC  C31622115   5.495   4.054   7.956  0.2216 -0.0255  0.5501
  191POPC  H16X22116   5.600   4.067   7.924 -0.2076  2.3859  0.0225
  191POPC  H16Y22117   5.484   3.949   7.993 -1.1472 -0.2829 -0.5443
  191POPC  H16Z22118   5.464   4.118   8.042  0.2992  0.1881  0.4172
  192POPC     N22119   2.662   6.566   5.922  0.2096  0.2071 -0.3452
  192POPC   C1222120   2.684   6.552   6.069 -0.0573 -0.2228 -0.4543
  192POPC  H12A22121   2.601   6.496   6.110 -0.8100  0.1399 -1.4558
  192POPC  H12B22122   2.683   6.650   6.115 -1.8191  0.7363 -2.4281
  192POPC   C1322123   2.671   6.431   5.860 -0.1771  0.5001  0.3122
  192POPC  H13A22124   2.615   6.356   5.914 -0.8579  2.2632  2.1079
  192POPC  H13B22125   2.637   6.436   5.757 -0.4953  0.0129  0.3929
  192POPC  H13C22126   2.776   6.406   5.854 -0.2018  0.4221  0.2086
  192POPC   C1422127   2.522   6.613   5.898 -0.6660  1.2293  0.4269
  192POPC  H14A22128   2.489   6.586   5.799  2.0144 -0.7076 -0.0068
  192POPC  H14B22129   2.456   6.565   5.969  0.8219 -0.8350  0.4748
  192POPC  H14C22130   2.510   6.718   5.918 -0.0290  1.3250  0.3274
  192POPC   C1522131   2.758   6.660   5.855  0.0727  0.5914 -0.6172
  192POPC  H15A22132   2.735   6.750   5.910  0.8759 -0.1252  0.9336
  192POPC  H15B22133   2.734   6.684   5.753 -0.7699 -0.0555 -0.5752
  192POPC  H15C22134   2.863   6.634   5.859 -0.1688 -0.2125  0.9141
  192POPC   C1122135   2.813   6.477   6.118 -0.1826  0.7960 -0.3007
  192POPC  H11A22136   2.817   6.375   6.074  1.0120  0.4020  0.6914
  192POPC  H11B22137   2.829   6.471   6.228  2.9928 -1.8047 -0.8072
  192POPC     P22138   2.991   6.672   6.124 -0.4989  0.4038  0.5570
  192POPC   O1322139   2.868   6.757   6.128 -0.8331  0.2727 -0.4350
  192POPC   O1422140   3.109   6.718   6.051 -0.2287  0.4059 -0.2998
  192POPC   O1222141   2.939   6.535   6.063 -0.5043 -0.1884  0.1393
  192POPC   O1122142   3.030   6.627   6.271 -0.0279 -0.2673 -0.0965
  192POPC    C122143   3.128   6.529   6.302 -0.1779 -0.3853  0.7722
  192POPC    HA22144   3.175   6.561   6.398  0.9375  0.2019  0.0548
  192POPC    HB22145   3.200   6.505   6.221 -2.2497 -1.1069 -0.8852
  192POPC    C222146   3.059   6.395   6.329  1.0164 -0.1781  0.0819
  192POPC    HS22147   3.007   6.361   6.237  0.5300  0.6838  0.0288
  192POPC   O2122148   2.977   6.404   6.443  0.0844  0.2438  0.2646
  192POPC   C2122149   2.894   6.307   6.474  1.0181  0.6360  0.4132
  192POPC   O2222150   2.874   6.204   6.407  0.0758  0.1551 -0.2366
  192POPC   C2222151   2.828   6.344   6.603 -0.0045 -0.3358  0.3332
  192POPC   H2R22152   2.726   6.381   6.580 -0.8652 -3.0409 -0.4060
  192POPC   H2S22153   2.878   6.428   6.657 -0.8692  2.3643 -2.8969
  192POPC    C322154   3.171   6.293   6.348  0.1226 -0.0912 -0.1273
  192POPC    HX22155   3.226   6.283   6.252  0.6720  0.5388  0.1175
  192POPC    HY22156   3.117   6.196   6.357  0.7502 -0.5535 -1.2304
  192POPC   O3122157   3.258   6.329   6.449 -0.4613 -0.2609 -0.3645
  192POPC   C3122158   3.298   6.231   6.521 -0.9969 -0.2698 -0.7258
  192POPC   O3222159   3.257   6.111   6.515 -0.0497 -0.3235  0.3758
  192POPC   C3222160   3.396   6.280   6.628  0.4099 -0.1712 -0.1846
  192POPC   H2X22161   3.368   6.380   6.669  0.3831  0.0787 -0.8010
  192POPC   H2Y22162   3.502   6.275   6.596  0.6633  1.8865  0.2446
  192POPC   C2322163   2.815   6.230   6.703 -0.2018 -0.4025  0.1131
  192POPC   H3R22164   2.749   6.163   6.645 -2.0332  2.2954 -1.0218
  192POPC   H3S22165   2.761   6.244   6.799  0.8732 -0.8598  0.7965
  192POPC   C2422166   2.948   6.166   6.734  0.0874  0.3641 -0.3118
  192POPC   H4R22167   3.026   6.234   6.774 -0.5477  0.5875  0.5681
  192POPC   H4S22168   2.982   6.131   6.635 -2.6407 -0.7412 -0.9177
  192POPC   C2522169   2.927   6.043   6.826  0.3411  0.0547 -0.5281
  192POPC   H5R22170   3.021   5.984   6.820 -1.1457 -2.4384  0.1040
  192POPC   H5S22171   2.832   5.986   6.818  0.3517 -0.3116  1.6674
  192POPC   C2622172   2.927   6.094   6.977 -0.7086 -0.0576  0.3108
  192POPC   H6R22173   2.852   6.176   6.986 -0.6576 -0.1273  1.4709
  192POPC   H6S22174   3.028   6.135   6.996 -1.0564 -0.3408  2.9384
  192POPC   C2722175   2.883   5.988   7.081 -0.5415 -0.0053  0.1270
  192POPC   H7R22176   2.951   5.900   7.076  1.7611  1.7300  0.2487
  192POPC   H7S22177   2.787   5.939   7.054 -0.5899 -0.0676  0.4128
  192POPC   C2822178   2.877   6.042   7.223  0.2824  1.1765  0.3158
  192POPC   H8R22179   2.805   5.980   7.280  0.7139  0.4652  0.0958
  192POPC   H8S22180   2.822   6.139   7.232 -1.5497  0.3239 -1.4083
  192POPC   C2922181   3.008   6.047   7.292  0.0243 -0.6666  0.7751
  192POPC   H9122182   3.072   6.131   7.261 -2.5341  1.4480  1.0839
  192POPC  C21022183   3.050   5.971   7.395  0.5784 -0.2274 -0.2476
  192POPC  H10122184   3.147   5.996   7.441  0.7010 -0.5504 -0.3266
  192POPC  C21122185   2.960   5.871   7.472 -0.2646 -0.5588  0.2079
  192POPC  H11R22186   3.029   5.799   7.521 -0.0161 -0.5653 -0.1491
  192POPC  H11S22187   2.904   5.820   7.390  2.9364  0.1530 -2.5905
  192POPC  C21222188   2.866   5.922   7.576 -0.8501 -0.7156  0.2994
  192POPC  H12R22189   2.791   5.847   7.609 -0.8804  0.1876  2.4003
  192POPC  H12S22190   2.818   6.016   7.540  1.7728  0.9075  0.8303
  192POPC  C21322191   2.942   5.954   7.709 -0.2236  0.7219  0.0190
  192POPC  H13R22192   3.002   6.047   7.703 -0.7906  1.1200  0.4460
  192POPC  H13S22193   3.013   5.871   7.734  1.4476  1.7637 -1.1465
  192POPC  C21422194   2.854   5.962   7.831 -0.5256  0.4949  0.2347
  192POPC  H14R22195   2.918   5.973   7.921 -0.8253 -2.0527  0.7805
  192POPC  H14S22196   2.799   5.866   7.833  0.9352 -0.3843 -1.1051
  192POPC  C21522197   2.757   6.078   7.836 -0.1484 -0.4626 -0.4193
  192POPC  H15R22198   2.718   6.115   7.739  0.3878  2.1951  0.3464
  192POPC  H15S22199   2.806   6.160   7.892  0.4717 -0.8626 -0.3707
  192POPC  C21622200   2.623   6.053   7.924 -0.1453 -0.4154 -0.6792
  192POPC  H16R22201   2.648   6.015   8.026 -2.8888 -1.2719 -0.2736
  192POPC  H16S22202   2.569   5.968   7.877 -2.5769 -0.3265  1.8324
  192POPC  C21722203   2.543   6.179   7.949  0.0122  0.6981 -0.4703
  192POPC  H17R22204   2.501   6.222   7.856 -3.0543  0.3558  0.6905
  192POPC  H17S22205   2.617   6.252   7.989  0.6816  0.2737 -0.9157
  192POPC  C21822206   2.434   6.156   8.055 -0.0142  0.1540  0.1153
  192POPC  H18R22207   2.378   6.247   8.087  1.9131  1.3365  0.2651
  192POPC  H18S22208   2.472   6.099   8.142  0.6021 -1.7145 -1.3352
  192POPC  H18T22209   2.358   6.084   8.019  1.2542 -1.8286  1.3293
  192POPC   C3322210   3.386   6.191   6.762 -1.2237  0.4276 -0.6538
  192POPC   H3X22211   3.432   6.091   6.744  0.4410  1.1241 -0.3701
  192POPC   H3Y22212   3.277   6.180   6.782 -0.7828  0.9620  2.3843
  192POPC   C3422213   3.440   6.245   6.896  0.1990  0.2011 -0.6216
  192POPC   H4X22214   3.387   6.342   6.911 -1.1037 -0.8070  1.4996
  192POPC   H4Y22215   3.549   6.263   6.881  0.1275  1.8229  0.6466
  192POPC   C3522216   3.400   6.156   7.008 -0.0866  0.2331 -0.5155
  192POPC   H5X22217   3.462   6.066   6.989 -1.1910 -0.9167  1.1465
  192POPC   H5Y22218   3.293   6.127   7.018 -0.3287  1.1120 -0.5463
  192POPC   C3622219   3.433   6.207   7.142  0.0916 -0.3578 -0.4640
  192POPC   H6X22220   3.355   6.272   7.186 -1.1862 -2.0596 -0.1472
  192POPC   H6Y22221   3.535   6.251   7.144 -1.1689  2.6424  0.2909
  192POPC   C3722222   3.442   6.089   7.233 -0.3070 -0.7468 -0.0084
  192POPC   H7X22223   3.536   6.030   7.222 -0.7262 -1.7970  1.9245
  192POPC   H7Y22224   3.356   6.020   7.229  0.6928 -2.0184 -0.1050
  192POPC   C3822225   3.453   6.136   7.380 -0.0074  0.3857 -0.4695
  192POPC   H8X22226   3.375   6.212   7.400  3.0054  3.6367 -0.6410
  192POPC   H8Y22227   3.551   6.189   7.384  0.5576 -0.5665 -1.3814
  192POPC   C3922228   3.452   6.010   7.473  0.1951  0.0354 -0.6275
  192POPC   H9X22229   3.495   5.934   7.405  1.9009  1.2942 -1.0044
  192POPC   H9Y22230   3.348   5.988   7.506  0.1981  0.0211 -0.6285
  192POPC  C31022231   3.552   6.025   7.582 -0.4673  0.0635  0.2694
  192POPC  H10X22232   3.525   6.112   7.645 -0.1685 -0.5153  1.2130
  192POPC  H10Y22233   3.655   6.042   7.542 -0.6977 -0.1100 -0.4142
  192POPC  C31122234   3.575   5.914   7.683 -0.0942 -0.6776  0.0742
  192POPC  H11X22235   3.649   5.954   7.756 -0.0501  0.4050 -0.5650
  192POPC  H11Y22236   3.628   5.828   7.636 -0.8950 -1.0720 -0.1243
  192POPC  C31222237   3.445   5.868   7.754 -0.5640 -0.2818 -0.1160
  192POPC  H12X22238   3.381   5.806   7.688  1.2162 -1.5809 -0.6705
  192POPC  H12Y22239   3.395   5.963   7.785  2.6521  1.1297  1.0002
  192POPC  C31322240   3.479   5.782   7.877  0.3682 -0.9226  0.2791
  192POPC  H13X22241   3.590   5.770   7.877  0.3405 -1.2133 -0.4698
  192POPC  H13Y22242   3.432   5.682   7.865  2.3585 -1.4952 -3.6908
  192POPC  C31422243   3.442   5.852   8.009  0.2310 -0.0156  0.1022
  192POPC  H14X22244   3.358   5.923   7.993  1.1776  1.1343  0.1232
  192POPC  H14Y22245   3.524   5.917   8.047  0.3988  0.8557 -1.7046
  192POPC  C31522246   3.413   5.760   8.132  0.3540 -0.0114 -0.1046
  192POPC  H15X22247   3.501   5.696   8.151  0.2589 -0.0919  0.0721
  192POPC  H15Y22248   3.322   5.698   8.119 -0.3798  0.9946  0.1597
  192POPC  C31622249   3.401   5.836   8.274  0.5983 -0.3195 -0.5495
  192POPC  H16X22250   3.499   5.882   8.299  0.6126 -0.4422 -0.3729
  192POPC  H16Y22251   3.371   5.771   8.359 -1.5570  1.4314  0.0853
  192POPC  H16Z22252   3.317   5.908   8.261 -0.2723 -1.4265 -1.1503
  193SOD    SOD22253   4.903   5.169   3.807  0.3028 -0.0173  0.4232
  194SOD    SOD22254   4.143   7.208   3.478 -0.1155  0.2719 -0.3096
  195SOD    SOD22255   6.273   1.996  12.561  0.2023  0.2765  0.1672
  196SOD    SOD22256   4.156   6.175  11.389 -0.0377 -0.4515  0.2247
  197SOD    SOD22257   1.728   0.016   1.578  0.4360  0.7177  0.2354
  198SOD    SOD22258   2.881   4.016   0.340 -0.0113 -0.2890  0.6211
  199SOD    SOD22259   1.172   6.883   0.916 -0.2047  0.9447 -0.3630
  200SOD    SOD22260   4.343   2.315   5.028 -0.0782 -0.2960 -0.2262
  201SOD    SOD22261   1.149   1.111   0.767  0.4649 -0.0403  0.4835
  202SOD    SOD22262   0.500   0.667  14.754  0.0054 -0.1874 -0.2710
  203SOD    SOD22263   6.188   1.624   5.190  0.4446 -0.0136  0.1471
  204SOD    SOD22264   5.131   3.964   0.931 -0.1906  0.0703 -0.2785
  205SOD    SOD22265   4.982   6.575  15.285  0.2559 -0.3880 -0.3397
  206SOD    SOD22266   3.185   4.361  14.632  0.1149  0.0522  0.0357
  207SOD    SOD22267   0.742   4.408   3.037 -0.4422 -0.2807 -0.6305
  208SOD    SOD22268   5.096   6.056  12.263  0.4155  0.2818  0.2076
  209SOD    SOD22269   2.477   5.011   1.817  0.2845 -0.0027  0.2961
  210SOD    SOD22270   2.580   4.187  12.606 -0.6565  0.0408 -0.6014
  211SOD    SOD22271   6.916   2.481  10.669 -0.2679 -0.4571 -0.2815
  212SOD    SOD22272   6.864   2.573   4.709 -0.0231 -0.1674  0.2443
  213SOD    SOD22273   7.114   5.131   4.958  0.1084 -0.2454 -0.0625
  214SOD    SOD22274   4.590   5.591  10.762  0.0454  0.0718  0.1687
  215SOD    SOD22275   0.305   7.051   0.341  0.3077  0.0716 -0.0600
  216SOD    SOD22276   6.039   6.592  15.148  0.2400  0.1687 -0.4152
  217SOD    SOD22277   1.805   5.537  11.279  0.0658 -0.5375 -0.1477
  218SOD    SOD22278   1.141   2.700  14.237 -0.6862 -0.0384 -0.4444
  219SOD    SOD22279   2.644   4.891  13.163  0.4453 -0.0297  0.2309
  220SOD    SOD22280   6.483   2.982   5.671 -0.3736  0.1614 -0.5700
  221SOD    SOD22281   0.807   6.529   3.687  0.3696 -0.1232 -0.2729
  222SOD    SOD22282   0.477   0.855  11.340  0.2999  0.0426  0.3823
  223SOD    SOD22283   6.932   1.465  11.405  0.4554  0.1686 -0.1370
  224SOD    SOD22284   6.583   6.859  15.389 -0.7134 -0.2022 -0.0972
  225SOD    SOD22285   5.926   3.584  12.043 -0.1173 -0.5061 -0.2883
  226SOD    SOD22286   3.176   2.090  14.582 -0.1998  0.1931 -0.0415
  227SOD    SOD22287   0.223   6.839  10.099 -0.3316 -0.4052 -0.2873
  228SOD    SOD22288   5.177   1.089   0.045 -0.4648  0.1708 -0.2235
  229SOD    SOD22289   2.070   2.140   2.655 -0.3141  0.1461  0.3916
  230SOD    SOD22290   1.877   1.266  14.938 -0.1348 -0.0324 -0.4518
  231SOD    SOD22291   0.335   1.545   5.155 -0.1596  0.6125 -0.2471
  232SOD    SOD22292   1.713   1.552  12.480 -0.3699  0.6108  0.0061
  233SOD    SOD22293   5.090   4.693  13.222  0.4029  0.0375 -0.2027
  234SOD    SOD22294   6.495   5.680   4.752 -0.0766 -0.1750 -0.5575
  235SOD    SOD22295   0.264   4.993   5.784  0.1892 -0.3788 -0.1371
  236SOD    SOD22296   2.833   6.785   2.915  0.1072 -0.1431  0.3572
  237SOD    SOD22297   6.341   4.210   2.725 -0.1941  0.2754  0.3668
  238SOD    SOD22298   3.289   6.544  10.516  0.2543  0.2701  0.2677
  239SOD    SOD22299   5.696   6.250   1.614 -0.0923 -0.6570 -0.0870
  240SOD    SOD22300   4.130   3.009  14.704 -0.4049  0.2592  0.2112
  241SOD    SOD22301   0.003   3.300   5.750 -0.2934 -0.1326  0.2049
  242SOD    SOD22302   0.986   4.042  13.183 -0.5605 -0.0825 -0.2872
  243SOD    SOD22303   4.599   1.954  14.827  0.0575 -0.1368  0.4061
  244SOD    SOD22304   4.007   0.622  14.806 -0.3227  0.3620  0.1042
  245SOD    SOD22305   1.296   3.124   5.996  0.3892 -0.2694 -0.3957
  246SOD    SOD22306   2.195   3.113  11.739 -0.1132 -0.3515 -0.2322
  247SOD    SOD22307   4.832   3.297  12.355  0.0731 -0.3592  0.0401
  248SOD    SOD22308   6.079   5.115   1.399  0.2137 -0.0695  0.1545
  249SOD    SOD22309   0.176   3.923   0.977 -0.4820  0.8626  0.5505
  250SOD    SOD22310   3.694   6.856   1.590 -0.0713  0.2336  0.2258
  251SOD    SOD22311   5.931   3.724  15.260 -0.0059 -0.2412 -0.0942
  252SOD    SOD22312   7.068   2.828  15.223  0.1905  0.1320  0.2222
  253SOD    SOD22313   5.694   6.013   0.489  0.8141 -0.3192  0.3339
  254SOD    SOD22314   2.423   4.073  10.177 -0.2715 -0.3455 -0.2903
  255SOD    SOD22315   2.466   3.609  15.441  0.1583  0.1216  0.0342
  256SOD    SOD22316   0.677   4.738   4.131 -0.0700  0.3708 -0.2097
  257SOD    SOD22317   1.628   3.242   4.117 -0.4666  0.1808  0.4035
  258SOD    SOD22318   1.756   2.210  13.206 -0.1119  0.1404 -0.2736
  259SOD    SOD22319   3.235   2.672  10.852 -0.1356 -0.1459  0.6635
  260SOD    SOD22320   6.409   4.955  15.955  0.2203 -0.0879  0.3515
  261SOD    SOD22321   0.585   0.901  10.225 -0.4630 -0.1936 -0.6762
  262SOD    SOD22322   4.690   0.904   3.287  0.3025 -0.2433  0.4986
  263SOD    SOD22323   4.294   3.842   1.819  0.1257 -0.0459  0.0295
  264SOD    SOD22324   2.218   4.941  15.940 -0.3932  0.0150 -0.4282
  265SOD    SOD22325   6.077   3.904   9.892 -0.1726  0.1947 -0.2410
  266SOD    SOD22326   5.189   3.057  11.693 -0.3504  0.2307  0.1427
  267SOD    SOD22327   3.923   2.260   2.765 -0.1316 -0.1134 -0.3924
  268SOD    SOD22328   1.769   1.843  11.031  0.2638 -0.3103 -0.0005
  269SOD    SOD22329   6.139   2.851   4.857 -0.3427  0.0214 -0.0990
  270CLA    CLA22330   3.599   0.023   2.587 -0.1017  0.0776 -0.7719
  271CLA    CLA22331   6.336   3.523  15.063 -0.1352 -0.0561 -0.1588
  272CLA    CLA22332   0.259   1.514  14.615 -0.0280  0.4054 -0.5526
  273CLA    CLA22333   5.778   3.321  15.214 -0.2648 -0.3948 -0.3192
  274CLA    CLA22334   3.332   0.358   0.956 -0.2487 -0.1268 -0.1628
  275CLA    CLA22335   5.704   4.481   2.673  0.0697  0.0806  0.6597
  276CLA    CLA22336   1.966   0.735   4.908 -0.1136 -0.3150  0.3425
  277CLA    CLA22337   0.357   4.440   2.717  0.2889  0.2036 -0.1038
  278CLA    CLA22338   3.770   2.535  15.076  0.1231 -0.1090 -0.0305
  279CLA    CLA22339   1.345   5.866   0.338 -0.2508  0.2659  0.1054
  280CLA    CLA22340   7.111   0.240  13.944  0.2346  0.1994  0.3740
  281CLA    CLA22341   1.205   0.557  13.261  0.2124  0.4719  0.1291
  282CLA    CLA22342   4.479   6.752  13.278  0.3994  0.3031 -0.3509
  283CLA    CLA22343   0.869   0.667  11.124 -0.4885  0.0489 -0.3380
  284CLA    CLA22344   3.338   6.810  12.754 -0.8669 -0.0182  0.1771
  285CLA    CLA22345   1.750   1.194  12.785 -0.1943  0.0648 -0.4500
  286CLA    CLA22346   0.175   2.187   3.259 -0.1579  0.0048 -0.2309
  287CLA    CLA22347   6.582   6.320  15.230  0.1408 -0.1698 -0.4076
  288CLA    CLA22348   0.775   2.847  13.856  0.0668  0.4188  0.6031
  289CLA    CLA22349   5.636   5.318   3.820  0.0468 -0.5013  0.2195
  290CLA    CLA22350   5.940   6.350   1.780  0.0388 -0.1155  0.0233
  291CLA    CLA22351   6.482   6.818   4.942  0.0506 -0.1727  0.1544
  292CLA    CLA22352   1.426   3.829   3.084 -0.3218 -0.2048  0.5110
  293CLA    CLA22353   6.786   1.586   0.028  0.0713 -0.1330  0.1823
  294CLA    CLA22354   4.666   0.576  15.278  0.3413 -0.3808 -0.3029
  295CLA    CLA22355   4.293   0.996   2.787  0.2848  0.1158  0.0524
  296CLA    CLA22356   4.650   0.745   0.375 -0.2428 -0.3176  0.1580
  297CLA    CLA22357   6.981   5.133  12.791 -0.1894  0.0574  0.0294
  298CLA    CLA22358   6.167   2.250  12.535 -0.0654 -0.2007 -0.2536
  299CLA    CLA22359   3.777   3.670   0.684  0.1176 -0.0512 -0.2094
  300CLA    CLA22360   2.564   3.628  11.820 -0.1084  0.0723  0.0350
  301CLA    CLA22361   1.161   2.002  12.132  0.2416  0.0570  0.1501
  302CLA    CLA22362   5.772   4.138   2.002 -0.2964  0.2302 -0.0583
  303CLA    CLA22363   3.070   4.731   0.525 -0.1882 -0.1987 -0.5733
  304CLA    CLA22364   2.504   2.503   5.731  0.2523 -0.1969  0.0950
  305CLA    CLA22365   7.155   1.758   2.911  0.0676 -0.3365 -0.2075
  306CLA    CLA22366   5.068   1.912   5.053 -0.0129 -0.5057 -0.0306
  307CLA    CLA22367   5.245   1.647  15.784 -0.2929  0.1768 -0.2506
  308CLA    CLA22368   6.612   4.578   0.212 -0.0795  0.2251 -0.1868
  309CLA    CLA22369   7.222   1.484  13.170 -0.3770 -0.1275 -0.2309
  310CLA    CLA22370   1.348   3.478  13.434 -0.1784  0.2617 -0.3297
  311CLA    CLA22371   5.988   7.224   1.313 -0.0145  0.0672 -0.1626
  312CLA    CLA22372   3.517   1.026  15.295  0.5212 -0.0450 -0.1216
  313CLA    CLA22373   5.106   2.731  14.244 -0.0175  0.0264  0.4989
  314CLA    CLA22374   1.504   5.833   2.635  0.0382  0.4554  0.0670
  315CLA    CLA22375   2.147   5.234   2.123 -0.6376  0.2329 -0.0467
  316CLA    CLA22376   5.239   2.810  12.534 -0.1316  0.3867  0.4982
  317CLA    CLA22377   3.592   7.109  14.546 -0.1397  0.1360 -0.0538
  318CLA    CLA22378   6.155   7.300  15.565  0.6272 -0.1419 -0.1907
  319CLA    CLA22379   2.630   0.240  10.757 -0.4061  0.2308  0.6086
  320CLA    CLA22380   4.974   4.963  15.243 -0.2552 -0.0518 -0.0193
  321CLA    CLA22381   3.686   2.774  14.700  0.0268  0.3501 -0.3477
  322CLA    CLA22382   3.209   1.129  11.732  0.2180  0.1795  0.3156
  323TIP3   OH222383   4.632   2.670  10.146  0.3607 -0.2115 -0.1538
  323TIP3    H122384   4.563   2.721  10.188  0.7666 -0.6515  1.0710
  323TIP3    H222385   4.643   2.711  10.060 -0.9422  0.2818 -0.0931
  324TIP3   OH222386   2.176   4.938  10.329 -0.2999 -0.1719  0.0575
  324TIP3    H122387   2.085   4.968  10.331 -0.9086 -1.9251 -0.4152
  324TIP3    H222388   2.187   4.888  10.411  0.0630 -0.4249 -0.1417
  325TIP3   OH222389   5.083   5.780  11.973 -0.1054  0.3832  0.1204
  325TIP3    H122390   5.020   5.714  11.946  1.1623 -0.5816 -0.5215
  325TIP3    H222391   5.103   5.828  11.892  1.5824 -0.6956 -0.1191
  326TIP3   OH222392   7.145   6.896  11.367  0.2612 -0.2759  0.6526
  326TIP3    H122393   7.063   6.863  11.403  0.6454 -2.1762 -0.1097
  326TIP3    H222394   7.148   6.988  11.392 -2.4912  0.0278 -0.0158
  327TIP3   OH222395   5.768   4.262  10.880 -0.1075  0.0660 -0.2254
  327TIP3    H122396   5.719   4.343  10.861 -1.2995 -0.4985  0.3912
  327TIP3    H222397   5.707   4.208  10.929  1.3264 -0.4677  1.0057
  328TIP3   OH222398   4.739   3.086  10.447  0.6542 -0.2017 -0.4534
  328TIP3    H122399   4.754   3.083  10.352 -1.5047  0.4514 -0.8442
  328TIP3    H222400   4.725   3.178  10.466 -3.6113 -0.7671 -0.3355
  329TIP3   OH222401   6.575   2.156  11.085 -0.1670  0.2812  0.1964
  329TIP3    H122402   6.576   2.139  11.179 -1.4264 -0.4142  0.0927
  329TIP3    H222403   6.592   2.071  11.044 -0.0147  0.5028 -0.2066
  330TIP3   OH222404   5.072   3.059  10.441  0.6922 -0.1198  0.4405
  330TIP3    H122405   5.091   3.144  10.401  1.4302  0.4465  1.9636
  330TIP3    H222406   5.000   3.023  10.388 -0.1445  1.7945  0.2358
  331TIP3   OH222407   4.518   4.887  12.004  0.3109 -0.0965 -0.1329
  331TIP3    H122408   4.461   4.963  12.015 -1.3706 -1.5997  1.8921
  331TIP3    H222409   4.487   4.846  11.923 -1.3725 -0.7683  0.8250
  332TIP3   OH222410   3.841   7.067  11.821  0.6145  0.3755  0.1732
  332TIP3    H122411   3.841   6.973  11.842  0.1731  0.2283 -0.4958
  332TIP3    H222412   3.857   7.071  11.727 -0.1842  0.9394  0.0549
  333TIP3   OH222413   2.059   5.832  11.177  0.3427  0.1914  0.0750
  333TIP3    H122414   2.109   5.778  11.116  0.0463 -1.1198  0.9820
  333TIP3    H222415   2.119   5.848  11.250 -0.0231 -0.0451  0.4292
  334TIP3   OH222416   4.683   5.477  10.920  0.1348  0.2496 -0.1349
  334TIP3    H122417   4.639   5.517  10.995 -0.3544 -1.2398  0.3897
  334TIP3    H222418   4.648   5.388  10.915  2.1765 -0.5873 -0.4518
  335TIP3   OH222419   5.460   0.049  10.788 -0.2030 -0.4140  0.1010
  335TIP3    H122420   5.403  -0.020  10.821  0.0374  0.8213  3.2855
  335TIP3    H222421   5.404   0.126  10.781  0.7596  0.5247  2.2012
  336TIP3   OH222422   5.684   3.750  10.002 -0.5027 -0.4047  0.2352
  336TIP3    H122423   5.637   3.696  10.066  1.1661 -1.4333  0.6164
  336TIP3    H222424   5.698   3.834  10.046  1.4868 -1.4225  1.6273
  337TIP3   OH222425   0.726   5.439  10.602  0.3889 -0.0752 -0.2110
  337TIP3    H122426   0.652   5.437  10.542  0.3468 -2.3000 -0.1143
  337TIP3    H222427   0.799   5.402  10.551  1.7215  2.9366 -0.6279
  338TIP3   OH222428   1.908   1.693  11.714 -0.0958  0.1463 -0.2620
  338TIP3    H122429   1.890   1.608  11.754  1.1752  0.1817  0.4122
  338TIP3    H222430   1.824   1.738  11.716 -0.0922  0.1228  2.3427
  339TIP3   OH222431   5.143   1.459  11.185  0.1619  0.4282 -0.4014
  339TIP3    H122432   5.237   1.450  11.202 -0.0026  0.7547  0.7915
  339TIP3    H222433   5.102   1.432  11.267 -0.7791  0.4580 -0.8619
  340TIP3   OH222434   2.608   2.353  11.278  0.0327 -0.2239 -0.4588
  340TIP3    H122435   2.604   2.449  11.277  4.1949  0.2554  5.5649
  340TIP3    H222436   2.568   2.328  11.361 -0.0817 -3.7074 -1.4842
  341TIP3   OH222437   0.081   3.776   9.998 -0.5147  0.1146 -0.0748
  341TIP3    H122438  -0.008   3.779  10.035 -0.2661  1.6482  0.4492
  341TIP3    H222439   0.075   3.715   9.925 -2.2178  0.8980 -0.6058
  342TIP3   OH222440   0.293   3.081  10.252 -0.1748 -0.3850 -0.7236
  342TIP3    H122441   0.320   3.089  10.161  0.6053 -1.4898 -0.5928
  342TIP3    H222442   0.358   3.132  10.301  1.4236 -2.6075 -0.4607
  343TIP3   OH222443   0.021   4.885  12.315 -0.2007  0.4068  0.1538
  343TIP3    H122444   0.105   4.890  12.268  0.1596  1.4495  0.8932
  343TIP3    H222445   0.038   4.824  12.386 -0.1907  0.3036  0.0644
  344TIP3   OH222446   4.159   3.156  11.439  0.2406 -0.2097 -0.3126
  344TIP3    H122447   4.211   3.079  11.417 -0.6170 -1.0215  0.4489
  344TIP3    H222448   4.208   3.200  11.509  0.1849 -0.6657  0.0136
  345TIP3   OH222449   4.979   5.202  10.904 -0.2387  0.2714  0.1309
  345TIP3    H122450   5.037   5.245  10.840 -1.2743 -2.3499 -2.6801
  345TIP3    H222451   5.039   5.165  10.969  1.1063 -0.3463 -1.4261
  346TIP3   OH222452   4.907   0.197  10.338  0.3722 -0.1641 -0.3451
  346TIP3    H122453   4.838   0.238  10.285  0.1301 -1.3914 -0.9897
  346TIP3    H222454   4.873   0.198  10.427  0.3122  0.9080 -0.3748
  347TIP3   OH222455   5.458   6.107  11.704 -0.4521 -0.1627 -0.1899
  347TIP3    H122456   5.438   6.022  11.743 -1.6464 -0.4712 -1.4327
  347TIP3    H222457   5.406   6.169  11.756 -0.1668 -0.2789  0.2359
  348TIP3   OH222458   4.739   1.394  10.862  0.2186 -0.4355 -0.0005
  348TIP3    H122459   4.744   1.373  10.956  1.1191 -1.0688 -0.1865
  348TIP3    H222460   4.645   1.402  10.845 -0.0455 -2.0294  0.5950
  349TIP3   OH222461   5.123   0.425  12.729  0.0952 -0.2260  0.6839
  349TIP3    H122462   5.092   0.510  12.760 -1.0113 -0.6655  0.7773
  349TIP3    H222463   5.195   0.447  12.670 -0.4673  0.8012  0.3633
  350TIP3   OH222464   0.284   5.556  11.579  0.3205  0.3434 -0.1761
  350TIP3    H122465   0.375   5.528  11.588  0.6933  1.2742 -0.8991
  350TIP3    H222466   0.244   5.489  11.523  0.4491 -0.3078  0.5149
  351TIP3   OH222467   4.202   0.057  10.176 -0.1695 -0.1592  0.1354
  351TIP3    H122468   4.209   0.143  10.134  2.3671  0.8749  2.4545
  351TIP3    H222469   4.276   0.008  10.142  0.2554 -0.2829  1.2117
  352TIP3   OH222470   2.465   4.776  10.534  0.1069 -0.2183  0.1002
  352TIP3    H122471   2.376   4.798  10.508 -0.9333 -2.2793  1.7281
  352TIP3    H222472   2.495   4.714  10.468  0.3204  0.4511 -0.4283
  353TIP3   OH222473   2.761   5.366  10.847  0.2711  0.4776 -0.0981
  353TIP3    H122474   2.780   5.325  10.762  0.7312 -0.4892  0.4644
  353TIP3    H222475   2.819   5.321  10.908  0.2118  1.4450  0.6641
  354TIP3   OH222476   1.058   2.736  10.054 -0.0971 -0.1613 -0.5713
  354TIP3    H122477   1.039   2.714  10.145 -0.6845  1.9413 -0.1544
  354TIP3    H222478   1.008   2.817  10.038  0.2970 -0.2991 -2.6354
  355TIP3   OH222479   2.479   4.306  10.902 -0.1313  0.2521  0.0061
  355TIP3    H122480   2.550   4.370  10.899  0.4872 -0.4854 -1.9732
  355TIP3    H222481   2.505   4.239  10.839 -2.1531 -0.5024 -0.0579
  356TIP3   OH222482   0.668   5.413  13.162 -0.2214 -0.0202  0.1020
  356TIP3    H122483   0.715   5.456  13.091 -0.0140 -0.2166  0.1202
  356TIP3    H222484   0.622   5.340  13.121 -0.7670  0.3605  0.0320
  357TIP3   OH222485   4.278   6.620  10.597  0.6147  0.0294 -0.3034
  357TIP3    H122486   4.363   6.622  10.641 -0.3261  1.3707  1.4838
  357TIP3    H222487   4.263   6.711  10.570 -1.1615  0.2103  1.2058
  358TIP3   OH222488   4.974   6.822  10.558  0.2802  0.7272  0.4440
  358TIP3    H122489   5.064   6.805  10.532 -0.1682 -0.0216 -0.6867
  358TIP3    H222490   4.923   6.809  10.478 -1.0256 -0.5674  1.4401
  359TIP3   OH222491   2.467   1.601  10.927 -0.0944 -0.6943  0.5661
  359TIP3    H122492   2.493   1.545  10.854 -1.0621 -0.0280 -0.3020
  359TIP3    H222493   2.523   1.574  10.999  1.1902 -1.0447 -0.5554
  360TIP3   OH222494   4.567   5.242  10.956  0.0330  0.6479 -0.3933
  360TIP3    H122495   4.582   5.207  10.868 -0.6207  0.9475 -0.6203
  360TIP3    H222496   4.485   5.202  10.984  0.8479 -0.4040  0.5712
  361TIP3   OH222497   1.629   0.081  11.654  0.4193 -0.5304  0.3468
  361TIP3    H122498   1.654   0.042  11.570  1.8936  0.2654  0.4081
  361TIP3    H222499   1.702   0.138  11.677 -1.4372  1.8303  0.5501
  362TIP3   OH222500   2.775   6.765  10.342  0.3296 -0.1037 -0.2949
  362TIP3    H122501   2.843   6.730  10.285  0.8820  0.4724  0.0125
  362TIP3    H222502   2.696   6.764  10.288  0.4272 -1.3991 -0.4452
  363TIP3   OH222503   6.724   6.659  11.675 -0.6645 -0.0182  0.1571
  363TIP3    H122504   6.675   6.700  11.603  1.4556 -0.3816 -1.5194
  363TIP3    H222505   6.774   6.730  11.714  0.2698 -0.3384 -0.4602
  364TIP3   OH222506   1.132   0.279  10.630  0.1968  0.3115 -0.3644
  364TIP3    H122507   1.061   0.335  10.598 -0.5103 -0.3726 -0.0111
  364TIP3    H222508   1.144   0.214  10.561 -1.1352 -0.9934  0.6026
  365TIP3   OH222509   1.094   4.641   9.899 -0.0228 -0.0770  0.8975
  365TIP3    H122510   1.039   4.592   9.837  2.2419 -0.2631 -1.0525
  365TIP3    H222511   1.184   4.622   9.871  0.9935  1.9343  2.6531
  366TIP3   OH222512   2.052   0.603  12.561 -0.4982  0.0033 -1.0202
  366TIP3    H122513   2.123   0.546  12.590 -0.4711  1.1373  1.2473
  366TIP3    H222514   2.094   0.666  12.503 -0.4700 -2.0261 -3.2887
  367TIP3   OH222515   3.959   0.133  10.644  0.1985  0.1000  0.3208
  367TIP3    H122516   3.963   0.229  10.653  0.4710  0.2512 -1.2219
  367TIP3    H222517   3.885   0.107  10.698  2.0742  0.8079  3.3792
  368TIP3   OH222518   1.876   5.766  10.221  0.2620 -0.1434 -0.2059
  368TIP3    H122519   1.968   5.745  10.204  0.2948 -0.9294  0.9149
  368TIP3    H222520   1.827   5.701  10.170  0.3430 -0.7468  0.4792
  369TIP3   OH222521   3.798   6.423  10.312  0.4301  0.5461 -0.0207
  369TIP3    H122522   3.757   6.459  10.233  3.2448  1.4866 -1.1283
  369TIP3    H222523   3.770   6.481  10.383 -0.0915  1.1800 -0.7426
  370TIP3   OH222524   1.135   5.280  10.627  0.6759 -0.4362  0.5108
  370TIP3    H122525   1.214   5.330  10.608  1.4211 -1.8539 -0.1612
  370TIP3    H222526   1.164   5.213  10.690 -0.3726  0.1542  1.6411
  371TIP3   OH222527   1.525   0.891  10.853  0.0495  0.0142 -0.1345
  371TIP3    H122528   1.612   0.888  10.813  0.5447  2.9334  0.6297
  371TIP3    H222529   1.518   0.808  10.901  2.8886  0.2365  0.7572
  372TIP3   OH222530   5.360   6.754  11.779 -0.7762  0.1928 -0.4928
  372TIP3    H122531   5.268   6.777  11.788 -0.6328  0.8178 -0.6169
  372TIP3    H222532   5.406   6.819  11.833 -0.4696 -0.6145  0.2373
  373TIP3   OH222533   1.026   0.433  11.636 -0.0281 -0.3526  0.3816
  373TIP3    H122534   1.089   0.483  11.688 -1.0747  0.3429  0.9908
  373TIP3    H222535   1.016   0.484  11.555  2.2801 -1.8903 -0.9428
  374TIP3   OH222536   4.248   6.597  15.909 -0.2331 -0.5586  0.5901
  374TIP3    H122537   4.247   6.618  16.002 -0.2431 -1.6016  0.8361
  374TIP3    H222538   4.310   6.524  15.902  0.6182  0.2449 -0.3799
  375TIP3   OH222539   6.102   0.392   9.765 -0.3986 -0.0252  0.3663
  375TIP3    H122540   6.143   0.313   9.729 -0.8431 -0.1290  0.0845
  375TIP3    H222541   6.012   0.389   9.733 -0.6783  0.1055  1.1279
  376TIP3   OH222542   3.552   1.470   5.099 -0.7891 -0.2412 -0.2711
  376TIP3    H122543   3.636   1.514   5.109  0.4658 -2.7014  0.2799
  376TIP3    H222544   3.502   1.496   5.177  0.6833 -1.3634  1.0786
  377TIP3   OH222545   1.792   4.108   4.830  0.0026  0.1789 -0.2306
  377TIP3    H122546   1.887   4.093   4.836 -0.1956 -1.0863 -0.0847
  377TIP3    H222547   1.762   4.047   4.763 -0.7718  0.2883  0.0094
  378TIP3   OH222548   6.639   2.264   5.269 -0.3065 -0.1662  0.1100
  378TIP3    H122549   6.702   2.334   5.250  1.2051 -1.0662  1.6254
  378TIP3    H222550   6.620   2.273   5.362 -1.2713 -0.8523 -0.0121
  379TIP3   OH222551   2.823   3.161   6.414 -0.5072 -0.3428 -0.7605
  379TIP3    H122552   2.803   3.071   6.389  0.6567 -0.5204 -1.0836
  379TIP3    H222553   2.822   3.211   6.332 -2.3410  0.1835 -0.4370
  380TIP3   OH222554   5.735   5.293   1.646  0.3036 -0.2603 -0.1355
  380TIP3    H122555   5.735   5.362   1.712 -0.6482 -1.3557  1.0199
  380TIP3    H222556   5.806   5.317   1.586 -1.2361  2.7653 -0.8391
  381TIP3   OH222557   2.078   2.667   4.386 -0.4087  0.2289  0.0475
  381TIP3    H122558   2.109   2.651   4.296 -0.3338 -0.6378  0.2163
  381TIP3    H222559   1.989   2.701   4.375 -0.3525  0.2422 -0.3668
  382TIP3   OH222560   0.172   4.037  13.805  0.6127  0.4013 -0.1254
  382TIP3    H122561   0.188   3.946  13.827  0.5059  1.1487  3.4064
  382TIP3    H222562   0.136   4.035  13.716 -1.7546 -3.1972  0.8216
  383TIP3   OH222563   4.025   0.357   5.583  0.2284 -0.4458 -0.3660
  383TIP3    H122564   4.097   0.295   5.574  0.2336 -0.5076  0.1159
  383TIP3    H222565   4.046   0.409   5.660  0.9727  1.1743 -1.6373
  384TIP3   OH222566   4.718   2.819   5.849 -0.1096 -0.4441  0.2977
  384TIP3    H122567   4.635   2.838   5.892  1.3627  2.5158  1.9636
  384TIP3    H222568   4.725   2.886   5.781 -0.0214 -1.9982 -1.2828
  385TIP3   OH222569   3.548   3.843   4.131 -0.1828 -0.2339  0.3993
  385TIP3    H122570   3.643   3.833   4.129 -0.1852 -0.1375 -0.0983
  385TIP3    H222571   3.526   3.892   4.052 -0.6526 -0.2973  0.4834
  386TIP3   OH222572   1.777   4.929   5.550  0.5424  0.1158  0.9793
  386TIP3    H122573   1.804   4.863   5.614 -2.8380 -2.1854  0.1371
  386TIP3    H222574   1.682   4.935   5.561  0.7011  4.5355  0.6863
  387TIP3   OH222575   0.744   3.998   5.278 -0.0935  0.6722  0.5662
  387TIP3    H122576   0.727   3.915   5.323 -0.0120  0.4151  0.1299
  387TIP3    H222577   0.724   4.065   5.343 -1.1999  0.3399  0.5904
  388TIP3   OH222578   4.168   5.486   5.616  0.2005  0.5412  0.0481
  388TIP3    H122579   4.104   5.526   5.675 -0.6783  0.5335 -0.8792
  388TIP3    H222580   4.218   5.426   5.671 -0.8616  0.2553  0.7069
  389TIP3   OH222581   2.935   3.650   4.540 -0.4923 -0.3629  0.1331
  389TIP3    H122582   2.863   3.601   4.501 -1.2230  0.1203  0.8521
  389TIP3    H222583   2.914   3.742   4.524  0.4385 -0.2524 -0.4683
  390TIP3   OH222584   2.802   5.177   6.164 -0.1212 -0.1012 -0.1178
  390TIP3    H122585   2.835   5.094   6.200 -0.9962  1.0152  3.5122
  390TIP3    H222586   2.719   5.154   6.123  0.2761 -1.2241 -0.3194
  391TIP3   OH222587   2.794   5.442   6.231 -0.0429 -1.1883 -0.6626
  391TIP3    H122588   2.813   5.349   6.244 -1.7272 -1.5337 -0.6062
  391TIP3    H222589   2.719   5.443   6.172 -1.6795  0.0675  1.3844
  392TIP3   OH222590   1.879   5.555   6.095 -0.3246 -0.4026  0.7211
  392TIP3    H122591   1.838   5.552   6.182 -0.9991 -2.9946  0.3377
  392TIP3    H222592   1.813   5.598   6.040 -0.5486 -0.2082  1.1323
  393TIP3   OH222593   2.592   4.242   5.831  0.3716  0.3699  0.2958
  393TIP3    H122594   2.626   4.153   5.833 -2.4030 -0.7679  0.0302
  393TIP3    H222595   2.667   4.297   5.811  2.0253 -1.9681 -0.0903
  394TIP3   OH222596   0.378   3.356   3.018 -0.6199  0.3073  0.0712
  394TIP3    H122597   0.439   3.285   3.038 -1.2111 -0.5554 -1.1481
  394TIP3    H222598   0.393   3.375   2.926 -1.8283  0.4450 -0.1048
  395TIP3   OH222599   5.612   3.972   4.635 -0.3754 -0.2716 -0.1365
  395TIP3    H122600   5.639   3.881   4.633 -0.7084 -0.3828  0.3354
  395TIP3    H222601   5.692   4.021   4.655 -0.2612 -0.4870 -0.0727
  396TIP3   OH222602   3.876   3.017   6.102 -0.2356  0.6026 -0.7095
  396TIP3    H122603   3.790   2.977   6.111  0.2180 -0.1252  0.5242
  396TIP3    H222604   3.870   3.100   6.149 -0.4079  0.7830 -1.0487
  397TIP3   OH222605   5.963   1.224   5.198 -0.0501  0.2773  0.0492
  397TIP3    H122606   6.035   1.204   5.258  1.3594 -0.4072 -1.7930
  397TIP3    H222607   5.917   1.298   5.238  0.8195 -0.2029  1.9699
  398TIP3   OH222608   4.892   1.994   4.592  0.0179 -0.1203  0.2154
  398TIP3    H122609   4.985   2.013   4.580  0.2181 -0.5525  1.0876
  398TIP3    H222610   4.854   2.004   4.504  1.3144 -2.3802 -0.6516
  399TIP3   OH222611   0.128   6.566   4.037 -0.5417  0.6316  0.1886
  399TIP3    H122612   0.165   6.481   4.060  1.6450  1.0124 -1.6621
  399TIP3    H222613   0.037   6.561   4.064  0.0785 -1.5192  2.0379
  400TIP3   OH222614   6.084   4.122   2.357  0.1471  0.9084  0.2834
  400TIP3    H122615   6.033   4.050   2.394 -0.9060  1.1647 -0.6393
  400TIP3    H222616   6.019   4.182   2.321  1.0143  2.2510  0.8859
  401TIP3   OH222617   6.902   4.556   1.596  0.3926  0.3383  1.1652
  401TIP3    H122618   6.893   4.642   1.638  0.2661  1.2463 -0.6998
  401TIP3    H222619   6.996   4.547   1.581  0.2786  0.6816  0.2546
  402TIP3   OH222620   6.102   4.065   5.346 -0.0908 -0.5787  0.2846
  402TIP3    H122621   6.177   4.124   5.346  1.3478 -2.3662  0.3672
  402TIP3    H222622   6.081   4.051   5.438  0.1139 -0.8945  0.2814
  403TIP3   OH222623   4.284   4.081   4.730  0.2753 -0.4117 -0.6909
  403TIP3    H122624   4.350   4.053   4.667 -0.6425 -0.5640 -1.5840
  403TIP3    H222625   4.275   4.007   4.790  0.4289 -0.6517 -0.9653
  404TIP3   OH222626   0.724   3.355   6.544 -0.2832  0.2548  0.2452
  404TIP3    H122627   0.791   3.411   6.584 -0.8432  0.4747  0.8937
  404TIP3    H222628   0.656   3.349   6.611  0.0486 -1.7125  0.4171
  405TIP3   OH222629   6.607   4.739   5.823 -0.2544  0.2988  0.6107
  405TIP3    H122630   6.572   4.814   5.872 -1.4227 -0.1959  0.5409
  405TIP3    H222631   6.702   4.745   5.835 -0.5097  0.1835  2.9663
  406TIP3   OH222632   2.275   6.597   6.138 -0.0365 -0.1158  0.7654
  406TIP3    H122633   2.300   6.673   6.191  0.5846  0.6017 -0.5290
  406TIP3    H222634   2.323   6.524   6.176 -1.1118 -0.0067  2.4151
  407TIP3   OH222635   2.529   0.051   3.968  0.1379 -0.4382 -0.4806
  407TIP3    H122636   2.549  -0.040   3.946 -0.6316 -0.5824 -0.5770
  407TIP3    H222637   2.602   0.101   3.929  0.8149 -1.0487 -0.0067
  408TIP3   OH222638   1.903   5.848   6.253  0.1852  0.2545  0.9175
  408TIP3    H122639   1.893   5.756   6.278  0.8330  0.3239  1.4571
  408TIP3    H222640   1.825   5.868   6.200  0.6408 -0.9383 -0.2221
  409TIP3   OH222641   2.471   5.914   6.056 -0.3310 -0.2370 -0.0716
  409TIP3    H122642   2.454   5.883   6.145  0.2821 -2.0556 -0.5540
  409TIP3    H222643   2.412   5.988   6.044 -1.4627 -0.8926  1.3322
  410TIP3   OH222644   2.798   0.789   4.915 -0.3890  0.2495 -0.6419
  410TIP3    H122645   2.781   0.707   4.962  1.2622  0.2936  0.0431
  410TIP3    H222646   2.827   0.761   4.829  1.3554  0.0806 -0.0106
  411TIP3   OH222647   5.846   0.344   6.121  0.2237 -0.3146 -0.2299
  411TIP3    H122648   5.873   0.397   6.196  1.0929 -1.7212  0.4706
  411TIP3    H222649   5.925   0.337   6.067  0.7409 -2.7284  0.7974
  412TIP3   OH222650   5.294   0.844   6.095 -0.3816  0.1572 -0.0443
  412TIP3    H122651   5.293   0.859   6.189 -1.3381  2.0089 -0.3213
  412TIP3    H222652   5.202   0.851   6.068 -0.2352 -1.3085 -0.9792
  413TIP3   OH222653   2.941   0.894   5.881 -0.4712  0.2210 -0.4408
  413TIP3    H122654   2.986   0.812   5.859 -1.0422  0.0589 -1.0289
  413TIP3    H222655   2.900   0.876   5.966 -0.5922 -0.1015 -0.5648
  414TIP3   OH222656   1.743   0.214   6.429 -0.3871  0.2431  0.4371
  414TIP3    H122657   1.731   0.295   6.379 -1.2109 -0.1098  0.0467
  414TIP3    H222658   1.702   0.231   6.513 -1.6080 -0.1497 -0.0572
  415TIP3   OH222659   0.196   0.336   5.560 -0.2938 -0.0435 -0.4411
  415TIP3    H122660   0.214   0.302   5.648 -1.0080  0.2095 -0.1936
  415TIP3    H222661   0.239   0.422   5.559 -0.4899  0.0562 -0.2603
  416TIP3   OH222662   6.461   1.389   4.602  0.2527 -0.5279 -0.0141
  416TIP3    H122663   6.406   1.366   4.677  0.4322 -0.1391  0.2380
  416TIP3    H222664   6.516   1.312   4.588  1.5072  0.0833  1.4199
  417TIP3   OH222665   6.549   1.656   5.920  0.0874  0.0999  0.2491
  417TIP3    H122666   6.603   1.580   5.941 -0.1132 -0.2296 -0.4180
  417TIP3    H222667   6.610   1.730   5.919  0.6463 -0.3664 -1.1433
  418TIP3   OH222668   3.630   2.695   4.218 -0.1238 -0.2957  0.2704
  418TIP3    H122669   3.681   2.776   4.209 -1.1252  0.3388  0.2240
  418TIP3    H222670   3.669   2.650   4.293  0.0195  0.5356  0.6946
  419TIP3   OH222671   0.408   0.763   6.082 -0.9123  0.3142 -0.0012
  419TIP3    H122672   0.339   0.707   6.116 -0.5190 -0.5636 -0.6339
  419TIP3    H222673   0.419   0.831   6.148 -0.6855 -0.9272  1.2650
  420TIP3   OH222674   0.562   7.104   6.238  0.2545 -0.3468  0.0318
  420TIP3    H122675   0.505   7.047   6.289  0.3151 -0.0259  0.4616
  420TIP3    H222676   0.635   7.125   6.297 -0.4686  1.3112  0.3813
  421TIP3   OH222677   2.990   1.673  10.952 -0.2821  0.0233 -0.2469
  421TIP3    H122678   2.974   1.579  10.951 -3.0422  0.4639 -1.0090
  421TIP3    H222679   2.928   1.708  11.016  0.4940  1.3722 -0.1986
  422TIP3   OH222680   1.477   6.364  11.727  0.2225 -0.0305  0.3795
  422TIP3    H122681   1.455   6.328  11.641  1.7902  0.3133 -0.1876
  422TIP3    H222682   1.450   6.455  11.723  2.7154  0.7161 -0.7443
  423TIP3   OH222683   6.762   7.233  13.037  0.7070  0.1121 -0.2407
  423TIP3    H122684   6.709   7.156  13.016  1.3108 -0.4665  0.3618
  423TIP3    H222685   6.716   7.305  12.993 -0.3193 -0.4547 -0.1305
  424TIP3   OH222686   0.957   5.611  12.241 -0.1777 -0.0214 -0.2252
  424TIP3    H122687   1.007   5.663  12.304 -2.6344  0.7935  1.1094
  424TIP3    H222688   1.021   5.552  12.202  1.5608  0.0346  2.4350
  425TIP3   OH222689   6.490   0.143  13.270  0.8217 -0.2891  0.3770
  425TIP3    H122690   6.462   0.191  13.348  1.8280 -0.0276  0.5728
  425TIP3    H222691   6.579   0.116  13.289  0.4681 -1.7470  0.0272
  426TIP3   OH222692   2.582   5.512  12.014  0.6884  0.1867 -0.0540
  426TIP3    H122693   2.573   5.432  12.066  0.6210  0.2536  0.0380
  426TIP3    H222694   2.641   5.567  12.065 -0.6942  0.9230  0.7747
  427TIP3   OH222695   7.259   0.701  10.122  0.3837 -0.1027 -0.5861
  427TIP3    H122696   7.205   0.623  10.134  1.2732 -1.0356 -2.4018
  427TIP3    H222697   7.196   0.773  10.119 -0.4092 -0.6578  1.6158
  428TIP3   OH222698   2.647   5.859  11.780 -0.0148  0.0847 -0.3616
  428TIP3    H122699   2.586   5.790  11.754  0.1382  0.0422 -0.6021
  428TIP3    H222700   2.600   5.907  11.849  0.3836 -1.0291  0.6950
  429TIP3   OH222701   6.993   2.125  11.679 -0.1958  0.3839 -0.1723
  429TIP3    H122702   7.063   2.071  11.714  0.2701 -0.0815 -1.7682
  429TIP3    H222703   7.001   2.209  11.724 -0.2451 -0.5120  1.5279
  430TIP3   OH222704   2.732   0.850  10.241 -0.3626  0.4511 -0.2592
  430TIP3    H122705   2.721   0.854  10.146  2.2978 -2.6995 -0.8245
  430TIP3    H222706   2.816   0.893  10.257  0.3897 -1.1947  0.3309
  431TIP3   OH222707   2.574   0.042  10.522 -0.1577  0.2709  0.3441
  431TIP3    H122708   2.540  -0.041  10.556  1.7578 -0.5868  0.2844
  431TIP3    H222709   2.607   0.088  10.599 -1.0670  0.8964  0.3564
  432TIP3   OH222710   1.153   0.996  12.669 -0.2354  0.3792  0.6628
  432TIP3    H122711   1.236   1.041  12.658  0.6016 -0.3870  3.3654
  432TIP3    H222712   1.177   0.906  12.691 -1.8433 -0.6272 -1.4750
  433TIP3   OH222713   0.498   7.295  10.039  0.1565 -0.1357 -0.4728
  433TIP3    H122714   0.556   7.318   9.966 -0.7085  2.0157 -0.5169
  433TIP3    H222715   0.419   7.347  10.025 -0.2431 -0.0888  1.6917
  434TIP3   OH222716   1.262   5.700  10.869  0.5964 -0.5644  0.1653
  434TIP3    H122717   1.329   5.701  10.937  0.8584  1.3814 -0.0975
  434TIP3    H222718   1.203   5.771  10.893 -0.5655 -1.3191 -0.4161
  435TIP3   OH222719   3.308   7.161  12.157 -0.2688  0.0956  0.2048
  435TIP3    H122720   3.332   7.098  12.089 -0.3812 -0.6142  0.8138
  435TIP3    H222721   3.391   7.181  12.202 -0.3088  0.0354  0.3044
  436TIP3   OH222722   1.597   7.196  10.874 -0.3634  0.2439 -0.3816
  436TIP3    H122723   1.633   7.279  10.846  0.7272 -0.2388 -0.4268
  436TIP3    H222724   1.502   7.210  10.875 -0.1966  1.4274 -0.5361
  437TIP3   OH222725   1.523   0.862  11.659 -0.0708 -0.3446 -0.1898
  437TIP3    H122726   1.438   0.906  11.653  0.9207  1.8709  1.3897
  437TIP3    H222727   1.529   0.835  11.750  0.3378 -1.7867 -0.6274
  438TIP3   OH222728   4.064   1.911  11.005  0.8282  0.2190 -0.2018
  438TIP3    H122729   4.000   1.856  11.051  0.3519  0.9574  0.0144
  438TIP3    H222730   4.066   1.875  10.916 -1.1349  1.2197 -0.6875
  439TIP3   OH222731   0.321   5.842  12.743 -0.1391  0.0902 -0.3410
  439TIP3    H122732   0.255   5.796  12.689  0.4207  0.5915 -1.4683
  439TIP3    H222733   0.379   5.883  12.679  1.4274 -0.5531  0.6377
  440TIP3   OH222734   2.183   1.183  12.759  0.1021  0.0162  0.2472
  440TIP3    H122735   2.256   1.232  12.797 -0.4996 -0.0296  1.4862
  440TIP3    H222736   2.154   1.124  12.829 -0.7843 -0.3421 -0.4021
  441TIP3   OH222737   1.454   0.759  12.913 -0.2830 -0.4337 -0.5228
  441TIP3    H122738   1.495   0.845  12.908  0.6113 -0.7205  1.3301
  441TIP3    H222739   1.368   0.775  12.953  0.2854 -0.5041  0.7551
  442TIP3   OH222740   5.982   6.967  10.887 -0.4402  0.6021  0.2578
  442TIP3    H122741   6.010   6.965  10.795 -1.1533  2.3927 -0.0123
  442TIP3    H222742   5.974   7.060  10.908 -0.6985  0.1993  2.0160
  443TIP3   OH222743   1.418   0.749  11.923 -0.2207 -0.0874  0.2501
  443TIP3    H122744   1.334   0.773  11.962  0.8671 -0.6109  2.9913
  443TIP3    H222745   1.476   0.733  11.997  2.2422 -0.0281 -1.5951
  444TIP3   OH222746   1.057   6.619  10.152 -0.0097 -0.4919  0.0581
  444TIP3    H122747   1.132   6.578  10.108 -1.2478 -1.8202 -0.8909
  444TIP3    H222748   1.011   6.666  10.082 -2.1002 -2.7750 -0.1706
  445TIP3   OH222749   0.348   1.960  12.450  0.3696  0.1181  0.6272
  445TIP3    H122750   0.295   2.033  12.419 -0.4058 -1.0577 -0.8636
  445TIP3    H222751   0.284   1.894  12.479  1.0548 -0.2912  1.2326
  446TIP3   OH222752   0.133   5.259  11.825  0.3560  0.1726  0.2074
  446TIP3    H122753   0.225   5.242  11.844 -0.1572  0.4211  3.1659
  446TIP3    H222754   0.118   5.348  11.859 -0.7224  0.5446 -1.1979
  447TIP3   OH222755   3.051   6.082  14.245 -0.5784 -0.3393 -0.1612
  447TIP3    H122756   3.146   6.073  14.237 -0.6987 -1.0576 -0.8832
  447TIP3    H222757   3.027   6.142  14.174 -0.7513 -0.7842 -0.4851
  448TIP3   OH222758   6.241   2.249  12.195 -0.1498  0.2006  0.6411
  448TIP3    H122759   6.319   2.212  12.153 -1.1862 -0.1299 -1.0422
  448TIP3    H222760   6.253   2.231  12.288  1.7033  0.0061  0.3905
  449TIP3   OH222761   4.557   5.634  11.108 -0.0452  0.0226  0.4306
  449TIP3    H122762   4.636   5.686  11.123  0.2112  0.3378 -1.9271
  449TIP3    H222763   4.486   5.697  11.108 -0.3711 -0.2892  2.7977
  450TIP3   OH222764   1.283   6.189  11.117 -0.0244  0.5333 -0.6103
  450TIP3    H122765   1.319   6.274  11.093  0.6443  0.1818 -0.8463
  450TIP3    H222766   1.203   6.210  11.166  0.5672  1.3103  0.0385
  451TIP3   OH222767   0.963   3.646  10.536  0.1859  0.0072 -0.2022
  451TIP3    H122768   0.873   3.617  10.523  0.6304 -1.0679 -1.0329
  451TIP3    H222769   0.986   3.614  10.623 -0.6620  1.4702  0.5781
  452TIP3   OH222770   1.571   5.041  12.147 -0.0723 -0.2177 -0.2051
  452TIP3    H122771   1.553   5.042  12.053  0.7033 -1.4966 -0.3872
  452TIP3    H222772   1.507   4.980  12.183 -0.9613  0.9623  0.2417
  453TIP3   OH222773   0.708   4.640   9.958  0.3733  0.3835  0.2657
  453TIP3    H122774   0.772   4.585   9.913  0.4681 -0.6878  1.6729
  453TIP3    H222775   0.759   4.705  10.005  0.5474 -1.3650  2.5726
  454TIP3   OH222776   6.326   7.277  10.306  0.4668  0.3472 -0.3181
  454TIP3    H122777   6.395   7.342  10.297  0.0273  0.8193 -0.2785
  454TIP3    H222778   6.253   7.311  10.254  0.3673 -0.2991 -0.6124
  455TIP3   OH222779   2.937   0.174  12.272  0.7029  0.2847  0.0637
  455TIP3    H122780   2.868   0.227  12.312  0.2854  0.3757 -0.7593
  455TIP3    H222781   2.919   0.085  12.302  0.4953  0.3795  0.2264
  456TIP3   OH222782   2.982   5.398  10.343 -0.5153  0.3049  0.0228
  456TIP3    H122783   3.063   5.352  10.366  0.4715  1.4695 -1.0319
  456TIP3    H222784   2.951   5.354  10.263 -0.8656 -0.0640  0.3599
  457TIP3   OH222785   1.635   6.914  12.273 -0.4766 -0.2234  0.6735
  457TIP3    H122786   1.576   6.908  12.348 -1.3557 -0.2926 -0.0170
  457TIP3    H222787   1.577   6.914  12.197  0.3133  1.3067  0.0457
  458TIP3   OH222788   0.305   0.984  13.359  0.0797 -0.3190 -0.0229
  458TIP3    H122789   0.277   1.071  13.388  0.0750 -0.3476  0.0564
  458TIP3    H222790   0.255   0.923  13.414 -0.6377 -0.3797 -0.7270
  459TIP3   OH222791   6.309   5.740  10.734  0.1750  0.7107 -0.3636
  459TIP3    H122792   6.289   5.655  10.695  1.9617 -0.1428  0.5117
  459TIP3    H222793   6.243   5.751  10.802  0.5695 -0.4917  0.2359
  460TIP3   OH222794   7.277   0.657  13.963 -0.8662 -0.1075 -0.4164
  460TIP3    H122795   7.238   0.572  13.985  0.1084 -0.6804 -0.8983
  460TIP3    H222796   7.291   0.699  14.047 -0.1380 -0.9665 -0.0954
  461TIP3   OH222797   6.545   7.069  13.999  0.7737 -0.0388 -0.1706
  461TIP3    H122798   6.509   7.156  13.984  0.5333 -0.4476 -2.0625
  461TIP3    H222799   6.598   7.078  14.078 -0.3257  1.4959  0.4155
  462TIP3   OH222800   1.237   1.027  11.003 -0.2047  0.2132 -0.5439
  462TIP3    H122801   1.323   1.048  11.038  0.8950 -1.4380 -2.1495
  462TIP3    H222802   1.250   1.019  10.908 -1.2615 -3.7034 -0.4752
  463TIP3   OH222803   7.261   6.861  12.561 -0.0970  0.3110  0.0992
  463TIP3    H122804   7.253   6.789  12.499 -3.5065  2.4584 -2.1729
  463TIP3    H222805   7.347   6.900  12.542  1.0881 -2.1541  0.2778
  464TIP3   OH222806   3.014   5.454  11.602  0.1257  0.7947 -0.2929
  464TIP3    H122807   3.071   5.467  11.678  0.0958  1.5192 -0.3935
  464TIP3    H222808   2.931   5.495  11.628 -0.5677 -0.8042  0.1024
  465TIP3   OH222809   7.158   6.308  10.642 -0.0776  0.2360 -0.2014
  465TIP3    H122810   7.181   6.217  10.623 -0.6109  0.0669 -0.0298
  465TIP3    H222811   7.239   6.357  10.625 -0.5519  0.1227 -3.1214
  466TIP3   OH222812   2.591   1.225  12.177  0.3615  0.4190  0.0912
  466TIP3    H122813   2.640   1.256  12.253  2.5211  0.2634 -1.1883
  466TIP3    H222814   2.549   1.303  12.143 -2.3093  0.1494  2.5846
  467TIP3   OH222815   4.968   7.080  11.184  1.1457 -0.2468 -0.2093
  467TIP3    H122816   5.027   7.102  11.112  1.6735 -2.6346 -0.5439
  467TIP3    H222817   4.993   6.992  11.210 -1.0802 -0.6122  0.8394
  468TIP3   OH222818   3.189   3.408  11.635  0.0787 -0.2243 -0.3462
  468TIP3    H122819   3.263   3.468  11.649  0.2414 -0.6417  0.6074
  468TIP3    H222820   3.230   3.325  11.612 -0.0689 -0.5779  0.6306
  469TIP3   OH222821   3.008   2.372  13.881  0.1980 -0.2823 -0.2908
  469TIP3    H122822   2.997   2.390  13.787  0.5005 -0.6708 -0.4041
  469TIP3    H222823   3.065   2.295  13.883 -2.0162 -1.9906  0.1217
  470TIP3   OH222824   5.414   2.442  11.098 -0.1386  0.1100  0.1927
  470TIP3    H122825   5.471   2.519  11.101  0.8346 -0.5845 -0.0696
  470TIP3    H222826   5.328   2.477  11.076  0.2708  1.1365  0.1712
  471TIP3   OH222827   1.366   6.979  13.869 -0.0749 -0.0094  0.5271
  471TIP3    H122828   1.407   7.054  13.827 -1.3820  0.5062  0.1416
  471TIP3    H222829   1.274   6.983  13.842 -0.1820 -1.7088  0.5447
  472TIP3   OH222830   0.002   2.619  10.396 -0.6558 -0.0591 -0.1190
  472TIP3    H122831   0.063   2.547  10.381  1.2980  1.5343 -0.0523
  472TIP3    H222832   0.018   2.680  10.323 -0.2255  1.6448  1.3626
  473TIP3   OH222833   0.071   5.152  11.570  0.0260  0.2316  0.7222
  473TIP3    H122834   0.060   5.058  11.578  1.0028  0.1275  0.8792
  473TIP3    H222835   0.068   5.185  11.659 -0.4901  0.3643  0.6528
  474TIP3   OH222836   0.325   1.735  10.725 -0.0106  0.9062 -0.4544
  474TIP3    H122837   0.236   1.763  10.745 -0.3386 -0.3092 -0.1196
  474TIP3    H222838   0.346   1.776  10.641 -1.1531  0.6475 -0.8743
  475TIP3   OH222839   3.609   0.772  13.464  0.2408 -0.2022 -0.4379
  475TIP3    H122840   3.702   0.773  13.441  1.2660 -2.6935  3.1759
  475TIP3    H222841   3.578   0.687  13.435 -0.5461  0.0054 -0.2199
  476TIP3   OH222842   0.855   7.205  12.268  0.0517  0.6195  0.2016
  476TIP3    H122843   0.848   7.273  12.201 -2.9304  0.1520 -0.0166
  476TIP3    H222844   0.847   7.123  12.219  1.1190  0.1571  0.7767
  477TIP3   OH222845   1.119   6.667  10.415  0.0573  0.2488  0.0394
  477TIP3    H122846   1.101   6.648  10.323  1.7321 -1.5523  0.0400
  477TIP3    H222847   1.214   6.657  10.423 -0.2939 -1.6145  2.3851
  478TIP3   OH222848   1.518   0.337   9.232  0.3582 -0.0472  0.2307
  478TIP3    H122849   1.502   0.244   9.246  1.3617 -0.7112 -2.5643
  478TIP3    H222850   1.518   0.346   9.136 -0.6851  3.0011  0.4825
  479TIP3   OH222851   1.088   7.207  13.301  0.2577 -0.7750 -0.7777
  479TIP3    H122852   0.999   7.234  13.277 -0.1633 -0.6340  0.8471
  479TIP3    H222853   1.089   7.212  13.397  2.4147  0.4934 -0.8344
  480TIP3   OH222854   0.564   5.453  12.518  0.0596 -0.3000 -0.1865
  480TIP3    H122855   0.517   5.537  12.512 -0.9820 -0.7616  1.1290
  480TIP3    H222856   0.499   5.388  12.491  0.3344 -0.8358  0.4533
  481TIP3   OH222857   1.493   0.588  10.988 -0.4623 -0.8453  0.2802
  481TIP3    H122858   1.489   0.494  11.007 -3.6676 -0.5446  1.2944
  481TIP3    H222859   1.442   0.598  10.908 -0.7632  0.1354  0.5964
  482TIP3   OH222860   0.052   5.892  12.233 -0.2647 -0.1109  0.4444
  482TIP3    H122861   0.007   5.967  12.272 -0.9143  0.6018 -1.5819
  482TIP3    H222862   0.050   5.910  12.138  1.2585 -1.7519  0.0720
  483TIP3   OH222863   2.224   5.799  11.808 -0.0347 -0.3019 -0.3414
  483TIP3    H122864   2.298   5.804  11.747 -0.1511 -2.4229 -0.6685
  483TIP3    H222865   2.244   5.724  11.864 -0.9870  0.3186  0.8425
  484TIP3   OH222866   5.977   6.342  11.657  0.0296  0.1333  0.0708
  484TIP3    H122867   6.071   6.355  11.647 -0.3582  3.0890 -0.1675
  484TIP3    H222868   5.965   6.320  11.749  0.9205 -0.1149  0.1326
  485TIP3   OH222869   0.460   0.567  10.748 -0.5355 -0.2529 -0.0475
  485TIP3    H122870   0.406   0.488  10.746 -1.2329  0.2292 -1.0401
  485TIP3    H222871   0.544   0.539  10.782 -1.0246 -1.2674  0.3393
  486TIP3   OH222872   2.190   2.755  10.474 -0.1744  0.0539  0.2522
  486TIP3    H122873   2.228   2.712  10.551 -0.3923 -1.7796 -0.6308
  486TIP3    H222874   2.234   2.840  10.470  2.2543 -1.1556  0.5159
  487TIP3   OH222875   0.020   4.682  10.643 -0.6158  0.5778 -0.4405
  487TIP3    H122876  -0.069   4.659  10.670  0.4759 -1.9609  1.1111
  487TIP3    H222877   0.050   4.744  10.710 -0.6630  0.2633 -0.1306
  488TIP3   OH222878   2.507   2.085  11.273 -0.0181 -0.4563  0.1644
  488TIP3    H122879   2.556   2.004  11.260 -1.7181 -1.4908  0.0944
  488TIP3    H222880   2.548   2.148  11.213 -0.3495 -2.0037 -1.7509
  489TIP3   OH222881   2.640   2.977  14.395 -0.4999 -0.1992  0.2686
  489TIP3    H122882   2.727   2.940  14.384 -0.9606 -1.5190  1.0624
  489TIP3    H222883   2.656   3.069  14.418  0.6901 -0.6065  1.0924
  490TIP3   OH222884   0.994   6.741  11.045 -0.2115  0.5311  0.0413
  490TIP3    H122885   0.991   6.679  11.119 -2.3012 -0.0786 -0.5274
  490TIP3    H222886   1.012   6.686  10.969  0.0831  0.9247 -0.1767
  491TIP3   OH222887   6.297   6.898  10.552  0.6776 -0.3971  0.4349
  491TIP3    H122888   6.215   6.874  10.508 -0.1500 -1.1644  2.3356
  491TIP3    H222889   6.283   6.989  10.579  0.8619 -0.1979 -0.1234
  492TIP3   OH222890   0.163   5.950  10.652 -0.0441 -0.4996 -0.1340
  492TIP3    H122891   0.070   5.964  10.667 -0.5387 -2.4046 -1.2292
  492TIP3    H222892   0.175   5.966  10.558  0.8554  0.3615  0.1184
  493TIP3   OH222893   2.787   4.233  11.799 -0.5025  0.1145 -0.9457
  493TIP3    H122894   2.737   4.218  11.879  1.7661 -0.7047  0.3924
  493TIP3    H222895   2.723   4.229  11.728 -2.6896  1.8092  0.9146
  494TIP3   OH222896   0.699   0.932  13.849  0.7576 -0.0572  0.4493
  494TIP3    H122897   0.733   0.943  13.938 -2.0656  0.4952  1.5135
  494TIP3    H222898   0.712   0.839  13.830 -0.0800 -0.5463  2.1048
  495TIP3   OH222899   2.865   5.712  11.756  0.0627 -0.1244  0.6039
  495TIP3    H122900   2.787   5.768  11.765 -0.4953 -0.9909  1.2629
  495TIP3    H222901   2.935   5.773  11.733 -0.6417  0.7829  0.7957
  496TIP3   OH222902   0.363   5.947  11.610  0.1701 -0.6163  0.5043
  496TIP3    H122903   0.444   5.912  11.575  0.9491 -0.7250  2.3737
  496TIP3    H222904   0.380   5.960  11.703 -1.2804  1.2911  0.5495
  497TIP3   OH222905   0.342   0.956   9.943  0.3661 -0.4990  0.0614
  497TIP3    H122906   0.393   0.885   9.983 -0.1550  0.1457  1.9636
  497TIP3    H222907   0.374   0.962   9.853  2.0095 -1.6319  0.5519
  498TIP3   OH222908   1.397   0.465   9.509  0.3357  0.4769  0.4177
  498TIP3    H122909   1.392   0.448   9.415 -1.2376 -1.6138  0.8668
  498TIP3    H222910   1.475   0.520   9.519  1.4766 -0.6616 -1.9067
  499TIP3   OH222911   0.754   6.699  10.226  0.2702  0.4086  0.0383
  499TIP3    H122912   0.813   6.631  10.193 -0.9071 -1.2753  1.3103
  499TIP3    H222913   0.668   6.676  10.191 -0.2791  0.7861  1.1046
  500TIP3   OH222914   0.299   0.713  11.336  0.6286 -0.1908 -0.0532
  500TIP3    H122915   0.284   0.619  11.326  0.6925 -0.2807  0.6554
  500TIP3    H222916   0.213   0.753  11.328  0.3341 -0.4808  1.5182
  501TIP3   OH222917   2.347   2.182  11.923 -0.0710 -0.4660  0.1949
  501TIP3    H122918   2.382   2.095  11.943  0.6213 -0.2754 -0.1832
  501TIP3    H222919   2.319   2.176  11.832 -1.9240 -0.9052  0.7652
  502TIP3   OH222920   0.232   6.952  11.075  0.1075  0.1206 -0.1666
  502TIP3    H122921   0.154   6.908  11.108  0.4571 -0.8772 -0.6398
  502TIP3    H222922   0.295   6.881  11.061  0.8075  0.8192 -0.5941
  503TIP3   OH222923   3.612   0.430  12.172  0.2056 -0.3846  0.1311
  503TIP3    H122924   3.606   0.443  12.077  2.3399  0.2919  0.0482
  503TIP3    H222925   3.523   0.441  12.204 -0.6281 -1.1597 -1.8621
  504TIP3   OH222926   5.133   5.659  13.718  0.3013 -0.2175  0.4264
  504TIP3    H122927   5.227   5.645  13.730 -0.2659 -3.2768  1.8928
  504TIP3    H222928   5.101   5.688  13.804 -0.4152 -1.3830  0.5751
  505TIP3   OH222929   0.461   2.072   9.990 -0.6908 -0.1127  0.3569
  505TIP3    H122930   0.392   2.113  10.042 -1.1899  0.9828 -1.1287
  505TIP3    H222931   0.462   2.122   9.909  1.7840 -0.1970  0.3083
  506TIP3   OH222932   6.930   6.082  13.053 -0.0098 -0.1204 -0.0023
  506TIP3    H122933   7.004   6.040  13.096 -1.0970 -1.8782  0.2314
  506TIP3    H222934   6.966   6.116  12.971  0.8949 -1.7088 -0.2980
  507TIP3   OH222935   3.964   1.189  15.348  0.0228 -0.0987  0.8451
  507TIP3    H122936   4.026   1.120  15.370  1.5240  0.6795 -0.8020
  507TIP3    H222937   3.973   1.201  15.253 -2.3201  0.3556  0.6493
  508TIP3   OH222938   7.028   0.702  10.757  0.4441 -0.4082 -0.3577
  508TIP3    H122939   6.976   0.741  10.687 -0.8021 -0.1322  0.7002
  508TIP3    H222940   7.059   0.619  10.721 -0.0301 -0.1849 -1.2933
  509TIP3   OH222941   0.613   7.303   9.803 -0.2445  0.1706 -0.4752
  509TIP3    H122942   0.675   7.355   9.752 -0.3517 -0.1246 -0.9150
  509TIP3    H222943   0.649   7.214   9.801 -0.0527  0.2254  0.2848
  510TIP3   OH222944   2.242   0.713  11.859  0.7633  0.7460 -0.2440
  510TIP3    H122945   2.192   0.632  11.850 -0.0776  1.1356  0.8451
  510TIP3    H222946   2.199   0.759  11.931  2.8398  0.9697  0.8759
  511TIP3   OH222947   0.788   6.327  12.763  0.0081 -0.8908 -0.4687
  511TIP3    H122948   0.738   6.339  12.843  1.1685 -0.4319  0.2070
  511TIP3    H222949   0.728   6.352  12.693 -1.3596 -2.3148  0.1653
  512TIP3   OH222950   2.039   1.035   9.735 -0.0099 -0.2053 -0.1018
  512TIP3    H122951   1.999   1.084   9.806  1.1031 -1.5179  1.4779
  512TIP3    H222952   2.082   1.101   9.681 -2.1935  0.9555 -0.4572
  513TIP3   OH222953   3.786   1.368  13.305 -0.1272 -0.1102  0.4274
  513TIP3    H122954   3.700   1.354  13.267 -0.4676 -0.6644  1.3912
  513TIP3    H222955   3.832   1.422  13.241 -0.5804 -1.3013 -0.9276
  514TIP3   OH222956   5.316   4.999  11.491  0.5927 -0.0889  0.2229
  514TIP3    H122957   5.382   5.006  11.559  1.5841 -1.2380 -0.5720
  514TIP3    H222958   5.297   4.905  11.487  0.0320  0.0567 -0.5791
  515TIP3   OH222959   1.676   2.659  14.363 -0.6797  0.3358 -0.1243
  515TIP3    H122960   1.613   2.657  14.290 -0.7438 -0.6941 -0.0436
  515TIP3    H222961   1.652   2.737  14.412 -1.3538  0.4278 -0.5850
  516TIP3   OH222962   1.388   7.204  10.584  0.0534 -0.0779 -0.1103
  516TIP3    H122963   1.412   7.284  10.630  0.1648 -0.8322  1.1522
  516TIP3    H222964   1.454   7.196  10.514  1.2062 -0.0931  0.9623
  517TIP3   OH222965   2.164   5.619  10.619 -0.1452 -0.2424  0.1968
  517TIP3    H122966   2.117   5.649  10.541  0.6924  0.1979 -0.1468
  517TIP3    H222967   2.209   5.698  10.651 -1.5049 -0.1189  1.8553
  518TIP3   OH222968   2.944   7.055  12.658  0.5322  0.1184  0.3058
  518TIP3    H122969   2.963   6.962  12.652 -0.4161 -0.1669  1.5223
  518TIP3    H222970   2.993   7.084  12.736 -1.6074 -0.0165  1.7366
  519TIP3   OH222971   2.673   1.088  11.406 -0.0973 -0.1761  1.1674
  519TIP3    H122972   2.666   0.997  11.380 -0.2396  0.0812  0.2668
  519TIP3    H222973   2.744   1.123  11.352  1.0924 -0.1627  2.7033
  520TIP3   OH222974   1.130   0.587  10.514 -0.0031 -0.2374  0.0874
  520TIP3    H122975   1.195   0.517  10.521 -2.1026 -2.3419 -0.6480
  520TIP3    H222976   1.087   0.571  10.430  0.4490  2.8622 -0.8116
  521TIP3   OH222977   3.240   0.440  12.900  0.8042 -0.5358 -0.7586
  521TIP3    H122978   3.178   0.369  12.915 -0.9580  1.2044  0.3618
  521TIP3    H222979   3.243   0.450  12.805 -1.3016 -0.0828 -0.7930
  522TIP3   OH222980   5.872   4.650  11.377 -0.1986  0.2227  0.7048
  522TIP3    H122981   5.786   4.633  11.339  0.1887 -1.5681  0.5829
  522TIP3    H222982   5.933   4.643  11.303  0.4376 -2.2369  1.4032
  523TIP3   OH222983   1.304   1.027  10.736 -0.0782 -0.4442  0.5644
  523TIP3    H122984   1.382   0.985  10.773  0.9081  0.6132 -0.2807
  523TIP3    H222985   1.248   0.954  10.709  0.6708 -1.2088  1.0572
  524TIP3   OH222986   7.041   5.552  10.061  0.7770 -0.7037 -0.4374
  524TIP3    H122987   7.099   5.589   9.993  0.9907  0.0231  0.1246
  524TIP3    H222988   7.030   5.624  10.123  0.8404 -1.4729  0.4594
  525TIP3   OH222989   0.692   0.710   9.762 -0.1948  0.3059 -0.1929
  525TIP3    H122990   0.639   0.645   9.810  0.5039 -2.4890 -3.0127
  525TIP3    H222991   0.782   0.678   9.771  0.2279  1.1989 -1.1839
  526TIP3   OH222992   5.597   1.706  15.339  0.4207  0.7504 -0.2316
  526TIP3    H122993   5.525   1.748  15.387  0.0054  0.4069 -0.5541
  526TIP3    H222994   5.570   1.711  15.247  1.2818  1.5371 -0.4477
  527TIP3   OH222995   7.049   6.162  11.091  0.2117 -0.3227 -0.6810
  527TIP3    H122996   7.026   6.222  11.020 -2.4512 -1.1958 -0.5863
  527TIP3    H222997   7.117   6.106  11.052 -0.8240 -0.4391 -2.4033
  528TIP3   OH222998   2.281   3.509  12.267 -0.2144 -0.0475  0.4048
  528TIP3    H122999   2.319   3.423  12.249 -0.7285 -0.1641 -0.1195
  528TIP3    H223000   2.349   3.571  12.239 -0.8819 -0.2306 -1.7104
  529TIP3   OH223001   3.150   6.402  11.762  0.2748  0.3823 -0.0685
  529TIP3    H123002   3.098   6.478  11.734  0.7441  0.6936 -0.0979
  529TIP3    H223003   3.204   6.380  11.686  0.1351  0.0100 -0.0634
  530TIP3   OH223004   2.205   3.038  11.311  0.0924 -0.4757 -0.0479
  530TIP3    H123005   2.262   3.104  11.271 -0.4588  0.2040  0.2847
  530TIP3    H223006   2.124   3.042  11.259  0.3193 -1.4162 -0.4995
  531TIP3   OH223007   7.166   1.435  12.306  0.2017 -0.4683  0.5340
  531TIP3    H123008   7.246   1.428  12.356  1.3652 -1.0076 -1.3406
  531TIP3    H223009   7.191   1.410  12.217 -2.2382 -1.5745  0.1126
  532TIP3   OH223010   1.306   3.828  15.687 -0.5855  0.4381 -0.0159
  532TIP3    H123011   1.307   3.747  15.738  0.0936 -0.7382 -1.8469
  532TIP3    H223012   1.215   3.836  15.657 -0.7564  0.6066  0.5332
  533TIP3   OH223013   5.741   0.592  14.365 -0.0920 -0.2529 -0.1746
  533TIP3    H123014   5.670   0.630  14.313 -0.2871 -0.4771 -0.0739
  533TIP3    H223015   5.816   0.591  14.306 -0.3941 -0.8048 -0.5587
  534TIP3   OH223016   1.573   6.943  11.015  0.1902 -0.2700 -0.2936
  534TIP3    H123017   1.663   6.917  11.032  0.1941  1.4253  2.5779
  534TIP3    H223018   1.579   7.037  10.995 -0.8865 -0.2107 -0.3608
  535TIP3   OH223019   7.190   1.282  10.836  0.1338 -0.2523  0.1531
  535TIP3    H123020   7.246   1.205  10.839 -1.2602 -1.2533  1.0971
  535TIP3    H223021   7.244   1.349  10.795  2.3398 -0.9174  1.8842
  536TIP3   OH223022   3.080   0.826  12.010 -0.4722  0.0340  0.2351
  536TIP3    H123023   3.148   0.893  12.010  1.8184 -2.2191  1.7168
  536TIP3    H223024   3.007   0.867  12.057  0.7369  1.6370  0.7821
  537TIP3   OH223025   6.743   0.061  14.381 -0.8532 -0.0745 -0.6707
  537TIP3    H123026   6.792   0.066  14.300 -0.4928 -1.4393 -0.5451
  537TIP3    H223027   6.804   0.024  14.445 -0.9253  1.5866  0.3987
  538TIP3   OH223028   6.746   3.614  10.620  0.4667 -0.2982  0.1787
  538TIP3    H123029   6.696   3.594  10.541  0.8377  1.9834 -0.6919
  538TIP3    H223030   6.683   3.608  10.691 -0.3344 -0.4296 -0.5325
  539TIP3   OH223031   4.184   0.202  12.240 -0.1851 -0.4599 -0.2233
  539TIP3    H123032   4.174   0.273  12.177  2.2947 -1.0594 -1.3685
  539TIP3    H223033   4.250   0.234  12.302 -0.5664 -0.9610  0.4463
  540TIP3   OH223034   2.038   5.840  12.662  0.4238  0.4895 -0.1818
  540TIP3    H123035   1.991   5.892  12.727 -0.1003  0.2192 -0.3432
  540TIP3    H223036   2.003   5.870  12.578 -0.4329 -0.6584 -0.2448
  541TIP3   OH223037   7.027   5.422  14.236 -0.2172  0.7824 -0.0670
  541TIP3    H123038   7.071   5.442  14.153 -3.2868 -0.8199 -2.2164
  541TIP3    H223039   7.021   5.326  14.238  0.4198  0.7596  2.3894
  542TIP3   OH223040   7.126   2.361  10.176 -0.6924 -0.3700 -0.7095
  542TIP3    H123041   7.088   2.444  10.147  0.0298  0.3135  0.2455
  542TIP3    H223042   7.220   2.379  10.184 -0.6591 -0.9778  0.4532
  543TIP3   OH223043   3.088   6.911  11.480 -0.2858  0.1783  0.0601
  543TIP3    H123044   3.068   6.937  11.391  0.5812  0.6963  0.0191
  543TIP3    H223045   3.002   6.900  11.522 -0.6669  1.5358 -0.3621
  544TIP3   OH223046   4.347   0.186  11.183 -0.1762  0.1557  0.0637
  544TIP3    H123047   4.414   0.245  11.149 -0.2270  0.3700  0.3301
  544TIP3    H223048   4.319   0.135  11.107  0.0234  0.3246 -0.1244
  545TIP3   OH223049   7.260   5.952  13.421 -0.3990 -0.1489  0.5674
  545TIP3    H123050   7.335   6.010  13.413 -1.8004  1.5479 -0.7301
  545TIP3    H223051   7.215   5.981  13.501 -0.5569 -0.0826  0.4556
  546TIP3   OH223052   0.982   6.886  12.736 -0.1278  0.2665 -0.3434
  546TIP3    H123053   0.891   6.902  12.762 -0.0354 -0.2220  0.2743
  546TIP3    H223054   1.023   6.847  12.813  0.8346  1.2745 -0.3223
  547TIP3   OH223055   1.096   7.022  13.783  0.3693  0.4369 -0.2382
  547TIP3    H123056   1.020   7.016  13.841  1.7539 -3.8999  1.3779
  547TIP3    H223057   1.070   6.973  13.705  0.8342  0.5369 -0.4567
  548TIP3   OH223058   1.015   5.223  11.461 -0.4783 -0.1572  0.0800
  548TIP3    H123059   1.050   5.181  11.382 -2.6186 -2.8003  0.4725
  548TIP3    H223060   1.064   5.305  11.468  4.8319 -3.0741 -0.0358
  549TIP3   OH223061   3.562   2.006  10.211 -0.1922  0.7729  0.2196
  549TIP3    H123062   3.468   1.987  10.206  0.0264 -0.2690 -0.1498
  549TIP3    H223063   3.575   2.078  10.149 -0.6266  0.3854 -0.3302
  550TIP3   OH223064   1.432   1.413   9.760  0.1574 -0.2548 -0.4807
  550TIP3    H123065   1.394   1.376   9.839 -1.0388 -0.2381 -1.0430
  550TIP3    H223066   1.461   1.337   9.710 -0.5595 -0.3438 -0.7630
  551TIP3   OH223067   0.859   0.094   9.733 -0.4418 -0.3640 -1.0798
  551TIP3    H123068   0.896   0.093   9.645 -1.7737 -0.3657 -1.6544
  551TIP3    H223069   0.923   0.046   9.786  0.5675 -0.0135 -1.9547
  552TIP3   OH223070   3.372   1.304  13.676 -0.1508 -0.0126  0.1753
  552TIP3    H123071   3.446   1.338  13.727  0.3205 -0.0437 -0.4890
  552TIP3    H223072   3.331   1.240  13.735  0.4790 -0.1524  0.4748
  553TIP3   OH223073   6.327   6.775  14.907 -0.0894 -0.5462 -0.1916
  553TIP3    H123074   6.386   6.795  14.834  1.7956 -0.9134  1.1985
  553TIP3    H223075   6.240   6.788  14.871  0.8514  1.7712 -1.7857
  554TIP3   OH223076   1.036   4.926  11.239 -0.1039 -0.1453 -0.0475
  554TIP3    H123077   1.087   4.846  11.228 -1.2642 -0.9070 -0.0453
  554TIP3    H223078   1.066   4.963  11.322  0.7036 -0.3806 -0.2367
  555TIP3   OH223079   0.441   1.244  11.073 -0.2526  0.0891  0.1925
  555TIP3    H123080   0.527   1.248  11.115 -0.0034 -3.2297  0.1887
  555TIP3    H223081   0.456   1.274  10.984  0.9043 -0.3375  0.2322
  556TIP3   OH223082   0.274   0.721  12.455  0.0845 -0.4406 -0.0234
  556TIP3    H123083   0.338   0.791  12.468 -1.5342  0.8984  0.9572
  556TIP3    H223084   0.307   0.648  12.508  0.5800  0.3801  0.8152
  557TIP3   OH223085   2.132   0.917  12.560 -0.0735  0.6614 -0.1847
  557TIP3    H123086   2.089   0.991  12.519  0.1211 -0.1674 -1.9262
  557TIP3    H223087   2.196   0.887  12.496 -0.2735 -1.1313  0.4036
  558TIP3   OH223088   1.754   1.850  10.627  0.3888  0.3955  0.4932
  558TIP3    H123089   1.811   1.839  10.550 -0.3550  0.3762 -0.0606
  558TIP3    H223090   1.765   1.769  10.677 -0.8089 -0.5457 -0.7271
  559TIP3   OH223091   1.067   1.636  10.310  0.1529 -0.1295 -0.4729
  559TIP3    H123092   1.129   1.573  10.348 -0.5661 -0.6236 -0.1125
  559TIP3    H223093   1.022   1.587  10.242  0.2792  0.2816 -0.8524
  560TIP3   OH223094   3.114   1.905  11.208 -0.8414 -0.1080 -0.1191
  560TIP3    H123095   3.028   1.899  11.166 -0.8370 -0.8173 -0.0358
  560TIP3    H223096   3.172   1.937  11.139 -0.7414 -1.7136 -0.8013
  561TIP3   OH223097   3.435   6.169  12.500  0.3494 -0.6497  0.0175
  561TIP3    H123098   3.516   6.131  12.466 -0.2085 -0.8188 -1.1409
  561TIP3    H223099   3.460   6.255  12.533  1.0144 -0.7531 -0.2230
  562TIP3   OH223100   2.753   7.135  13.957  0.1228  0.0430 -0.5842
  562TIP3    H123101   2.760   7.117  14.051 -1.5620 -0.3210 -0.5117
  562TIP3    H223102   2.660   7.151  13.942  0.2648 -0.6000 -2.3228
  563TIP3   OH223103   4.079   4.996  10.705  0.1204 -0.0051  0.0947
  563TIP3    H123104   3.999   4.970  10.661  0.1570  0.6656 -0.3778
  563TIP3    H223105   4.051   5.030  10.790 -0.0342 -0.3890  0.1969
  564TIP3   OH223106   3.276   2.537  14.210 -0.1021 -0.0113  0.2388
  564TIP3    H123107   3.252   2.496  14.127  1.3655  0.9435 -0.6869
  564TIP3    H223108   3.352   2.487  14.240  1.0856  1.3805 -0.4061
  565TIP3   OH223109   3.954   0.131  11.871 -0.5075  0.7413 -0.4224
  565TIP3    H123110   3.928   0.165  11.957  2.5871 -0.3093  0.9831
  565TIP3    H223111   3.988   0.044  11.889  0.4832  0.6263 -2.7011
  566TIP3   OH223112   1.942   6.573  10.245 -0.1335 -0.0170 -0.1173
  566TIP3    H123113   1.899   6.549  10.163 -1.3981  0.5614  0.3693
  566TIP3    H223114   2.024   6.523  10.244 -0.1602 -0.0756 -1.6937
  567TIP3   OH223115   0.451   6.582  10.409  0.1511  0.4747  0.0730
  567TIP3    H123116   0.539   6.565  10.444 -0.3843 -0.6738  0.8963
  567TIP3    H223117   0.395   6.586  10.486 -0.6021  0.6891 -0.4817
  568TIP3   OH223118   0.795   2.583  10.243  0.0126 -0.2016  0.3690
  568TIP3    H123119   0.765   2.649  10.180  0.4267 -1.2776 -1.0042
  568TIP3    H223120   0.860   2.628  10.296  0.1804  0.5449 -0.4572
  569TIP3   OH223121   0.267   1.485  10.231  0.1263 -0.5740  0.2145
  569TIP3    H123122   0.207   1.491  10.156 -1.4620  0.8103  1.5528
  569TIP3    H223123   0.272   1.392  10.251  1.5527 -1.1023 -2.3564
  570TIP3   OH223124   0.356   0.496  12.621  0.4522 -0.9119 -0.5967
  570TIP3    H123125   0.354   0.541  12.705  0.2157 -0.9411 -0.5880
  570TIP3    H223126   0.330   0.407  12.641 -0.2454 -0.7555 -0.8059
  571TIP3   OH223127   0.604   7.234  10.590 -0.2323 -0.4309  0.1621
  571TIP3    H123128   0.647   7.312  10.557 -0.1544 -0.5726 -0.0751
  571TIP3    H223129   0.673   7.168  10.596 -0.2637 -0.4324  0.5231
  572TIP3   OH223130   1.689   2.232  10.809  0.0613 -0.5078 -0.3454
  572TIP3    H123131   1.610   2.178  10.797 -0.0528  0.0082 -1.9427
  572TIP3    H223132   1.761   2.169  10.811 -0.3465 -0.9535  0.7618
  573TIP3   OH223133   5.334   6.637  12.943 -0.0701 -0.6059 -0.6945
  573TIP3    H123134   5.276   6.651  12.868  1.3467 -0.7475 -1.8424
  573TIP3    H223135   5.356   6.725  12.974 -1.3084 -0.5614  0.0742
  574TIP3   OH223136   2.570   1.421  10.752 -0.0319 -0.1480  0.3069
  574TIP3    H123137   2.658   1.417  10.714 -0.2606 -0.7459 -0.1617
  574TIP3    H223138   2.512   1.390  10.683 -0.6890  0.8919  0.3869
  575TIP3   OH223139   0.823   3.159  11.222  0.1318  0.0436  0.0247
  575TIP3    H123140   0.877   3.137  11.297 -0.4120 -2.2818 -0.2456
  575TIP3    H223141   0.872   3.229  11.177  0.9757  0.6950  1.9033
  576TIP3   OH223142   2.572   1.980  11.757 -0.1996 -0.1132 -0.3599
  576TIP3    H123143   2.571   2.041  11.683  2.0075  0.0752 -0.2699
  576TIP3    H223144   2.557   1.894  11.717  2.3230 -0.1849 -1.2368
  577TIP3   OH223145   1.872   5.693  11.992  0.6711  0.3164  0.5377
  577TIP3    H123146   1.895   5.765  12.051  1.7567  1.8963 -1.7492
  577TIP3    H223147   1.946   5.633  11.997  0.8660  0.5592  0.5723
  578TIP3   OH223148   3.356   0.000  10.765 -0.6480  0.2244  0.6006
  578TIP3    H123149   3.277   0.005  10.712 -0.5847  1.4307  0.6048
  578TIP3    H223150   3.381   0.092  10.780  1.3129 -0.1341 -0.2601
  579TIP3   OH223151   1.396   0.246  10.635  0.1616  0.4622  0.2017
  579TIP3    H123152   1.405   0.293  10.552 -0.3133 -0.3473 -0.3055
  579TIP3    H223153   1.306   0.261  10.663  0.1100  0.1417  0.2139
  580TIP3   OH223154   2.001   1.784  11.064 -0.3680  0.0778  0.0814
  580TIP3    H123155   2.046   1.726  11.004  1.2623  0.0968  1.2633
  580TIP3    H223156   2.068   1.811  11.127 -1.6816  1.2491  1.0190
  581TIP3   OH223157   0.579   2.434  11.131 -0.6717  0.3721 -0.5588
  581TIP3    H123158   0.555   2.363  11.072 -0.0860 -0.7511  0.5249
  581TIP3    H223159   0.514   2.431  11.201  0.3282 -0.2010  0.3714
  582TIP3   OH223160   1.245   1.443  10.432 -0.0255  0.3014 -0.2646
  582TIP3    H123161   1.248   1.412  10.522  0.6111  0.1423 -0.3407
  582TIP3    H223162   1.268   1.367  10.379  2.1992  1.0521 -0.4172
  583TIP3   OH223163   1.381   6.609  15.045  0.2296 -0.1565  0.0605
  583TIP3    H123164   1.410   6.691  15.005 -0.5601 -0.6931 -1.6380
  583TIP3    H223165   1.362   6.632  15.136 -1.9149  1.9840 -0.8853
  584TIP3   OH223166   6.110   7.253  11.180 -0.0562  0.4048 -0.1701
  584TIP3    H123167   6.069   7.303  11.251 -1.5790  1.7446 -1.9265
  584TIP3    H223168   6.038   7.203  11.141  1.1569 -1.9492  0.5410
  585TIP3   OH223169   0.119   1.196  13.403  0.0819  0.0982 -0.4333
  585TIP3    H123170   0.040   1.147  13.422  0.7393 -1.2785 -1.1925
  585TIP3    H223171   0.101   1.285  13.435 -0.7238 -0.8771  1.9048
  586TIP3   OH223172   0.461   1.292  11.931 -0.4665 -0.3055  0.3991
  586TIP3    H123173   0.393   1.312  11.868 -0.0478  1.0166  0.3575
  586TIP3    H223174   0.416   1.289  12.016 -0.7828 -0.6906  0.2183
  587TIP3   OH223175   1.000   7.287  10.169  0.4481  0.1004  0.0404
  587TIP3    H123176   1.091   7.273  10.198  1.0683 -2.8825 -3.0106
  587TIP3    H223177   1.009   7.329  10.083 -1.1440  1.6769  0.6219
  588TIP3   OH223178   2.976   6.774  11.031 -0.2423 -0.1720 -0.1749
  588TIP3    H123179   3.033   6.697  11.038  0.4287  0.5242  2.6181
  588TIP3    H223180   2.888   6.738  11.032  0.0244 -0.8846  2.6704
  589TIP3   OH223181   4.525   4.705  11.073 -0.0965  0.7884 -0.3700
  589TIP3    H123182   4.553   4.630  11.126 -1.7837  0.0664 -0.4826
  589TIP3    H223183   4.465   4.753  11.129 -0.9821  0.6646 -1.2051
  590TIP3   OH223184   3.814   0.131  10.029  0.6420 -0.0988  0.0305
  590TIP3    H123185   3.883   0.073  10.058  1.3274  0.9531  0.5127
  590TIP3    H223186   3.858   0.196   9.973 -0.0483  0.1837 -0.1981
  591TIP3   OH223187   0.596   5.775  10.205  0.1633 -0.0305  0.8341
  591TIP3    H123188   0.645   5.856  10.193 -0.9896  0.5297 -0.2200
  591TIP3    H223189   0.539   5.791  10.280 -1.7306  0.9849 -0.7802
  592TIP3   OH223190   7.153   5.839  11.442 -0.0467  0.0321  0.9294
  592TIP3    H123191   7.129   5.784  11.516  0.2399  0.2150  1.1622
  592TIP3    H223192   7.240   5.873  11.465 -0.3760  0.8604  0.9500
  593TIP3   OH223193   3.534   1.226  11.093 -0.2562  0.2048 -0.4378
  593TIP3    H123194   3.476   1.303  11.095 -0.7091 -0.1470  0.9338
  593TIP3    H223195   3.479   1.154  11.125  0.5976 -0.3676 -0.2417
  594TIP3   OH223196   1.273   0.375  10.137 -0.0753  0.2191  0.3604
  594TIP3    H123197   1.245   0.454  10.091 -0.8493 -0.0500  0.3698
  594TIP3    H223198   1.265   0.305  10.072  0.1183  0.0570  0.5076
  595TIP3   OH223199   1.137   0.825  10.674  0.0111  0.0622 -0.5137
  595TIP3    H123200   1.071   0.824  10.743  1.2203 -1.0237  0.6489
  595TIP3    H223201   1.121   0.745  10.624  0.6721 -0.3854 -0.0104
  596TIP3   OH223202   3.931   0.797  14.096 -0.3066  0.3915  0.1382
  596TIP3    H123203   3.939   0.702  14.086  2.0851  0.5382  0.4230
  596TIP3    H223204   3.837   0.811  14.109 -0.4937 -2.1132  1.9905
  597TIP3   OH223205   1.287   5.849  10.375  0.0213 -0.1443 -0.4468
  597TIP3    H123206   1.357   5.890  10.324 -1.0547  2.5730  0.1386
  597TIP3    H223207   1.295   5.887  10.462 -1.4904 -0.6362 -0.0779
  598TIP3   OH223208   0.885   0.915  14.119  0.9200 -0.0657  0.1797
  598TIP3    H123209   0.975   0.919  14.150  1.5410 -0.6452 -1.5052
  598TIP3    H223210   0.877   0.989  14.059  0.9080 -1.2286 -1.2802
  599TIP3   OH223211   1.306   0.787   9.992  0.6384 -0.0284 -0.6577
  599TIP3    H123212   1.246   0.840   9.940 -2.1810  1.3308  3.7047
  599TIP3    H223213   1.264   0.701   9.998  0.8325 -0.1043 -0.3699
  600TIP3   OH223214   3.993   5.586  10.400 -0.0040 -0.3312 -0.8565
  600TIP3    H123215   4.020   5.606  10.310  1.0850 -2.0669 -0.9356
  600TIP3    H223216   3.897   5.592  10.397  0.0725  0.8331 -1.8185
  601TIP3   OH223217   2.093   5.541  12.087 -0.0500 -0.6075  0.0995
  601TIP3    H123218   2.164   5.536  12.150  0.1340 -1.2026 -0.1493
  601TIP3    H223219   2.134   5.521  12.003 -0.1820  0.7603 -0.2991
  602TIP3   OH223220   5.344   0.319  10.817 -0.0464 -0.5371 -0.0943
  602TIP3    H123221   5.342   0.385  10.885 -2.7674  1.6288 -2.1423
  602TIP3    H223222   5.357   0.368  10.736  0.1729 -2.7261 -1.4416
  603TIP3   OH223223   4.950   3.038  11.709 -0.4112 -0.1617 -0.0900
  603TIP3    H123224   4.884   2.977  11.742 -1.3115  0.7579 -0.1496
  603TIP3    H223225   4.901   3.098  11.652  0.7787 -0.5102 -1.5014
  604TIP3   OH223226   1.410   1.266  12.394 -0.2464 -0.1461 -0.5918
  604TIP3    H123227   1.374   1.178  12.386  0.0423 -0.2710 -0.5398
  604TIP3    H223228   1.334   1.323  12.405 -0.4708 -0.3183 -1.2203
  605TIP3   OH223229   3.609   0.178  11.035  0.0099  0.6056  0.0835
  605TIP3    H123230   3.571   0.222  10.959 -1.2969 -0.5088  0.0692
  605TIP3    H223231   3.578   0.229  11.110 -1.1152  0.0050  0.0387
  606TIP3   OH223232   4.471   1.087  13.643 -0.3826  0.0184  0.6949
  606TIP3    H123233   4.385   1.094  13.601  0.4814 -0.6593 -1.2492
  606TIP3    H223234   4.451   1.074  13.736 -2.3848 -0.0850  0.2770
  607TIP3   OH223235   2.717   0.941  10.648 -0.3729  0.9007  0.2295
  607TIP3    H123236   2.630   0.980  10.636  0.6259  3.5617  1.2933
  607TIP3    H223237   2.745   0.971  10.734  2.2511  1.3732 -0.7487
  608TIP3   OH223238   1.990   4.859  11.020 -0.0041  0.7540  0.1245
  608TIP3    H123239   2.030   4.944  11.000  1.0127  0.0495 -0.9310
  608TIP3    H223240   1.898   4.868  10.996  0.0592  1.6177  0.2088
  609TIP3   OH223241   3.089   1.961  12.948 -0.0730  0.1375 -1.0386
  609TIP3    H123242   3.016   1.913  12.988 -0.3278  0.2430 -1.3721
  609TIP3    H223243   3.063   1.972  12.856  0.5209 -0.1260 -1.2379
  610TIP3   OH223244   2.365   6.100  10.443 -0.5001  0.0873 -0.1312
  610TIP3    H123245   2.387   6.053  10.362  0.6356  1.0030 -0.3601
  610TIP3    H223246   2.432   6.073  10.506 -2.1189 -1.6234  0.9155
  611TIP3   OH223247   4.080   5.687  10.155 -0.4708 -0.2130  0.5456
  611TIP3    H123248   4.168   5.685  10.117 -0.6964  1.7532 -0.1490
  611TIP3    H223249   4.022   5.657  10.084 -0.6224  0.9992  0.1463
  612TIP3   OH223250   3.370   7.074  10.986 -0.5935 -0.3061 -0.3589
  612TIP3    H123251   3.369   7.138  11.057 -0.2941  0.0934 -0.7150
  612TIP3    H223252   3.301   7.101  10.927 -0.7214 -0.5348 -0.3166
  613TIP3   OH223253   1.621   1.534  10.642 -1.1203  0.1241 -0.2488
  613TIP3    H123254   1.588   1.565  10.557  0.0526  1.4751 -0.2293
  613TIP3    H223255   1.699   1.483  10.620 -0.6216  0.7633  0.0574
  614TIP3   OH223256   2.901   6.282  10.467  0.0728  0.2755  0.1392
  614TIP3    H123257   2.994   6.306  10.470 -0.0083  0.4257  1.9872
  614TIP3    H223258   2.868   6.324  10.387  1.7659 -0.4570 -0.9892
  615TIP3   OH223259   6.892   5.466  12.994 -0.2291 -0.8764 -0.4276
  615TIP3    H123260   6.938   5.382  12.988  0.8646 -0.2929 -0.2779
  615TIP3    H223261   6.959   5.529  13.017 -0.9830  0.1099 -0.8650
  616TIP3   OH223262   5.872   7.212  11.030  0.2633 -0.2651  0.4565
  616TIP3    H123263   5.799   7.164  11.071 -0.0484  1.7739  2.3470
  616TIP3    H223264   5.829   7.277  10.974  0.6768 -0.6502 -0.3197
  617TIP3   OH223265   0.031   2.116  13.884 -0.6903 -0.1125  0.3206
  617TIP3    H123266   0.067   2.189  13.833 -3.1693  1.3642  0.6258
  617TIP3    H223267  -0.050   2.093  13.839 -1.1103 -1.1380  1.5883
  618TIP3   OH223268   3.975   2.007  13.394  0.3110  0.4965  0.0297
  618TIP3    H123269   4.065   1.982  13.374  0.5160  0.1187  1.3789
  618TIP3    H223270   3.938   2.035  13.310  0.8331 -1.9655 -1.0531
  619TIP3   OH223271   1.834   1.437  11.132  0.4817 -0.5562 -0.2687
  619TIP3    H123272   1.785   1.519  11.138 -0.4487 -1.2376  2.2111
  619TIP3    H223273   1.858   1.429  11.039 -1.8717  1.0930 -1.0521
  620TIP3   OH223274   4.192   1.390  13.708 -0.5330 -0.3295  0.3117
  620TIP3    H123275   4.233   1.461  13.757  0.8787 -1.0822  0.2633
  620TIP3    H223276   4.109   1.426  13.677  0.3745  1.4535 -0.1097
  621TIP3   OH223277   1.132   0.542  12.494  0.1106  0.0559 -0.1357
  621TIP3    H123278   1.120   0.454  12.457  0.5139  0.3605 -0.9929
  621TIP3    H223279   1.158   0.525  12.585  1.5675 -0.7544 -0.6793
  622TIP3   OH223280   5.474   5.879  12.389 -0.0552  0.3232 -0.3201
  622TIP3    H123281   5.512   5.912  12.471  0.4349 -3.4203  1.0705
  622TIP3    H223282   5.382   5.904  12.393  0.0519  0.5546  1.2319
  623TIP3   OH223283   3.446   5.666  11.355  0.1003 -0.2182  0.4212
  623TIP3    H123284   3.387   5.602  11.394  0.6643 -0.1387  1.4129
  623TIP3    H223285   3.406   5.751  11.377  0.4507 -0.1719  0.8852
  624TIP3   OH223286   1.799   5.652  11.489  0.3090  0.2345 -0.2112
  624TIP3    H123287   1.771   5.743  11.491 -0.5732 -0.0632  1.9461
  624TIP3    H223288   1.853   5.642  11.568 -0.3425 -1.3291  0.0430
  625TIP3   OH223289   0.879   2.670  12.304 -0.3645  0.2857  0.1866
  625TIP3    H123290   0.961   2.643  12.264 -1.8453 -1.3954 -1.8574
  625TIP3    H223291   0.868   2.612  12.379 -0.0356  0.0214  0.0332
  626TIP3   OH223292   0.691   7.192  11.047 -0.4880  0.6592 -0.2700
  626TIP3    H123293   0.708   7.099  11.038 -1.7521  0.4417 -0.5736
  626TIP3    H223294   0.777   7.233  11.052  0.0703 -0.4796 -0.5993
  627TIP3   OH223295   3.431   6.774  11.926  0.6332 -0.4085 -0.5502
  627TIP3    H123296   3.348   6.775  11.973  0.4834  3.7944 -0.6817
  627TIP3    H223297   3.496   6.751  11.992 -0.0627  1.4909  0.8462
  628TIP3   OH223298   2.947   6.566  12.559 -0.1183  0.0934 -0.0402
  628TIP3    H123299   3.027   6.514  12.547 -0.9326 -1.1728 -0.0833
  628TIP3    H223300   2.902   6.560  12.475 -0.4088  0.5447  0.0831
  629TIP3   OH223301   4.584   5.999  11.535 -0.4764 -0.1984  0.7647
  629TIP3    H123302   4.581   6.012  11.440  1.3839  4.4963  1.1931
  629TIP3    H223303   4.657   5.940  11.549 -0.4213 -0.5085 -0.7073
  630TIP3   OH223304   4.025   1.074  11.486 -0.0254 -0.4407 -0.2182
  630TIP3    H123305   4.046   1.160  11.522 -0.7733 -0.7483  0.9847
  630TIP3    H223306   3.931   1.065  11.500 -0.0542 -1.1982 -0.8998
  631TIP3   OH223307   2.303   0.892  10.806  0.1531  0.3757 -0.4731
  631TIP3    H123308   2.308   0.823  10.872 -0.8552  1.2380  0.5388
  631TIP3    H223309   2.340   0.969  10.849  1.1460  0.4989 -1.5460
  632TIP3   OH223310   2.641   0.618  10.729 -0.0995 -0.1215  0.1473
  632TIP3    H123311   2.641   0.523  10.737  1.0817 -0.2798 -1.5614
  632TIP3    H223312   2.654   0.635  10.636 -1.4181  1.7155  0.2551
  633TIP3   OH223313   7.114   5.420  11.512 -0.3469  0.1797 -0.8594
  633TIP3    H123314   7.151   5.474  11.443  0.1488  0.4250 -0.4062
  633TIP3    H223315   7.069   5.349  11.466  0.2882  0.1406 -1.4213
  634TIP3   OH223316   1.037   2.066  14.811 -0.3479  0.4529 -0.5925
  634TIP3    H123317   1.113   2.118  14.835 -2.4445  2.4443  2.0635
  634TIP3    H223318   1.058   2.031  14.724  2.7975  2.4275 -0.7024
  635TIP3   OH223319   4.183   3.358  12.077  0.7798 -0.4913  0.3000
  635TIP3    H123320   4.172   3.392  12.166  1.1226 -1.1331  0.5871
  635TIP3    H223321   4.097   3.325  12.053  0.3403  0.9424 -0.1315
  636TIP3   OH223322   4.771   1.756   9.975 -0.4475  0.7364 -0.7670
  636TIP3    H123323   4.864   1.769   9.958 -0.5101  1.8654 -0.3063
  636TIP3    H223324   4.761   1.662   9.990  0.3096  0.3290 -2.7027
  637TIP3   OH223325   6.462   4.673  10.544  0.1623  0.4678  0.5838
  637TIP3    H123326   6.407   4.751  10.545  0.0455  0.4634 -2.1728
  637TIP3    H223327   6.480   4.655  10.637 -1.7738  2.3469  1.3584
  638TIP3   OH223328   3.304   6.638  10.997  0.0361  0.0457 -0.0869
  638TIP3    H123329   3.318   6.549  10.964  0.4883  0.4819 -1.0941
  638TIP3    H223330   3.253   6.626  11.077  0.6023 -1.1551  0.1053
  639TIP3   OH223331   1.011   2.407  11.949  0.0600 -0.9083 -0.0839
  639TIP3    H123332   0.969   2.380  12.030  0.1811 -2.3156 -0.4673
  639TIP3    H223333   0.991   2.336  11.887 -0.7704  0.5378 -1.5298
  640TIP3   OH223334   3.456   0.262  10.817 -0.1069  0.3492  0.1049
  640TIP3    H123335   3.482   0.302  10.734  1.7281  0.1235  0.5509
  640TIP3    H223336   3.391   0.323  10.853 -1.2978  0.1950 -1.6935
  641TIP3   OH223337   3.052   6.506  10.616 -0.0549  0.2511 -0.3411
  641TIP3    H123338   2.966   6.511  10.574  0.1894 -0.4270 -0.9280
  641TIP3    H223339   3.032   6.500  10.709 -0.6366  0.2754 -0.4589
  642TIP3   OH223340   5.251   0.858  12.011 -0.4459 -0.2137 -0.4153
  642TIP3    H123341   5.161   0.825  12.014 -0.6509  0.4458  1.6495
  642TIP3    H223342   5.246   0.942  12.057  1.0753  0.1908 -0.9850
  643TIP3   OH223343   1.628   0.317  11.196  0.1860  0.4860 -0.1756
  643TIP3    H123344   1.555   0.289  11.251 -1.1146 -0.3547 -2.2579
  643TIP3    H223345   1.588   0.333  11.110  2.2047  1.5112 -0.9557
  644TIP3   OH223346   6.055   6.063  14.209 -0.2183  0.4918  0.9299
  644TIP3    H123347   6.095   6.146  14.237 -0.0413  0.3929  0.9699
  644TIP3    H223348   5.962   6.074  14.229 -0.2858  0.9028  0.3995
  645TIP3   OH223349   1.148   2.600  11.299 -0.0851  0.6069  0.1865
  645TIP3    H123350   1.229   2.569  11.259 -0.0501 -0.0700  0.7667
  645TIP3    H223351   1.108   2.656  11.232 -0.1021 -0.6137 -0.8465
  646TIP3   OH223352   6.607   1.275  10.630 -0.0084  0.0598 -0.1686
  646TIP3    H123353   6.625   1.350  10.687 -1.6207  0.8720 -0.7090
  646TIP3    H223354   6.691   1.254  10.590  0.7865  0.5601  1.2152
  647TIP3   OH223355   0.119   3.287  10.578 -0.3568 -0.2659 -0.2546
  647TIP3    H123356   0.146   3.278  10.670 -2.1371  0.1725  0.3317
  647TIP3    H223357   0.134   3.379  10.557 -2.0838  0.1580  0.3135
  648TIP3   OH223358   4.274   1.580  10.407 -0.5293 -0.3391 -0.4548
  648TIP3    H123359   4.347   1.563  10.348 -1.2032 -0.4327 -1.2651
  648TIP3    H223360   4.209   1.512  10.387 -0.9368 -0.1245  0.1004
  649TIP3   OH223361   0.806   0.431  12.120  0.4354 -0.1175 -0.7544
  649TIP3    H123362   0.815   0.526  12.134  1.9285 -0.6083  2.0727
  649TIP3    H223363   0.829   0.418  12.028 -0.5666  2.3415 -1.4048
  650TIP3   OH223364   4.643   0.507  11.503 -0.0950  0.9557 -0.0557
  650TIP3    H123365   4.736   0.486  11.507 -0.2932 -0.2540 -1.4093
  650TIP3    H223366   4.640   0.600  11.478  0.7517  0.4017 -2.3507
  651TIP3   OH223367   0.395   0.352  11.152  0.1523 -0.0675 -0.1869
  651TIP3    H123368   0.407   0.400  11.070 -2.6228 -1.8931 -1.7640
  651TIP3    H223369   0.446   0.272  11.141  1.8568  0.8456  0.9509
  652TIP3   OH223370   1.838   6.878  11.047 -0.0691  0.0053 -0.4352
  652TIP3    H123371   1.844   6.867  10.952  0.8449  0.6495 -0.4583
  652TIP3    H223372   1.879   6.799  11.082  0.4569  0.2164 -0.5758
  653TIP3   OH223373   4.000   6.170  11.916  0.0326  0.2862 -0.1851
  653TIP3    H123374   3.981   6.192  12.007  1.2801  0.3449  0.0794
  653TIP3    H223375   3.984   6.250  11.868 -0.1347  0.3998  0.0571
  654TIP3   OH223376   4.585   0.813  13.623  0.6331  0.1551  0.0878
  654TIP3    H123377   4.611   0.903  13.604 -0.0153  0.1444 -0.8967
  654TIP3    H223378   4.494   0.808  13.594  0.9300 -1.0651 -0.6662
  655TIP3   OH223379   5.756   1.873  10.658  0.2644  0.3356 -0.6949
  655TIP3    H123380   5.827   1.820  10.621  0.3053  2.4258 -3.7581
  655TIP3    H223381   5.684   1.863  10.597 -0.4341  2.1235 -0.1882
  656TIP3   OH223382   3.677   2.046  10.455 -0.0837  0.7171 -0.0973
  656TIP3    H123383   3.656   2.022  10.365 -0.4782 -1.0483  0.4434
  656TIP3    H223384   3.592   2.054  10.498  0.1440 -0.9394  0.7176
  657TIP3   OH223385   5.291   6.856  11.177  0.1406  0.0968  0.5827
  657TIP3    H123386   5.207   6.846  11.132 -0.4726 -0.0980  1.7520
  657TIP3    H223387   5.323   6.942  11.150 -1.0184  0.6979  1.0991
  658TIP3   OH223388   4.463   3.611  10.794  0.2028 -0.5012 -0.6088
  658TIP3    H123389   4.398   3.611  10.724  0.6784 -0.6771 -1.0539
  658TIP3    H223390   4.545   3.636  10.750  0.4217 -0.2170 -0.0402
  659TIP3   OH223391   4.951   6.092  12.073 -0.2995 -0.0601 -0.0046
  659TIP3    H123392   4.961   6.181  12.039 -1.3362 -0.0628 -0.3381
  659TIP3    H223393   4.859   6.070  12.054  0.0874 -1.3757 -0.3671
  660TIP3   OH223394   2.652   6.995  11.786  0.3861  0.4595  0.0737
  660TIP3    H123395   2.693   6.926  11.839 -0.7142 -1.1311 -1.0823
  660TIP3    H223396   2.581   7.027  11.841 -0.0598 -0.4091  0.0188
  661TIP3   OH223397   2.533   1.689  11.995 -0.6050  0.7172 -0.1617
  661TIP3    H123398   2.532   1.699  11.900  0.9126 -0.4094 -0.3057
  661TIP3    H223399   2.614   1.643  12.014 -2.3609 -1.8568  1.4011
  662TIP3   OH223400   3.274   5.953  12.606 -0.2340  0.2061  0.2132
  662TIP3    H123401   3.344   6.018  12.593  0.2510 -0.3020  0.2498
  662TIP3    H223402   3.199   5.990  12.560  0.2665  0.4262 -0.4449
  663TIP3   OH223403   6.665   6.628  15.196  0.0229  0.2004 -0.4076
  663TIP3    H123404   6.727   6.645  15.267  0.2386  0.6299 -0.6932
  663TIP3    H223405   6.653   6.533  15.196 -0.3211  0.2446  0.4880
  664TIP3   OH223406   2.865   1.824  14.938  0.0980 -0.1241 -0.4833
  664TIP3    H123407   2.933   1.888  14.959  1.3266 -1.5046 -0.2106
  664TIP3    H223408   2.820   1.861  14.862 -0.1472  1.7454  0.5204
  665TIP3   OH223409   0.453   6.774  11.096  0.5580  0.5370  0.1006
  665TIP3    H123410   0.500   6.797  11.176 -0.3301  0.0491  0.7754
  665TIP3    H223411   0.522   6.749  11.034  1.0881 -3.3318  2.0714
  666TIP3   OH223412   3.071   6.156  11.112 -0.3220 -0.1690  0.0210
  666TIP3    H123413   3.147   6.174  11.057 -0.6462  1.6369  0.1418
  666TIP3    H223414   3.076   6.222  11.181 -1.3102 -0.8403  0.7459
  667TIP3   OH223415   2.408   5.994  11.237 -0.1886  0.3659 -0.5046
  667TIP3    H123416   2.353   6.044  11.177 -1.0905 -1.5596 -1.2957
  667TIP3    H223417   2.497   6.012  11.208 -0.5112  1.2796 -0.9547
  668TIP3   OH223418   6.001   1.748  11.738 -0.0485 -0.3852 -0.8547
  668TIP3    H123419   5.913   1.756  11.774  0.1210 -0.2639 -0.4501
  668TIP3    H223420   5.989   1.719  11.648 -0.4539 -1.5622 -0.4331
  669TIP3   OH223421   4.179   3.838  14.703  0.2824  0.2291  0.0130
  669TIP3    H123422   4.115   3.908  14.690  1.6183  1.3072 -0.9323
  669TIP3    H223423   4.255   3.864  14.650 -0.1330 -3.2121 -2.5085
  670TIP3   OH223424   1.612   7.094  12.613  0.3935 -0.8334  0.5081
  670TIP3    H123425   1.576   7.117  12.698 -1.2406  0.8001 -0.6002
  670TIP3    H223426   1.548   7.126  12.549  1.3308 -2.4583 -1.3339
  671TIP3   OH223427   2.447   0.973  11.630  0.4495 -0.4319 -0.1334
  671TIP3    H123428   2.471   1.048  11.684 -1.7691  1.9579 -2.3288
  671TIP3    H223429   2.512   0.973  11.560  0.2231 -0.3220 -0.3438
  672TIP3   OH223430   6.161   6.259  11.852 -0.2449  0.4190 -0.2506
  672TIP3    H123431   6.256   6.263  11.840  0.1935 -1.5691  2.1563
  672TIP3    H223432   6.141   6.334  11.907  0.3381 -0.5145  1.2869
  673TIP3   OH223433   3.700   0.475  13.035  0.2831  1.0225 -0.4419
  673TIP3    H123434   3.727   0.509  12.949 -2.9594  1.6320 -1.2928
  673TIP3    H223435   3.636   0.407  13.014 -0.2191  0.8749  1.5253
  674TIP3   OH223436   4.627   1.213  15.263 -0.3662  0.1874 -0.5315
  674TIP3    H123437   4.542   1.199  15.304  0.1690  1.2219  0.9506
  674TIP3    H223438   4.606   1.248  15.176 -1.4730 -0.8614 -0.6954
  675TIP3   OH223439   2.559   2.785  11.472  0.1143  0.0820  0.2526
  675TIP3    H123440   2.547   2.692  11.490 -0.9221  0.5154  1.8928
  675TIP3    H223441   2.476   2.813  11.433  0.3814  0.3479 -0.1319
  676TIP3   OH223442   0.596   6.185  12.276  0.2488  0.2670  0.1439
  676TIP3    H123443   0.664   6.210  12.338 -2.1320  2.5525  1.9200
  676TIP3    H223444   0.515   6.222  12.311 -1.6000 -0.5077 -3.0257
  677TIP3   OH223445   1.419   1.535  10.213 -0.5493  0.5523  0.2500
  677TIP3    H123446   1.418   1.536  10.309 -0.4049 -0.6126  0.2745
  677TIP3    H223447   1.473   1.610  10.189 -0.1387  0.5390  1.0962
  678TIP3   OH223448   4.253   3.984  10.978 -0.1728 -0.2752 -0.5035
  678TIP3    H123449   4.334   4.013  10.937  0.9548 -3.0865 -0.3652
  678TIP3    H223450   4.191   3.976  10.905  1.0902 -2.7863 -1.3416
  679TIP3   OH223451   4.617   1.868  13.362  0.0120  0.1173 -0.0443
  679TIP3    H123452   4.600   1.784  13.405  0.7810 -0.1243 -0.1881
  679TIP3    H223453   4.680   1.912  13.419  1.1150 -0.2466 -0.9387
  680TIP3   OH223454   3.452   6.843  11.129  0.0171 -0.0430  0.6355
  680TIP3    H123455   3.390   6.776  11.102  1.7285 -0.5750 -2.1770
  680TIP3    H223456   3.424   6.922  11.084  0.7273 -0.0128  0.2460
  681TIP3   OH223457   1.773   5.714  12.579  0.4941 -0.4174  0.2572
  681TIP3    H123458   1.747   5.780  12.515 -0.8720 -1.2492 -0.0574
  681TIP3    H223459   1.732   5.742  12.661  1.7206  0.3007  0.6468
  682TIP3   OH223460   0.837   1.139  11.190  0.2458  0.5525  0.2070
  682TIP3    H123461   0.908   1.134  11.254  1.8114 -2.7828 -1.6532
  682TIP3    H223462   0.880   1.138  11.105 -1.9269  1.8695 -0.9683
  683TIP3   OH223463   5.246   2.646  12.845  0.2018  0.3077 -0.2703
  683TIP3    H123464   5.290   2.674  12.765 -1.3546 -0.6638 -1.5090
  683TIP3    H223465   5.158   2.622  12.817 -1.5146  3.1530  2.2731
  684TIP3   OH223466   1.257   2.789  10.445  0.6094 -0.2434  0.7282
  684TIP3    H123467   1.264   2.799  10.540  0.6631  2.8271  0.4542
  684TIP3    H223468   1.336   2.830  10.410 -1.0313  1.8343 -0.7417
  685TIP3   OH223469   3.983   1.364  11.301 -0.0254 -0.0790 -0.2052
  685TIP3    H123470   3.891   1.369  11.325 -0.3969 -1.3070 -1.3187
  685TIP3    H223471   4.030   1.389  11.381 -1.2616 -2.4009  1.2991
  686TIP3   OH223472   3.410   1.561  12.911  0.2592  0.2525 -0.1332
  686TIP3    H123473   3.419   1.474  12.871  0.3424  0.4931 -0.6411
  686TIP3    H223474   3.327   1.594  12.877 -0.0617  0.1345  0.5251
  687TIP3   OH223475   3.094   2.157  11.378 -0.0337 -0.7059  0.2362
  687TIP3    H123476   3.176   2.114  11.404 -0.1192 -1.7740 -1.2537
  687TIP3    H223477   3.060   2.105  11.306 -1.4076  0.4486  0.0171
  688TIP3   OH223478   3.414   1.690  10.118 -0.2457 -0.1503 -0.5567
  688TIP3    H123479   3.453   1.695  10.031  2.5505  1.9874  0.7360
  688TIP3    H223480   3.369   1.773  10.130 -1.5684 -0.8799 -0.3708
  689TIP3   OH223481   2.385   7.039  11.004  0.2122 -0.8087  0.2250
  689TIP3    H123482   2.293   7.058  11.019  0.8904  0.1734  3.3399
  689TIP3    H223483   2.408   6.973  11.069  2.4280  1.1332  1.4773
  690TIP3   OH223484   2.557   1.923  10.270  0.1678  0.2451  0.2052
  690TIP3    H123485   2.484   1.984  10.284  0.1148  0.1587  0.3003
  690TIP3    H223486   2.619   1.973  10.216  1.3564  1.3188  2.5036
  691TIP3   OH223487   3.161   5.887  11.749 -0.1437 -0.7399 -0.4773
  691TIP3    H123488   3.238   5.850  11.792 -0.2714 -1.1276 -0.5819
  691TIP3    H223489   3.196   5.939  11.677  0.0460 -0.4942 -0.2087
  692TIP3   OH223490   0.292   5.164  13.841 -0.4470  0.1914 -0.5652
  692TIP3    H123491   0.325   5.158  13.751 -0.5953  2.3277 -0.7790
  692TIP3    H223492   0.306   5.255  13.866 -0.5880 -0.3261  1.5291
  693TIP3   OH223493   4.270   1.298  10.070 -0.1957 -0.8633  0.1423
  693TIP3    H123494   4.357   1.265  10.094 -0.5234 -1.6374  0.2838
  693TIP3    H223495   4.254   1.262   9.983  0.0931  0.1948 -0.3529
  694TIP3   OH223496   4.799   0.676  11.934 -0.1212 -0.0191  0.5263
  694TIP3    H123497   4.794   0.725  12.016 -1.8630  0.3487  0.2146
  694TIP3    H223498   4.792   0.584  11.960  0.6428  0.0152  0.8849
  695TIP3   OH223499   1.335   3.855  12.848 -0.1393 -0.1993  0.5677
  695TIP3    H123500   1.335   3.850  12.752 -1.1373 -1.4483  0.6172
  695TIP3    H223501   1.252   3.815  12.874 -0.8264  1.9881  1.8748
  696TIP3   OH223502   4.374   6.194  10.666 -0.5797 -1.0740 -0.1063
  696TIP3    H123503   4.432   6.244  10.608  0.1125 -2.4677 -0.6454
  696TIP3    H223504   4.288   6.233  10.653  0.4166  1.8023  1.5738
  697TIP3   OH223505   3.020   3.338  12.839  0.2509  0.0300 -0.3066
  697TIP3    H123506   3.094   3.331  12.900 -1.3184  1.7805  1.9079
  697TIP3    H223507   2.950   3.286  12.879 -0.2676 -0.1776 -1.4661
  698TIP3   OH223508   2.780   3.581  15.045 -0.0896  0.4310 -0.8101
  698TIP3    H123509   2.852   3.571  15.107 -0.0609  1.0627 -0.7394
  698TIP3    H223510   2.789   3.670  15.011 -2.1681  1.3384  0.9010
  699TIP3   OH223511   1.427   6.029  11.307  0.0921  0.2596  0.1707
  699TIP3    H123512   1.372   5.985  11.371  0.1710 -0.0027  0.0574
  699TIP3    H223513   1.366   6.080  11.253  0.0255  0.4750  0.4504
  700TIP3   OH223514   3.716   5.084  11.938 -0.1562 -0.0032  0.1968
  700TIP3    H123515   3.788   5.140  11.967 -1.3860  1.1072  1.1482
  700TIP3    H223516   3.637   5.136  11.952 -1.1082 -0.9313 -1.5048
  701TIP3   OH223517   3.791   1.582  10.811 -0.2136  0.4608 -0.1375
  701TIP3    H123518   3.797   1.518  10.882  2.4944  1.9037  1.0263
  701TIP3    H223519   3.773   1.530  10.733  0.1574 -1.5267  1.0623
  702TIP3   OH223520   2.264   1.294   9.930 -0.3060  0.0336 -0.0204
  702TIP3    H123521   2.172   1.270   9.924 -0.3315  0.3170 -0.8677
  702TIP3    H223522   2.312   1.212   9.918 -0.4515 -0.2080  1.0023
  703TIP3   OH223523   2.649   3.044  11.424  0.5634 -0.2170  0.0699
  703TIP3    H123524   2.741   3.032  11.399  1.0179  1.4547  0.8853
  703TIP3    H223525   2.625   2.961  11.467  1.5091 -0.8652 -0.6235
  704TIP3   OH223526   0.838   6.239  11.332  0.1419  0.2892  0.4414
  704TIP3    H123527   0.812   6.329  11.313 -0.1761  0.0858 -0.1157
  704TIP3    H223528   0.763   6.201  11.376 -0.1735 -0.0480 -0.3866
  705TIP3   OH223529   4.339   5.784  11.060  0.6807  0.3416  1.0366
  705TIP3    H123530   4.255   5.760  11.099 -0.0658  3.4226  1.4793
  705TIP3    H223531   4.322   5.783  10.965 -0.7080  3.4826  1.1626
  706TIP3   OH223532   2.182   3.735  11.602 -0.2663 -0.9550 -0.3230
  706TIP3    H123533   2.146   3.668  11.660 -0.9934 -0.1766  0.1342
  706TIP3    H223534   2.154   3.817  11.641 -1.7088 -0.4377 -2.3952
  707TIP3   OH223535   3.684   1.824  10.956  0.1514 -0.1237  0.3840
  707TIP3    H123536   3.732   1.816  11.038 -2.6530 -1.3732  1.9815
  707TIP3    H223537   3.726   1.760  10.898  1.7764  0.3431  1.0151
  708TIP3   OH223538   3.969   6.861  10.314  0.0774 -0.5559 -0.3642
  708TIP3    H123539   4.020   6.871  10.234 -1.1373 -0.0894 -1.1099
  708TIP3    H223540   3.990   6.939  10.365  0.4066 -0.5587 -0.4954
  709TIP3   OH223541   2.596   2.820  12.211  0.2704  0.5676 -0.5204
  709TIP3    H123542   2.557   2.879  12.146  1.4500 -0.8333 -2.5260
  709TIP3    H223543   2.690   2.824  12.194  0.4877 -0.7186  0.3394
  710TIP3   OH223544   1.719   1.763  12.558 -0.1463  0.4279  0.0742
  710TIP3    H123545   1.783   1.832  12.578 -0.0122  0.6326 -1.0546
  710TIP3    H223546   1.655   1.769  12.629  2.1952 -1.1541  2.3966
  711TIP3   OH223547   1.257   6.915  11.205  0.6242 -0.4140 -0.0352
  711TIP3    H123548   1.294   6.826  11.202 -0.2738 -0.7436 -2.6253
  711TIP3    H223549   1.169   6.905  11.169  0.7361  1.6344 -0.8915
  712TIP3   OH223550   1.503   6.123  12.454  0.1026  0.6806 -0.0544
  712TIP3    H123551   1.466   6.165  12.376 -0.2803 -0.0539 -0.2716
  712TIP3    H223552   1.427   6.105  12.510  0.0266 -1.4240 -0.7861
  713TIP3   OH223553   3.299   2.602  10.329  0.2240 -0.2224  0.1797
  713TIP3    H123554   3.286   2.521  10.280  2.2608 -0.7385  0.4690
  713TIP3    H223555   3.394   2.607  10.343 -0.0102  1.5683  1.2532
  714TIP3   OH223556   1.909   1.564  11.378  0.1268  0.0862  0.2131
  714TIP3    H123557   1.900   1.507  11.301  0.1050  0.1936  0.1358
  714TIP3    H223558   1.870   1.513  11.449  1.2222 -0.5080  0.3966
  715TIP3   OH223559   4.259   1.009  11.965  0.0764  0.3216  0.2664
  715TIP3    H123560   4.170   0.989  11.992 -0.3839  1.4832 -0.3473
  715TIP3    H223561   4.315   0.965  12.029 -0.9253 -0.7139  0.4375
  716TIP3   OH223562   2.847   4.453  12.826  0.6628  0.7498 -0.2659
  716TIP3    H123563   2.805   4.526  12.780  1.7576  1.0874 -0.7461
  716TIP3    H223564   2.814   4.375  12.782 -1.5203  0.8786  1.0746
  717TIP3   OH223565   2.181   1.630  13.720 -0.4550  0.4384  0.6705
  717TIP3    H123566   2.090   1.603  13.735  0.0694 -0.6065  2.0382
  717TIP3    H223567   2.219   1.637  13.808  0.2870  2.7361  0.2138
  718TIP3   OH223568   1.044   5.294  10.923 -0.1498 -0.0367 -0.0480
  718TIP3    H123569   0.952   5.321  10.924 -0.3016 -0.5280 -0.6214
  718TIP3    H223570   1.043   5.201  10.945  0.1088 -0.3179 -1.1882
  719TIP3   OH223571   5.124   2.571  11.041  0.0020  0.3845 -0.2798
  719TIP3    H123572   5.057   2.526  10.990  0.5881 -2.6971  1.5341
  719TIP3    H223573   5.076   2.631  11.098 -0.9103  0.9799 -1.6554
  720TIP3   OH223574   3.077   7.251  11.931  0.0410  0.7865 -0.6277
  720TIP3    H123575   3.143   7.187  11.905 -1.2280 -0.5232 -0.6788
  720TIP3    H223576   3.107   7.282  12.016  0.7557  0.2567 -0.6756
  721TIP3   OH223577   6.830   3.963  12.033  0.0400  0.3424  0.0044
  721TIP3    H123578   6.766   3.945  11.964 -0.6060  0.7985  0.4693
  721TIP3    H223579   6.911   3.923  12.003 -1.1512 -2.6362  0.6590
  722TIP3   OH223580   3.971   4.758  12.416 -0.0377 -0.1447  0.1745
  722TIP3    H123581   4.035   4.695  12.381 -0.1110 -0.4917  0.6623
  722TIP3    H223582   3.941   4.719  12.498 -0.0001  0.5894  0.5429
  723TIP3   OH223583   5.032   0.792  12.200 -0.2470  0.3859  0.6085
  723TIP3    H123584   5.116   0.805  12.242 -0.3056 -0.0126  0.8533
  723TIP3    H223585   4.992   0.720  12.248 -1.2384  1.3554  1.2529
  724TIP3   OH223586   3.803   4.836  12.111 -0.0408 -0.3454 -0.2795
  724TIP3    H123587   3.778   4.822  12.019  1.6551  0.7075 -0.9168
  724TIP3    H223588   3.898   4.827  12.111  0.1485  1.4700  1.0537
  725TIP3   OH223589   2.513   5.438  11.562 -0.3031  0.2751  0.1705
  725TIP3    H123590   2.588   5.480  11.604  0.1613  1.5755 -1.8743
  725TIP3    H223591   2.548   5.357  11.525 -0.0227  0.5951 -0.2732
  726TIP3   OH223592   3.572   6.962  12.144 -0.2658  0.0870 -0.4123
  726TIP3    H123593   3.584   6.867  12.145 -1.3223 -0.0613 -1.6664
  726TIP3    H223594   3.637   6.994  12.081  0.2369  0.2289  0.1705
  727TIP3   OH223595   4.617   2.408  13.246  0.0165 -0.1100 -0.0505
  727TIP3    H123596   4.709   2.389  13.259 -0.4236 -1.4855  1.2335
  727TIP3    H223597   4.604   2.494  13.284  0.8784  0.3150 -0.7185
  728TIP3   OH223598   2.703   0.916   9.974 -0.2711  0.8276  0.4321
  728TIP3    H123599   2.622   0.959   9.948 -0.7612 -0.9730 -1.1620
  728TIP3    H223600   2.769   0.985   9.971 -1.6573  2.2428  1.4073
  729TIP3   OH223601   4.028   6.002  12.362 -0.2611  0.1368 -0.6266
  729TIP3    H123602   4.057   5.976  12.450 -1.9824  0.1786 -0.0227
  729TIP3    H223603   4.000   5.921  12.321  1.1749  0.0178 -1.4031
  730TIP3   OH223604   1.547   2.890  10.791 -0.3123  1.0888  0.6450
  730TIP3    H123605   1.453   2.873  10.778  0.3841 -0.9919 -1.9858
  730TIP3    H223606   1.567   2.959  10.728  0.2579  0.3810  0.0479
  731TIP3   OH223607   4.091   0.632  11.171 -0.0676 -0.0576 -0.3574
  731TIP3    H123608   4.095   0.626  11.266  1.3840 -0.0373 -0.4190
  731TIP3    H223609   4.015   0.688  11.154 -0.8063 -0.6919  0.7577
  732TIP3   OH223610   4.110   0.093  12.583  0.3512  0.4827 -0.1409
  732TIP3    H123611   4.138   0.012  12.625 -1.2267 -0.2530 -0.4894
  732TIP3    H223612   4.052   0.065  12.512  1.9972  1.7659 -2.0453
  733TIP3   OH223613   1.826   0.672  11.791  0.2173 -0.2420  0.2582
  733TIP3    H123614   1.899   0.612  11.806  1.1495  1.5249  3.2884
  733TIP3    H223615   1.785   0.682  11.877 -1.1064  1.8971 -0.5885
  734TIP3   OH223616   3.239   0.819  11.661  0.2099  0.0903  0.2885
  734TIP3    H123617   3.254   0.911  11.685 -0.0501  0.6751 -1.6996
  734TIP3    H223618   3.319   0.774  11.690  0.5730  1.0306  0.8040
  735TIP3   OH223619   2.789   1.611  12.723  0.3423  0.0298  0.6525
  735TIP3    H123620   2.870   1.636  12.679  0.7885 -0.0534  1.4173
  735TIP3    H223621   2.773   1.521  12.693 -0.1820  0.5022 -0.5225
  736TIP3   OH223622   4.350   0.636  11.090  0.1398  0.0477  0.0642
  736TIP3    H123623   4.349   0.625  10.995 -1.1283  0.7032 -0.0077
  736TIP3    H223624   4.262   0.666  11.112  0.0607 -1.2118  1.5866
  737TIP3   OH223625   2.701   1.105  11.114  0.1747 -0.4403 -0.4779
  737TIP3    H123626   2.755   1.095  11.036  1.0207 -0.7352  0.1310
  737TIP3    H223627   2.720   1.027  11.166 -1.9351 -1.2787 -0.8987
  738TIP3   OH223628   2.317   6.235  12.016  0.5046  0.3214 -0.3268
  738TIP3    H123629   2.368   6.208  11.939 -0.6180 -2.5127 -0.1630
  738TIP3    H223630   2.255   6.163  12.029 -1.6326  2.3752  1.1874
  739TIP3   OH223631   3.500   5.315  10.885 -0.3227 -0.2018 -0.0968
  739TIP3    H123632   3.459   5.381  10.941 -0.7739  0.1973 -0.8845
  739TIP3    H223633   3.431   5.251  10.868  0.0920 -0.8447  0.5994
  740TIP3   OH223634   6.110   6.935  10.335  0.0834 -0.2104  0.4115
  740TIP3    H123635   6.072   6.852  10.306  0.7787 -0.2149 -0.4823
  740TIP3    H223636   6.156   6.969  10.258  1.4267  0.0675  1.3244
  741TIP3   OH223637   4.379   6.609  11.088  0.4877  0.6266 -0.4035
  741TIP3    H123638   4.327   6.645  11.016  0.4072  0.9403 -0.1928
  741TIP3    H223639   4.433   6.683  11.118 -1.5682  1.3119  1.7455
  742TIP3   OH223640   3.197   6.858  10.775 -0.0218  0.0134  0.4176
  742TIP3    H123641   3.254   6.806  10.832  0.4737  0.9845  0.8228
  742TIP3    H223642   3.168   6.796  10.708 -1.0960 -1.3058  2.0433
  743TIP3   OH223643   3.235   7.188  12.794  0.4242 -0.6832  0.0590
  743TIP3    H123644   3.219   7.205  12.887 -0.0739  2.1953 -0.5042
  743TIP3    H223645   3.273   7.101  12.792  2.4985  0.0594  3.1818
  744TIP3   OH223646   4.832   5.349  12.007 -0.0203 -0.7509 -0.1650
  744TIP3    H123647   4.879   5.300  12.075  0.1598  1.9779  1.7392
  744TIP3    H223648   4.739   5.335  12.028  0.0346  0.0099  0.6008
  745TIP3   OH223649   4.702   1.960  12.144 -0.0828 -0.3149 -0.7175
  745TIP3    H123650   4.794   1.956  12.119 -0.6124  1.6138 -3.2225
  745TIP3    H223651   4.663   1.882  12.106 -0.0450  0.4419 -2.3659
  746TIP3   OH223652   3.659   7.270  11.430  0.6308 -0.9640 -0.4743
  746TIP3    H123653   3.602   7.333  11.475 -0.5924 -0.7907 -2.2169
  746TIP3    H223654   3.748   7.296  11.456  0.0916  0.7803 -0.2703
  747TIP3   OH223655   1.961   2.246  13.984  0.1791 -0.0279  0.2874
  747TIP3    H123656   2.013   2.326  13.986 -0.5872  0.4819 -0.1077
  747TIP3    H223657   1.870   2.276  13.978 -0.0222 -0.9170 -1.8225
  748TIP3   OH223658   2.782   6.213  11.945 -0.2269  0.1029  0.2114
  748TIP3    H123659   2.827   6.198  11.862 -0.8534 -1.1957  0.0912
  748TIP3    H223660   2.853   6.223  12.009  0.2769 -2.6245  0.1465
  749TIP3   OH223661   3.053   5.730  13.099  0.2256  0.1089  0.2637
  749TIP3    H123662   2.958   5.731  13.082  0.5568 -0.0908 -1.6756
  749TIP3    H223663   3.060   5.724  13.194 -1.7253  1.4686  0.5347
  750TIP3   OH223664   4.313   0.570  12.869 -0.2341 -0.6757 -0.4713
  750TIP3    H123665   4.231   0.531  12.840 -0.3251 -1.9684  1.3927
  750TIP3    H223666   4.336   0.521  12.948  1.3720  0.9072  0.0846
  751TIP3   OH223667   3.675   6.040  10.560 -0.1158  0.1458 -0.2198
  751TIP3    H123668   3.716   5.978  10.620 -0.7134 -0.6070 -0.5954
  751TIP3    H223669   3.645   5.987  10.487 -1.2659  0.7736 -0.2040
  752TIP3   OH223670   7.153   5.595  11.759  0.0189  0.2491 -0.8538
  752TIP3    H123671   7.125   5.546  11.681 -0.7599 -1.5817  0.5538
  752TIP3    H223672   7.231   5.642  11.729 -0.6764  0.1512 -2.9506
  753TIP3   OH223673   4.876   6.628  13.258 -0.6756  0.2791  0.3094
  753TIP3    H123674   4.782   6.640  13.272 -0.7194  0.3898 -0.0753
  753TIP3    H223675   4.895   6.544  13.300 -1.0227  0.0727  0.0644
  754TIP3   OH223676   2.961   3.689  15.763 -0.3704  0.0992  0.1992
  754TIP3    H123677   2.917   3.697  15.678  1.5086 -0.0595 -0.8291
  754TIP3    H223678   3.035   3.630  15.746  0.6887  0.9535  1.6685
  755TIP3   OH223679   3.643   5.668  11.822 -0.1503 -0.3916  0.6279
  755TIP3    H123680   3.636   5.649  11.728 -0.4689 -0.5817  0.6870
  755TIP3    H223681   3.718   5.618  11.851  0.1493 -0.0723  0.4085
  756TIP3   OH223682   3.841   0.593  10.894 -0.2714 -0.3208 -0.2371
  756TIP3    H123683   3.755   0.597  10.934 -0.7159  0.7001 -1.2585
  756TIP3    H223684   3.902   0.615  10.965 -0.8496 -1.0335  0.4812
  757TIP3   OH223685   2.153   6.008  11.984 -0.1426 -0.3561  0.4295
  757TIP3    H123686   2.203   5.941  11.936 -0.2118  1.2373 -1.9744
  757TIP3    H223687   2.067   6.008  11.942  0.0556  1.6324 -0.0356
  758TIP3   OH223688   6.815   0.991  10.588 -0.0654  0.1509 -0.5526
  758TIP3    H123689   6.862   1.043  10.653 -0.0984 -0.4344 -0.0635
  758TIP3    H223690   6.764   0.928  10.639  1.5636 -1.7415 -1.1873
  759TIP3   OH223691   5.058   5.782  11.423 -0.2975  0.1206  0.2604
  759TIP3    H123692   5.098   5.750  11.503  1.9159 -2.2796 -1.7155
  759TIP3    H223693   5.130   5.824  11.375 -1.3634  0.6976 -0.8682
  760TIP3   OH223694   3.381   2.792  13.382 -0.4482  0.3659  0.3482
  760TIP3    H123695   3.348   2.805  13.471 -0.6436 -1.3464  0.5470
  760TIP3    H223696   3.302   2.773  13.330 -0.0212 -1.8750  0.4590
  761TIP3   OH223697   2.384   0.808  12.760 -0.2103  0.0777 -0.6313
  761TIP3    H123698   2.304   0.857  12.741  0.1531  0.8897 -0.1236
  761TIP3    H223699   2.454   0.860  12.720  0.1650 -0.1273 -0.2447
  762TIP3   OH223700   2.414   3.976  11.884  0.0114  0.1396  0.1950
  762TIP3    H123701   2.456   3.893  11.866  0.9872  0.6143  0.2502
  762TIP3    H223702   2.413   4.021  11.799  0.3253  0.4443  0.3510
  763TIP3   OH223703   2.358   2.092  14.723  0.4231 -0.4602 -0.8879
  763TIP3    H123704   2.410   2.112  14.801 -1.4468 -2.3650  0.9536
  763TIP3    H223705   2.378   2.000  14.704 -1.0000 -0.7283 -1.1412
  764TIP3   OH223706   4.994   0.451  10.938 -0.1033 -0.3387 -0.4982
  764TIP3    H123707   5.059   0.513  10.905  0.4829 -1.0782 -0.7635
  764TIP3    H223708   4.932   0.504  10.987  1.6076  0.1977  1.1568
  765TIP3   OH223709   4.348   2.082  13.250  0.4299 -0.0000 -0.1128
  765TIP3    H123710   4.425   2.031  13.223 -1.3124 -3.0758  0.6217
  765TIP3    H223711   4.292   2.083  13.172  0.3558  0.6307 -0.0537
  766TIP3   OH223712   2.739   5.923  12.565  0.3836  0.6641  0.3952
  766TIP3    H123713   2.669   5.951  12.624 -0.1485  0.1995 -0.0027
  766TIP3    H223714   2.720   5.967  12.482 -0.2896 -0.6102 -0.1439
  767TIP3   OH223715   0.227   1.480  13.798 -0.0832  0.3371  0.0018
  767TIP3    H123716   0.233   1.568  13.836 -2.8030 -0.6414  2.9435
  767TIP3    H223717   0.311   1.439  13.819  0.1224  1.2992  1.1186
  768TIP3   OH223718   3.340   6.427  11.261 -0.3067 -0.0495  0.1047
  768TIP3    H123719   3.329   6.333  11.249  0.7584 -0.1842  0.1828
  768TIP3    H223720   3.432   6.444  11.241 -0.5714  1.0247 -0.2364
  769TIP3   OH223721   3.510   6.580  10.088 -0.0571 -0.3502 -0.6019
  769TIP3    H123722   3.491   6.658  10.036 -0.3617 -0.7171 -1.0537
  769TIP3    H223723   3.605   6.568  10.079 -0.1527 -0.6035 -1.3636
  770TIP3   OH223724   0.068   2.443  15.405 -0.1284  0.4194  0.6903
  770TIP3    H123725   0.009   2.408  15.472 -0.1668  0.4010  0.6470
  770TIP3    H223726   0.026   2.421  15.322  0.2538 -0.1743  0.6420
  771TIP3   OH223727   2.264   5.619  11.090  0.1122  0.4438  0.2481
  771TIP3    H123728   2.214   5.615  11.008  2.0507  0.6297 -0.9856
  771TIP3    H223729   2.351   5.649  11.063  1.2174 -0.9092  2.1846
  772TIP3   OH223730   1.711   1.040  11.565 -0.0850 -0.3932  0.3928
  772TIP3    H123731   1.784   0.979  11.571  0.8565  0.5793 -1.0283
  772TIP3    H223732   1.636   0.985  11.541  0.6334 -1.0631 -0.3156
  773TIP3   OH223733   3.299   6.699  11.537 -0.2629 -0.3211 -0.0947
  773TIP3    H123734   3.240   6.753  11.484  0.5217  1.9588  1.2848
  773TIP3    H223735   3.378   6.690  11.483 -1.0412 -1.5693 -1.0471
  774TIP3   OH223736   3.996   6.217  10.065 -0.0668 -0.4139  0.0563
  774TIP3    H123737   3.993   6.304  10.024 -1.6904 -0.2998  0.3963
  774TIP3    H223738   4.050   6.165  10.005  1.1813  0.8929  0.0017
  775TIP3   OH223739   4.490   7.284  10.939 -0.0343 -0.3674  0.0731
  775TIP3    H123740   4.495   7.379  10.942 -1.8981 -0.2696  0.8096
  775TIP3    H223741   4.444   7.265  10.857 -0.1336 -0.6141  0.1855
  776TIP3   OH223742   2.038   3.099  10.363 -0.6103 -0.6166  0.0342
  776TIP3    H123743   1.998   3.137  10.441 -1.5794 -0.6323 -0.4369
  776TIP3    H223744   1.992   3.141  10.290  2.5126  1.8874 -0.6372
  777TIP3   OH223745   4.005   6.521  10.658 -0.1799 -0.0155  0.1368
  777TIP3    H123746   4.097   6.543  10.640 -0.5422  0.5798 -1.0926
  777TIP3    H223747   3.985   6.566  10.740  0.7614 -0.5449  0.6625
  778TIP3   OH223748   0.215   1.500  10.507 -0.0852 -0.2485 -0.0836
  778TIP3    H123749   0.280   1.565  10.478  1.0157 -0.9515  0.7430
  778TIP3    H223750   0.133   1.529  10.467  0.4075  1.5692  0.1348
  779TIP3   OH223751   0.836   6.547  10.512  0.2525  0.5695  0.1122
  779TIP3    H123752   0.792   6.504  10.439 -2.4185  2.1529  0.7236
  779TIP3    H223753   0.907   6.596  10.472 -0.3249  0.2997 -1.2701
  780TIP3   OH223754   3.917   0.733  14.627  0.4202 -0.0760 -0.1710
  780TIP3    H123755   3.823   0.753  14.631  0.6971  1.0308  0.7657
  780TIP3    H223756   3.939   0.740  14.534 -0.2499  0.4749 -0.2903
  781TIP3   OH223757   3.185   1.542  10.745 -0.0398 -0.4351 -0.0342
  781TIP3    H123758   3.090   1.534  10.752  0.1921 -2.7058  1.2750
  781TIP3    H223759   3.217   1.452  10.759  2.1951 -0.0755 -2.5042
  782TIP3   OH223760   4.249   2.051  10.634 -0.2054  0.8409  0.2142
  782TIP3    H123761   4.160   2.054  10.669 -0.3422 -1.6732  0.1240
  782TIP3    H223762   4.303   2.089  10.704 -0.9888 -0.3439  1.4894
  783TIP3   OH223763   5.247   3.064  10.793  0.4218  0.7602  0.4865
  783TIP3    H123764   5.223   3.153  10.767 -0.0341 -0.1986 -2.4992
  783TIP3    H223765   5.340   3.056  10.769  0.7665  0.7629  1.7609
  784TIP3   OH223766   6.053   6.256  12.244  0.4797 -0.2813  0.3489
  784TIP3    H123767   6.053   6.286  12.154 -0.3944  0.5021  0.5993
  784TIP3    H223768   5.961   6.232  12.261  0.5998 -0.2432  1.0819
  785TIP3   OH223769   6.768   0.505  10.557 -0.2552 -0.8619  0.0983
  785TIP3    H123770   6.678   0.483  10.533 -0.3121  0.5159 -1.0138
  785TIP3    H223771   6.821   0.468  10.486 -0.1423  0.3389 -0.4479
  786TIP3   OH223772   2.503   0.503  14.606 -0.1251  0.0492 -0.3204
  786TIP3    H123773   2.553   0.444  14.550 -1.4675  0.0471 -1.5424
  786TIP3    H223774   2.562   0.577  14.623 -0.5004  1.2106 -3.7381
  787TIP3   OH223775   3.961   6.193  10.750  0.7380  0.2719 -0.6315
  787TIP3    H123776   3.987   6.263  10.690  2.5457 -0.3772 -0.6243
  787TIP3    H223777   4.009   6.116  10.720  0.4934 -0.4270  0.7407
  788TIP3   OH223778   3.097   5.211  11.772  0.0299  0.0743  0.6355
  788TIP3    H123779   3.115   5.283  11.833  1.3803 -0.4889  0.9150
  788TIP3    H223780   3.064   5.255  11.693  1.1822  1.0397  0.6712
  789TIP3   OH223781   5.863   2.535  11.997  0.2827  0.4766  0.7102
  789TIP3    H123782   5.876   2.447  11.960 -0.4215  0.3121  0.8497
  789TIP3    H223783   5.926   2.590  11.951 -2.1534  0.7642 -2.4129
  790TIP3   OH223784   7.187   2.401  13.213 -0.0040  0.2289 -0.0933
  790TIP3    H123785   7.100   2.437  13.194  0.0553 -0.5068 -1.8161
  790TIP3    H223786   7.209   2.348  13.136  1.1946 -1.0721  1.1044
  791TIP3   OH223787   0.930   1.298  10.409 -1.2828  0.2788  0.0471
  791TIP3    H123788   0.884   1.345  10.479 -4.0742 -1.6993 -0.3536
  791TIP3    H223789   0.871   1.304  10.334 -0.2722 -1.2306 -0.8875
  792TIP3   OH223790   0.074   0.537  11.519  0.8167 -0.4652  0.0856
  792TIP3    H123791   0.019   0.615  11.525 -0.4179 -1.3543  0.6250
  792TIP3    H223792   0.014   0.464  11.536  1.6374 -1.6470 -1.8656
  793TIP3   OH223793   3.375   1.032  11.169 -0.6361  0.1386 -0.4451
  793TIP3    H123794   3.315   1.023  11.243 -0.8340 -0.0042 -0.6253
  793TIP3    H223795   3.344   0.969  11.105 -0.2690  0.0363 -0.5220
  794TIP3   OH223796   5.589   7.097  11.655  0.3711  0.1272  0.7454
  794TIP3    H123797   5.672   7.145  11.656  0.1976  0.4929 -0.7854
  794TIP3    H223798   5.526   7.158  11.692  0.7012 -0.0191  1.5727
  795TIP3   OH223799   4.190   6.680  13.168  0.3117 -0.2729  0.1745
  795TIP3    H123800   4.280   6.678  13.201  0.8177  0.5476 -1.1221
  795TIP3    H223801   4.193   6.630  13.086 -0.0239  1.2405 -0.7833
  796TIP3   OH223802   2.155   6.398  12.139 -0.3781  0.1836 -0.2445
  796TIP3    H123803   2.223   6.349  12.093  0.2272  1.0744 -0.3240
  796TIP3    H223804   2.146   6.353  12.223  0.3650  0.0917 -0.2051
  797TIP3   OH223805   1.560   0.795  14.855 -0.2321  0.1687  0.2997
  797TIP3    H123806   1.602   0.849  14.788  0.6224  0.4143  1.0221
  797TIP3    H223807   1.616   0.719  14.863  0.4109  0.7770  1.6950
  798TIP3   OH223808   4.045   0.211  11.612  0.3742  0.6950  0.3938
  798TIP3    H123809   4.013   0.184  11.698 -0.7000  0.6956  0.0084
  798TIP3    H223810   4.054   0.129  11.563 -0.7010  0.8419 -0.0523
  799TIP3   OH223811   5.091   0.881  10.447 -0.2499 -0.0655 -0.4762
  799TIP3    H123812   5.073   0.798  10.492  0.7992 -0.3681 -0.5837
  799TIP3    H223813   5.174   0.866  10.402  0.2672  1.2358  0.0036
  800TIP3   OH223814   5.068   0.610  13.891  0.0930 -0.2705  0.2157
  800TIP3    H123815   5.019   0.690  13.876  0.3313 -0.1733 -0.0547
  800TIP3    H223816   5.052   0.557  13.813  0.9399  0.0336 -0.1738
  801TIP3   OH223817   3.555   0.449  11.882 -0.3297  0.6909  0.3407
  801TIP3    H123818   3.506   0.382  11.929 -1.2895  1.6351  0.6936
  801TIP3    H223819   3.615   0.399  11.826 -0.9625 -0.4586  0.6604
  802TIP3   OH223820   3.935   0.419  12.753 -0.4136 -0.8214  0.4304
  802TIP3    H123821   3.885   0.500  12.762 -0.3844 -0.8866  1.3111
  802TIP3    H223822   3.960   0.397  12.843  1.2884 -0.7323 -0.0101
  803TIP3   OH223823   3.767   3.039  12.905 -0.7602 -0.1248  0.0658
  803TIP3    H123824   3.727   2.961  12.943 -0.0891 -0.4834  0.0393
  803TIP3    H223825   3.739   3.111  12.962 -1.2340 -0.4062  0.1902
  804TIP3   OH223826   4.199   6.871  10.955 -0.5364 -0.1325  0.3811
  804TIP3    H123827   4.208   6.951  11.007  0.0096 -0.2080  0.4119
  804TIP3    H223828   4.220   6.899  10.865 -1.1908 -0.0627  0.2486
  805TIP3   OH223829   4.513   0.103  10.419 -0.2361  0.2519 -0.5500
  805TIP3    H123830   4.585   0.127  10.477 -1.4455  2.2158  0.1736
  805TIP3    H223831   4.542   0.130  10.332  1.2332 -1.9473 -0.7762
  806TIP3   OH223832   4.413   4.526  11.656  0.0261  0.0032  0.6561
  806TIP3    H123833   4.461   4.492  11.732 -0.2977 -0.6443  0.5769
  806TIP3    H223834   4.330   4.479  11.657  0.4568 -0.8353 -0.7374
  807TIP3   OH223835   3.788   6.720  12.497 -0.1811  0.4533 -0.1941
  807TIP3    H123836   3.882   6.707  12.490 -0.5125 -1.2193 -1.9855
  807TIP3    H223837   3.774   6.809  12.462  0.6304  0.3198 -0.8823
  808TIP3   OH223838   4.938   1.903  10.918  0.6378  0.6452  0.0911
  808TIP3    H123839   4.898   1.818  10.900  1.5019 -0.2251  2.1049
  808TIP3    H223840   5.032   1.885  10.919  0.8046  1.5428  0.8502
  809TIP3   OH223841   0.068   3.137  13.245 -0.3471 -0.0029  0.1256
  809TIP3    H123842   0.107   3.083  13.176  1.2467  2.1113 -0.6707
  809TIP3    H223843   0.109   3.106  13.326 -0.5263 -0.9486 -0.1384
  810TIP3   OH223844   4.429   4.801  11.750  0.1820 -0.5052  0.6174
  810TIP3    H123845   4.427   4.852  11.669  1.4052 -0.2264  0.7389
  810TIP3    H223846   4.430   4.710  11.721  0.4615 -0.4081  0.3149
  811TIP3   OH223847   3.789   0.807   9.956  0.0540 -0.2210  0.0192
  811TIP3    H123848   3.864   0.749   9.940  1.2393  2.0481 -2.9579
  811TIP3    H223849   3.827   0.891   9.980 -1.5972  0.4455  0.4302
  812TIP3   OH223850   2.921   1.706  13.657 -0.0194 -0.1408  0.4185
  812TIP3    H123851   2.979   1.779  13.635  0.1707 -0.6827 -0.9306
  812TIP3    H223852   2.961   1.667  13.734 -0.1963  1.2524  1.2299
  813TIP3   OH223853   5.261   6.337  11.165  0.2703  0.1265 -0.2398
  813TIP3    H123854   5.290   6.249  11.144  1.0635  0.1622  0.6352
  813TIP3    H223855   5.283   6.348  11.258  0.4351  1.3323 -0.4032
  814TIP3   OH223856   4.032   2.464  13.398 -0.6489 -0.5707 -0.0435
  814TIP3    H123857   3.968   2.401  13.365  0.5117 -1.9934  0.3454
  814TIP3    H223858   4.002   2.486  13.486  0.2731 -2.5303  0.7935
  815TIP3   OH223859   6.003   2.161  10.758 -0.1971  0.5462  0.2126
  815TIP3    H123860   6.029   2.244  10.718 -1.5732 -0.3257 -2.6058
  815TIP3    H223861   6.038   2.094  10.699 -0.3580 -0.8485  1.6675
  816TIP3   OH223862   1.680   0.657  11.541  0.4360  0.3956 -0.0830
  816TIP3    H123863   1.752   0.638  11.601 -0.3388 -1.7678  0.1877
  816TIP3    H223864   1.639   0.736  11.578 -0.4176 -1.2387  2.6162
  817TIP3   OH223865   3.035   0.303  12.019 -0.4817  0.2858 -0.4712
  817TIP3    H123866   3.062   0.375  12.076 -1.6542 -0.1264  0.6429
  817TIP3    H223867   3.025   0.228  12.079  0.1664 -0.6581 -1.5205
  818TIP3   OH223868   6.370   0.423  10.963  0.3673 -0.3203 -0.0189
  818TIP3    H123869   6.281   0.418  10.998  0.4611  0.1981  0.2939
  818TIP3    H223870   6.397   0.332  10.952 -0.0596 -0.4768  0.2585
  819TIP3   OH223871   5.289   6.104  10.878 -0.0465  0.4844  0.2050
  819TIP3    H123872   5.264   6.117  10.970  0.3200 -1.1000  0.5321
  819TIP3    H223873   5.212   6.133  10.829 -1.2346 -1.0398  1.1059
  820TIP3   OH223874   3.938   1.281  15.680  0.7982  0.5084  0.8245
  820TIP3    H123875   4.018   1.227  15.676  0.9437  0.6827  1.3862
  820TIP3    H223876   3.955   1.352  15.618  0.2850 -0.5130 -0.5161
  821TIP3   OH223877   6.005   3.324   0.360  0.5982 -0.1267 -0.0452
  821TIP3    H123878   5.979   3.345   0.449 -1.9671 -1.4290 -0.4366
  821TIP3    H223879   6.062   3.247   0.369 -0.1641 -0.6354  0.4197
  822TIP3   OH223880   5.188   0.561  10.148 -0.1292 -0.5370  0.2181
  822TIP3    H123881   5.180   0.466  10.155  1.0470 -0.6552  0.0588
  822TIP3    H223882   5.281   0.578  10.164 -0.5868  0.7095  1.5808
  823TIP3   OH223883   4.269   0.173  13.177  0.5884 -0.3513 -0.2587
  823TIP3    H123884   4.246   0.114  13.250  2.1274 -0.1431  0.4062
  823TIP3    H223885   4.305   0.115  13.110  0.1446 -0.4103 -0.4518
  824TIP3   OH223886   5.930   0.569  10.146  0.3424  0.3950  0.5247
  824TIP3    H123887   5.854   0.612  10.184 -0.1340 -1.0701  1.2511
  824TIP3    H223888   5.897   0.524  10.068  0.7582  1.0072 -0.0092
  825TIP3   OH223889   3.348   1.437  11.003  0.3289 -0.4250 -0.0666
  825TIP3    H123890   3.340   1.401  10.915  2.1509 -0.4597 -0.2397
  825TIP3    H223891   3.373   1.528  10.990  2.2528 -0.8634  0.3977
  826TIP3   OH223892   4.235   1.191  10.425 -0.0312  0.0476  0.1350
  826TIP3    H123893   4.305   1.235  10.377 -0.0281  0.8011  0.8251
  826TIP3    H223894   4.171   1.168  10.358  0.3140  0.4303 -0.3284
  827TIP3   OH223895   5.360   0.950  12.342  0.4182 -0.3358 -0.1653
  827TIP3    H123896   5.294   0.881  12.342  2.4803 -2.3932  0.7868
  827TIP3    H223897   5.326   1.016  12.403 -1.2748 -0.7922 -0.5802
  828TIP3   OH223898   4.242   0.326  10.043 -0.0147 -0.5262 -0.2006
  828TIP3    H123899   4.266   0.419  10.048  1.1210 -0.7557 -0.9515
  828TIP3    H223900   4.155   0.325  10.003  0.1456  0.2012 -0.5730
  829TIP3   OH223901   3.287   1.943  10.106  0.3132 -0.3018  0.0830
  829TIP3    H123902   3.310   1.994  10.028 -1.0839 -0.5597 -0.5122
  829TIP3    H223903   3.198   1.970  10.127 -0.2701 -2.1179  0.0424
  830TIP3   OH223904   7.034   7.065  10.923 -0.1509  0.1324 -0.1419
  830TIP3    H123905   7.084   7.118  10.986 -2.5666  1.0587  1.0681
  830TIP3    H223906   7.040   6.976  10.957  2.5463 -0.1721 -1.2752
  831TIP3   OH223907   2.763   6.746  12.919  0.0069 -0.1362 -0.3487
  831TIP3    H123908   2.827   6.810  12.951  0.3177 -0.6613  0.0884
  831TIP3    H223909   2.719   6.790  12.846  0.2141  0.5773 -0.0451
  832TIP3   OH223910   6.443   0.666  11.935 -0.1897  0.1577  0.3532
  832TIP3    H123911   6.380   0.700  11.997 -0.6884 -1.7096  0.9157
  832TIP3    H223912   6.399   0.672  11.850 -1.5518 -2.0098  0.8582
  833TIP3   OH223913   4.372   1.281  11.151  0.4244  0.2538  0.0849
  833TIP3    H123914   4.379   1.217  11.222 -1.4969  0.0994  0.1597
  833TIP3    H223915   4.367   1.229  11.071  1.6307  0.4033 -0.0985
  834TIP3   OH223916   5.615   3.599  10.261  0.0570  0.3569 -0.2658
  834TIP3    H123917   5.537   3.543  10.252  0.7504 -0.9312  1.5658
  834TIP3    H223918   5.687   3.545  10.230  0.6570  0.4231  0.9938
  835TIP3   OH223919   5.754   6.021  13.332  0.5392 -0.3870  0.1609
  835TIP3    H123920   5.743   6.038  13.238  1.6354 -1.3197 -0.1580
  835TIP3    H223921   5.844   5.987  13.339  0.3652 -0.5812  1.5081
  836TIP3   OH223922   6.543   6.508  12.167  0.3257 -0.3659 -0.6382
  836TIP3    H123923   6.540   6.555  12.084  1.3322 -0.2722 -0.6196
  836TIP3    H223924   6.474   6.442  12.159 -0.1449  0.1822 -1.2140
  837TIP3   OH223925   4.689   6.671  11.179  0.3624  0.0219 -0.0411
  837TIP3    H123926   4.764   6.693  11.235  0.2810  1.5009 -0.5054
  837TIP3    H223927   4.630   6.746  11.186  0.1265  0.0231 -1.7409
  838TIP3   OH223928   5.610   2.378  13.359 -0.2845  0.2313 -0.0059
  838TIP3    H123929   5.622   2.284  13.373  2.7744  0.7932  1.7660
  838TIP3    H223930   5.634   2.392  13.268  0.2320 -0.5691  0.0007
  839TIP3   OH223931   1.955   1.103  13.024  0.7273  0.1251 -0.0364
  839TIP3    H123932   1.875   1.066  13.061  0.9065  0.2707  0.4966
  839TIP3    H223933   1.935   1.116  12.931 -0.0380  0.6236  0.1938
  840TIP3   OH223934   0.302   6.283  11.054 -0.1914 -0.2325  0.4586
  840TIP3    H123935   0.305   6.377  11.035 -1.6179  0.0694  1.6499
  840TIP3    H223936   0.264   6.244  10.975  2.1721 -0.0753 -0.8185
  841TIP3   OH223937   0.062   5.301  11.319  0.1021  0.4333 -0.2067
  841TIP3    H123938   0.065   5.259  11.405 -1.2879  1.9780  0.6199
  841TIP3    H223939  -0.006   5.368  11.327  0.8709  1.4930 -2.1085
  842TIP3   OH223940   4.406   6.171  10.037 -0.3324 -0.0781  0.3419
  842TIP3    H123941   4.414   6.098  10.098  0.0206  1.1590  1.8238
  842TIP3    H223942   4.487   6.221  10.049 -1.0953  1.2107  0.2443
  843TIP3   OH223943   6.019   6.460  12.033 -0.5267  0.1990 -0.8312
  843TIP3    H123944   6.001   6.554  12.030 -1.8952  0.0723  1.7897
  843TIP3    H223945   5.937   6.420  12.002 -1.1953 -0.1841  1.3984
  844TIP3   OH223946   3.722   0.783  13.172  0.7303 -0.0420  0.4948
  844TIP3    H123947   3.771   0.741  13.243  2.7970 -1.6422 -1.7989
  844TIP3    H223948   3.640   0.734  13.167  1.1307 -0.7726  0.9541
  845TIP3   OH223949   6.015   6.650  11.766  0.1395 -0.2320 -0.4562
  845TIP3    H123950   5.938   6.600  11.737  1.8878 -1.1790 -3.6563
  845TIP3    H223951   5.978   6.718  11.823 -3.1214 -0.4166 -2.1868
  846TIP3   OH223952   4.521   0.455  10.682  0.4436  0.2180 -0.1369
  846TIP3    H123953   4.484   0.376  10.643  1.5036  0.8807 -2.5946
  846TIP3    H223954   4.445   0.504  10.715 -0.2552 -1.5106  0.8654
  847TIP3   OH223955   5.818   0.073  14.310 -0.3662 -0.0266  0.4329
  847TIP3    H123956   5.824   0.154  14.259 -0.0752  0.5236  1.3337
  847TIP3    H223957   5.900   0.069  14.358 -0.3333 -0.9282  0.3036
  848TIP3   OH223958   6.586   0.072  12.881  0.0292 -0.1427  0.0122
  848TIP3    H123959   6.580   0.022  12.800 -0.3922 -2.0127  1.1813
  848TIP3    H223960   6.593   0.163  12.852 -2.6325 -0.5475 -2.0879
  849TIP3   OH223961   4.465   6.319  12.932  0.7522  0.0330 -0.3548
  849TIP3    H123962   4.508   6.343  13.014  1.5407  0.7882 -0.9726
  849TIP3    H223963   4.537   6.309  12.869  0.1506 -0.4253 -0.9836
  850TIP3   OH223964   6.309   7.109  11.541 -0.0850 -0.2699 -0.0153
  850TIP3    H123965   6.288   7.196  11.505 -0.6765  0.0139  1.0047
  850TIP3    H223966   6.229   7.059  11.531 -0.4979  0.0495  1.6128
  851TIP3   OH223967   7.094   6.368  10.248 -0.0353 -0.0650 -0.2641
  851TIP3    H123968   7.032   6.400  10.314 -1.3195  1.3031 -2.0713
  851TIP3    H223969   7.045   6.373  10.166  1.6713 -1.3522 -1.3839
  852TIP3   OH223970   0.161   1.720  12.354  0.5662 -0.0333 -0.3409
  852TIP3    H123971   0.180   1.665  12.278  1.0419 -0.2090 -0.0962
  852TIP3    H223972   0.086   1.772  12.327  0.6761 -0.1571 -0.9045
  853TIP3   OH223973   3.761   3.547  14.402 -0.4826  0.0692 -0.2682
  853TIP3    H123974   3.705   3.547  14.324 -1.6655  1.3414  0.5398
  853TIP3    H223975   3.848   3.524  14.370 -1.0254  0.2583 -1.9165
  854TIP3   OH223976   4.704   6.008  10.762  0.0219  0.3651 -0.2366
  854TIP3    H123977   4.618   6.043  10.789 -0.0763  0.0596 -0.1503
  854TIP3    H223978   4.723   6.052  10.679  0.3306  1.3328  0.3339
  855TIP3   OH223979   5.074   6.810  11.637  0.6896  0.3504 -0.0427
  855TIP3    H123980   5.118   6.843  11.559  2.0539 -0.3187  0.4287
  855TIP3    H223981   5.045   6.888  11.684 -1.9535  0.7430 -2.1964
  856TIP3   OH223982   6.232   5.455  11.403  0.2295 -0.1828  0.3180
  856TIP3    H123983   6.180   5.477  11.480 -1.8273 -0.3796 -0.9870
  856TIP3    H223984   6.270   5.369  11.423  0.9727  0.4602  1.7238
  857TIP3   OH223985   4.896   6.235  10.338 -0.0153  0.4785  0.3631
  857TIP3    H123986   4.965   6.296  10.310 -2.1293  2.0176 -1.6409
  857TIP3    H223987   4.890   6.172  10.267  0.5338 -0.7547  1.3740
  858TIP3   OH223988   5.513   2.082  11.724  0.4441 -0.8673  0.3608
  858TIP3    H123989   5.508   2.174  11.698  0.3078 -0.7247  0.8702
  858TIP3    H223990   5.607   2.063  11.729  0.4693 -0.8526 -0.0764
  859TIP3   OH223991   5.947   6.162  11.310 -0.5928 -0.5889 -0.7628
  859TIP3    H123992   5.928   6.248  11.349 -0.5341  0.0653 -2.1555
  859TIP3    H223993   5.898   6.100  11.363 -0.0209  0.2202  0.7438
  860TIP3   OH223994   5.007   1.042  13.593 -0.2342  0.2453 -0.3415
  860TIP3    H123995   5.050   1.020  13.511  2.6518 -0.6615  1.3203
  860TIP3    H223996   4.968   0.960  13.623  0.6797  0.0175  0.2637
  861TIP3   OH223997   4.614   1.120  10.655 -0.5280  0.3475 -0.6297
  861TIP3    H123998   4.668   1.163  10.589  1.1370 -1.1754 -0.2901
  861TIP3    H223999   4.647   1.030  10.660  0.8823  0.9801  3.8150
  862TIP3   OH224000   5.461   0.391  11.637  0.1811  0.4553  0.6170
  862TIP3    H124001   5.414   0.431  11.711 -1.8930 -1.8056  0.5806
  862TIP3    H224002   5.542   0.359  11.676  0.8702  2.7132  1.0931
  863TIP3   OH224003   5.771   1.707  12.125  0.4406 -0.1038 -0.1907
  863TIP3    H124004   5.787   1.620  12.162 -2.0727 -0.2764  0.5665
  863TIP3    H224005   5.694   1.695  12.070 -0.1083  1.7349  0.1657
  864TIP3   OH224006   5.539   5.469  10.646  0.0986 -0.1936  0.2502
  864TIP3    H124007   5.511   5.380  10.666  1.1793  0.1392  3.5306
  864TIP3    H224008   5.626   5.460  10.609  0.5198 -0.4613  1.3036
  865TIP3   OH224009   4.068   6.998  11.217 -0.0388  0.1506  0.2674
  865TIP3    H124010   3.975   6.976  11.221  0.0097 -0.0095  0.5739
  865TIP3    H224011   4.071   7.082  11.172 -0.4473  0.7750  1.3664
  866TIP3   OH224012   3.450   7.056  10.073  0.0776 -0.1741  0.1730
  866TIP3    H124013   3.471   7.148  10.091  0.2679 -0.1375 -0.2311
  866TIP3    H224014   3.418   7.022  10.157 -2.3365  0.8986 -0.2729
  867TIP3   OH224015   6.849   0.505  12.267 -0.0647 -0.3814  0.5875
  867TIP3    H124016   6.855   0.506  12.171 -0.5805 -1.7198  0.5339
  867TIP3    H224017   6.917   0.567  12.295  0.9214 -0.8888 -0.5985
  868TIP3   OH224018   2.592   0.952  14.106  0.1123 -0.2406  0.6259
  868TIP3    H124019   2.534   0.970  14.032  0.9764  2.8043  0.6119
  868TIP3    H224020   2.592   0.857  14.114 -1.3580 -0.5367 -2.2063
  869TIP3   OH224021   2.296   0.236  13.475  0.2497 -0.1737 -0.2431
  869TIP3    H124022   2.339   0.292  13.539  0.8563  1.4540 -2.0232
  869TIP3    H224023   2.350   0.243  13.396 -1.5127 -0.5727 -1.5347
  870TIP3   OH224024   4.946   0.141  13.029  0.2507  0.3984 -0.0954
  870TIP3    H124025   4.879   0.074  13.038 -0.6792  0.8249 -3.2965
  870TIP3    H224026   4.919   0.211  13.088 -2.0149  0.4583 -1.1663
  871TIP3   OH224027   6.037   1.022  11.053  0.4103 -0.0600  0.7159
  871TIP3    H124028   5.976   1.066  10.992 -0.0531 -1.0401  0.4702
  871TIP3    H224029   6.114   1.079  11.054  0.2396  0.2094 -0.4446
  872TIP3   OH224030   4.881   0.797  10.991 -0.1321 -0.2311  0.4929
  872TIP3    H124031   4.861   0.781  10.898 -1.8874  0.7087  0.6991
  872TIP3    H224032   4.878   0.710  11.031  1.2936 -0.7374 -0.4297
  873TIP3   OH224033   4.959   5.118  10.455 -0.0998  0.0420 -0.3959
  873TIP3    H124034   4.970   5.058  10.529  3.1096  1.4659  0.3887
  873TIP3    H224035   4.987   5.067  10.379  3.1212  0.6099  0.3371
  874TIP3   OH224036   3.998   6.207  10.328 -0.7794 -0.0303  0.0800
  874TIP3    H124037   3.926   6.270  10.333 -1.4788 -0.8096 -0.0498
  874TIP3    H224038   4.011   6.194  10.234 -1.5251 -1.0708  0.1092
  875TIP3   OH224039   6.153   6.256  10.768  0.1280 -0.0531 -0.6502
  875TIP3    H124040   6.061   6.262  10.745  0.2888  3.7585 -0.6531
  875TIP3    H224041   6.187   6.344  10.754  3.3796 -0.9575  0.9738
  876TIP3   OH224042   6.791   1.019  14.304  0.3110  0.3354  0.2051
  876TIP3    H124043   6.764   1.028  14.212  0.6439  0.0575  0.0776
  876TIP3    H224044   6.870   0.966  14.300  0.2069  0.1475  0.6759
  877TIP3   OH224045   6.430   0.130  10.993 -0.2824 -0.0893 -0.1130
  877TIP3    H124046   6.516   0.162  10.968  0.7613 -2.1902  0.6179
  877TIP3    H224047   6.402   0.075  10.920  0.1239 -1.3993  0.6886
  878TIP3   OH224048   4.575   6.378  10.254 -0.1651 -0.5243  0.6887
  878TIP3    H124049   4.594   6.314  10.184 -0.3283  0.2157 -0.0390
  878TIP3    H224050   4.636   6.450  10.237 -0.1864 -0.3568  1.3345
  879TIP3   OH224051   6.176   5.306  13.786 -0.3787 -0.2032  0.5885
  879TIP3    H124052   6.264   5.270  13.801 -1.1424 -3.5300 -2.3817
  879TIP3    H224053   6.125   5.276  13.861  0.3110 -0.8872  0.7966
  880TIP3   OH224054   4.993   4.540  11.799  0.5354  0.2280  0.3884
  880TIP3    H124055   5.010   4.498  11.883  2.2606  0.3518  0.1109
  880TIP3    H224056   5.009   4.633  11.815 -0.9240  0.5063  0.3717
  881TIP3   OH224057   6.124   7.178  12.344 -0.1215  0.3391  0.0943
  881TIP3    H124058   6.122   7.269  12.313 -0.6120  0.5952  0.8567
  881TIP3    H224059   6.034   7.148  12.332  0.2554 -0.3666 -1.0700
  882TIP3   OH224060   4.897   3.991  12.666 -0.1233  0.3862  0.7602
  882TIP3    H124061   4.986   4.018  12.690 -0.6114  1.4546  1.4264
  882TIP3    H224062   4.886   3.905  12.706  1.3253 -0.6817 -1.0541
  883TIP3   OH224063   4.076   1.058  10.229  0.3355  0.1715 -0.3567
  883TIP3    H124064   4.013   1.054  10.157  0.2814  0.1337 -0.3059
  883TIP3    H224065   4.139   0.989  10.209  0.6279  0.5257 -0.6556
  884TIP3   OH224066   6.263   6.457  11.066  0.2306  0.7059  0.1330
  884TIP3    H124067   6.228   6.517  11.001 -2.2440  1.4976  2.1283
  884TIP3    H224068   6.260   6.371  11.024  0.1358  1.4195 -1.3314
  885TIP3   OH224069   2.519   1.200  11.767  0.0826 -0.6002  0.2858
  885TIP3    H124070   2.601   1.232  11.731  0.2466 -1.4496 -0.1006
  885TIP3    H224071   2.481   1.276  11.812 -1.3974  1.2237 -3.8215
  886TIP3   OH224072   0.264   5.679  10.868  0.2051 -0.4878  0.0681
  886TIP3    H124073   0.274   5.655  10.776  0.3859 -1.0688  0.2361
  886TIP3    H224074   0.302   5.606  10.916  1.2427  0.3795  0.5900
  887TIP3   OH224075   6.901   7.131  10.692  0.2519  0.2677  0.0215
  887TIP3    H124076   6.934   7.089  10.772 -1.1873 -0.1619  0.3975
  887TIP3    H224077   6.830   7.187  10.722  0.4337  0.9686 -0.8290
  888TIP3   OH224078   6.542   6.833  10.694 -0.3892 -0.1908 -0.1132
  888TIP3    H124079   6.567   6.891  10.766 -1.1535 -0.8337  0.6898
  888TIP3    H224080   6.463   6.874  10.657  0.4133  0.5207 -1.0540
  889TIP3   OH224081   4.489   6.401  11.752  0.0434 -0.4843 -0.3155
  889TIP3    H124082   4.499   6.494  11.732  2.3535 -0.4470  0.8153
  889TIP3    H224083   4.544   6.356  11.688 -1.5906 -1.1557 -1.2900
  890TIP3   OH224084   2.663   4.030  14.346 -0.3002 -0.1556 -0.2199
  890TIP3    H124085   2.577   3.996  14.371  0.7398 -2.1554  0.7378
  890TIP3    H224086   2.650   4.124  14.337 -2.5401 -0.4072  0.1237
  891TIP3   OH224087   6.861   0.453  11.368 -0.5961  0.3687 -0.0216
  891TIP3    H124088   6.785   0.488  11.322 -1.7215 -2.5664 -0.5234
  891TIP3    H224089   6.936   0.482  11.317 -1.7255 -1.3583 -2.7373
  892TIP3   OH224090   2.984   0.853  11.072 -0.2733  0.2751 -0.2314
  892TIP3    H124091   3.077   0.838  11.055 -0.4578 -0.7743 -0.3653
  892TIP3    H224092   2.952   0.768  11.102 -1.2186  0.6052 -0.3170
  893TIP3   OH224093   3.783   2.565  10.865  0.0609 -0.4506  0.0022
  893TIP3    H124094   3.800   2.476  10.897  1.1638 -0.3846 -0.3949
  893TIP3    H224095   3.765   2.553  10.772  0.0122 -0.2804 -0.0102
  894TIP3   OH224096   4.522   0.241  11.829 -0.0966 -0.4942 -0.3389
  894TIP3    H124097   4.443   0.254  11.776 -0.0628 -0.3213 -0.3445
  894TIP3    H224098   4.588   0.211  11.766  0.1550  0.4446 -0.5194
  895TIP3   OH224099   4.240   0.005  11.377  0.8756  0.0916  0.0321
  895TIP3    H124100   4.305  -0.064  11.358  1.4729  0.4175  0.8774
  895TIP3    H224101   4.265   0.077  11.319  1.1064  0.1151  0.1589
  896TIP3   OH224102   3.584   6.289  11.584 -0.0546  0.0446 -0.4997
  896TIP3    H124103   3.654   6.237  11.625  0.1234 -0.2410 -1.1552
  896TIP3    H224104   3.631   6.352  11.529 -0.2990  0.2449 -0.4767
  897TIP3   OH224105   5.536   5.711  10.029  0.4757  0.0081 -0.3305
  897TIP3    H124106   5.453   5.755  10.044  0.5962  0.2739 -0.4426
  897TIP3    H224107   5.551   5.719   9.934  0.3151 -0.5967 -0.4085
  898TIP3   OH224108   0.167   1.874  11.276  0.1794 -0.0587 -0.3068
  898TIP3    H124109   0.168   1.779  11.279 -2.2661 -0.1960 -1.8035
  898TIP3    H224110   0.215   1.896  11.196 -0.2291 -0.1069 -0.5689
  899TIP3   OH224111   5.575   6.275  12.088  0.8277 -0.0984 -0.4268
  899TIP3    H124112   5.636   6.292  12.016  1.8144  0.3668  0.4970
  899TIP3    H224113   5.492   6.254  12.046  1.7810 -1.3200 -1.7365
  900TIP3   OH224114   5.598   5.438  11.108  1.2054 -0.7680  0.0564
  900TIP3    H124115   5.680   5.482  11.086  0.4333 -0.3742 -2.2549
  900TIP3    H224116   5.610   5.348  11.077  0.5123 -0.5160 -0.9615
  901TIP3   OH224117   4.178   7.157  10.341 -0.1965  0.5903  0.1764
  901TIP3    H124118   4.248   7.109  10.297  1.3190  3.1029 -0.2682
  901TIP3    H224119   4.173   7.240  10.294 -2.1174  1.2471  1.4914
  902TIP3   OH224120   4.765   0.891  12.118 -0.0430 -0.4432 -0.0568
  902TIP3    H124121   4.846   0.867  12.164 -0.0188 -1.9332 -0.8371
  902TIP3    H224122   4.715   0.942  12.182  0.7588 -0.9822  1.0131
  903TIP3   OH224123   5.187   1.742  11.163 -0.8014  0.0619 -0.2287
  903TIP3    H124124   5.204   1.766  11.072 -1.7149  1.5862 -0.0245
  903TIP3    H224125   5.149   1.655  11.159 -0.0802 -0.2086 -1.2390
  904TIP3   OH224126   5.713   6.985  10.556 -0.1665  0.4969 -0.1297
  904TIP3    H124127   5.708   6.967  10.650 -1.2164  0.8534 -0.1097
  904TIP3    H224128   5.656   6.919  10.516 -1.7050  1.9113 -0.2975
  905TIP3   OH224129   1.494   6.978  11.777 -0.2494 -0.5257  0.4637
  905TIP3    H124130   1.517   7.048  11.716  0.2867 -0.6918  0.4746
  905TIP3    H224131   1.405   6.954  11.752 -0.1377 -0.3979 -0.0745
  906TIP3   OH224132   3.137   5.343  13.115 -0.3622  0.2328 -0.2343
  906TIP3    H124133   3.183   5.285  13.056 -1.1199 -0.4449 -0.1781
  906TIP3    H224134   3.204   5.402  13.150  0.6038 -1.2735  0.4935
  907TIP3   OH224135   4.075   6.717  11.484  0.0761 -0.0490 -0.1724
  907TIP3    H124136   4.098   6.713  11.392 -1.3152  4.2314 -0.8274
  907TIP3    H224137   4.119   6.796  11.516 -1.8099  0.1299  2.0847
  908TIP3   OH224138   1.647   7.225  10.453  0.5300  0.3381 -0.3075
  908TIP3    H124139   1.697   7.303  10.476  0.6728  0.5665 -1.3537
  908TIP3    H224140   1.677   7.202  10.365 -1.4238  0.6839 -1.0972
  909TIP3   OH224141   4.923   7.130  12.069 -0.1641  0.4209  0.3224
  909TIP3    H124142   4.908   7.071  11.994 -0.6951  0.7107  0.1983
  909TIP3    H224143   4.843   7.122  12.122 -0.1722  0.9118  0.3845
  910TIP3   OH224144   4.693   4.526  12.053  0.4764 -0.3798 -0.3080
  910TIP3    H124145   4.744   4.533  12.133 -2.0075 -0.6631  1.3362
  910TIP3    H224146   4.652   4.612  12.042  0.4534 -0.4771 -1.0563
  911TIP3   OH224147   5.447   4.091  15.517 -0.3757  0.1846 -0.3115
  911TIP3    H124148   5.524   4.048  15.555 -1.4392 -2.0722 -0.6426
  911TIP3    H224149   5.402   4.130  15.592 -0.2005 -0.5864  0.1952
  912TIP3   OH224150   3.055   6.701  13.228  0.0110  0.5291 -0.0132
  912TIP3    H124151   3.055   6.751  13.147  1.0342  2.0853  0.9103
  912TIP3    H224152   3.116   6.748  13.285 -2.6479  1.0007  2.5875
  913TIP3   OH224153   0.999   2.766  14.746  0.0802 -0.1235  0.3291
  913TIP3    H124154   0.912   2.741  14.714  0.5549 -1.7701  0.2979
  913TIP3    H224155   1.011   2.855  14.713 -0.4436 -0.8889 -2.0778
  914TIP3   OH224156   5.118   2.762  11.904 -0.5268 -0.7586 -0.1117
  914TIP3    H124157   5.211   2.747  11.888 -0.4370  0.2554 -0.6282
  914TIP3    H224158   5.076   2.739  11.821 -1.0683 -3.8670  0.9654
  915TIP3   OH224159   5.949   1.248  10.533  0.1822  0.2178 -0.3335
  915TIP3    H124160   5.910   1.169  10.570  0.2420  1.1242  1.7229
  915TIP3    H224161   5.887   1.276  10.466 -0.3656 -0.9637 -0.3331
  916TIP3   OH224162   5.032   5.275  13.954  0.4740 -0.4524 -0.2304
  916TIP3    H124163   5.007   5.244  14.041  0.5514 -0.6129 -0.2642
  916TIP3    H224164   5.050   5.195  13.905  0.5619 -0.3578 -0.3541
  917TIP3   OH224165   4.711   0.459  10.138  0.2371  0.1206 -0.0817
  917TIP3    H124166   4.775   0.510  10.089 -0.7493 -0.4283 -2.0043
  917TIP3    H224167   4.628   0.505  10.126  0.3349  1.2128  2.9560
  918TIP3   OH224168   4.058   6.925  10.629  0.1574 -0.1683 -0.2563
  918TIP3    H124169   3.970   6.906  10.662  0.6421 -0.3236  0.9768
  918TIP3    H224170   4.068   7.019  10.641 -0.5441  0.1864 -2.1841
  919TIP3   OH224171   6.359   0.756  11.417 -0.0122  0.1447  0.0015
  919TIP3    H124172   6.310   0.677  11.440  1.5784 -0.8209  0.2065
  919TIP3    H224173   6.392   0.739  11.329 -1.6836  1.6200 -0.9301
  920TIP3   OH224174   4.932   6.905  10.059 -0.2873  1.0382  0.1138
  920TIP3    H124175   4.874   6.872  10.127 -0.4966 -0.0252 -0.5625
  920TIP3    H224176   5.020   6.898  10.097  0.0609 -3.6619 -1.2084
  921TIP3   OH224177   4.498   7.216  11.626  0.0265  0.1625  0.0138
  921TIP3    H124178   4.515   7.178  11.540  0.1749 -0.3491  0.2645
  921TIP3    H224179   4.550   7.296  11.629  0.0719  0.1446 -0.3442
  922TIP3   OH224180   1.744   1.348  15.543 -1.0696 -0.2682 -0.2099
  922TIP3    H124181   1.753   1.261  15.503  0.3117  1.0400 -2.8897
  922TIP3    H224182   1.769   1.409  15.473 -1.2623  2.2653  1.8631
  923TIP3   OH224183   3.937   0.451  10.085  0.5203 -0.4433  0.3096
  923TIP3    H124184   3.958   0.399  10.008 -2.2979  0.1220 -0.9024
  923TIP3    H224185   3.946   0.542  10.056 -1.1676 -0.2207  0.4310
  924TIP3   OH224186   5.300   2.322  10.345  0.5073 -0.0011 -0.3617
  924TIP3    H124187   5.280   2.229  10.341  1.0074 -0.2169  1.7212
  924TIP3    H224188   5.244   2.361  10.278  0.9666 -1.8902 -1.8778
  925TIP3   OH224189   2.980   1.284  12.114  0.5159 -0.1417  1.0450
  925TIP3    H124190   2.931   1.279  12.196  2.3910  0.8211  2.2772
  925TIP3    H224191   3.029   1.366  12.121  0.5465  0.0619 -1.1561
  926TIP3   OH224192   5.068   2.213  15.094  0.1961 -0.4246  0.2909
  926TIP3    H124193   5.021   2.274  15.037  1.0651  0.3495  0.3894
  926TIP3    H224194   5.070   2.130  15.045 -1.1541 -0.4300  0.2416
  927TIP3   OH224195   6.463   1.984  11.965  0.0327  0.1788  0.1885
  927TIP3    H124196   6.417   2.068  11.957  2.4251  1.5472  0.1787
  927TIP3    H224197   6.458   1.946  11.877  1.2097  1.5807 -0.5174
  928TIP3   OH224198   3.735   6.178  11.339 -0.0574 -0.2886 -0.1678
  928TIP3    H124199   3.822   6.163  11.300 -0.4375 -2.6489 -0.2086
  928TIP3    H224200   3.737   6.131  11.422 -1.6395 -1.2594 -0.6538
  929TIP3   OH224201   2.554   0.242  11.318 -0.8396  0.2290 -0.7166
  929TIP3    H124202   2.505   0.171  11.277 -0.7515  0.8245 -1.8470
  929TIP3    H224203   2.507   0.259  11.400  0.1273 -2.2807  0.4057
  930TIP3   OH224204   4.835   3.057  13.807  0.1784 -0.0307 -0.0130
  930TIP3    H124205   4.901   3.020  13.865  0.3182  0.8352  0.3833
  930TIP3    H224206   4.845   3.009  13.725 -2.1336 -3.5389  1.6342
  931TIP3   OH224207   3.977   1.311  12.808  0.1806 -0.3442  0.7917
  931TIP3    H124208   3.999   1.386  12.863  0.5469  0.5080 -0.4959
  931TIP3    H224209   4.061   1.266  12.794  0.4838  0.7110 -0.9046
  932TIP3   OH224210   6.008   7.013  11.546 -0.2225  0.2391 -0.5773
  932TIP3    H124211   5.979   6.972  11.465  1.1185 -1.7578 -0.0732
  932TIP3    H224212   5.955   6.972  11.615  0.9175 -0.4559 -0.1017
  933TIP3   OH224213   4.714   0.180  10.579 -0.4706  0.4588  0.5654
  933TIP3    H124214   4.685   0.212  10.665 -2.1142 -2.2287  1.0822
  933TIP3    H224215   4.800   0.141  10.596  1.2341  3.8984  0.0603
  934TIP3   OH224216   4.020   5.917  15.724 -0.0326 -1.0016  0.1246
  934TIP3    H124217   4.050   5.925  15.634  0.4158  0.1635  0.3765
  934TIP3    H224218   3.981   5.829  15.728 -1.2724 -0.5650 -1.5624
  935TIP3   OH224219   1.856   4.833  12.637 -0.1113 -0.0916 -0.1513
  935TIP3    H124220   1.766   4.839  12.668 -0.6773  1.5487 -2.0349
  935TIP3    H224221   1.882   4.924  12.620  1.2215 -0.7083 -1.5244
  936TIP3   OH224222   4.420   6.439  15.542  0.3353 -0.3616 -0.4863
  936TIP3    H124223   4.372   6.387  15.606 -1.2935 -0.9694 -2.1625
  936TIP3    H224224   4.378   6.525  15.543 -0.2669 -0.6409 -1.3632
  937TIP3   OH224225   6.635   5.965  12.682  0.1163 -0.6119  0.3641
  937TIP3    H124226   6.633   5.925  12.769  2.2951 -0.9800  0.2788
  937TIP3    H224227   6.569   6.035  12.686 -0.3772 -1.1530  2.0399
  938TIP3   OH224228   2.724   0.162  10.096 -0.1102 -0.1630 -0.7600
  938TIP3    H124229   2.782   0.238  10.099 -1.1250  0.7215 -2.5803
  938TIP3    H224230   2.647   0.189  10.147  0.6140 -0.9591  0.7943
  939TIP3   OH224231   5.346   6.185  11.959  0.6235 -0.0387 -0.4288
  939TIP3    H124232   5.294   6.230  11.892  1.3272 -0.9818 -1.6334
  939TIP3    H224233   5.281   6.148  12.018  0.0207  2.6095  0.6675
  940TIP3   OH224234   4.532   6.063  13.511  0.0106  0.2430 -0.6415
  940TIP3    H124235   4.613   6.042  13.463 -0.1198 -3.0450  0.4846
  940TIP3    H224236   4.559   6.127  13.577  1.0765  1.4146 -2.1738
  941TIP3   OH224237   4.818   5.873  12.505 -0.7184 -0.0119  0.1189
  941TIP3    H124238   4.912   5.888  12.509 -0.2994 -2.2798 -0.8032
  941TIP3    H224239   4.793   5.848  12.593  0.0714 -2.2470 -0.2579
  942TIP3   OH224240   1.708   1.940  12.266  0.1504 -0.1654 -0.1748
  942TIP3    H124241   1.720   1.998  12.342 -0.3748 -1.3052  0.7871
  942TIP3    H224242   1.615   1.948  12.244  0.7127  1.7581 -2.0174
  943TIP3   OH224243   4.537   2.843  13.045  0.7532  0.1123  0.1115
  943TIP3    H124244   4.555   2.749  13.047  1.2585  0.2051 -0.1233
  943TIP3    H224245   4.538   2.866  12.952  3.3735  0.8741  0.2888
  944TIP3   OH224246   5.267   1.197  11.308  0.2428  0.3215 -0.1917
  944TIP3    H124247   5.179   1.166  11.328  0.7723 -2.0945 -1.4184
  944TIP3    H224248   5.293   1.247  11.385 -2.0699  0.8293  0.3016
  945TIP3   OH224249   5.533   7.217  10.536 -0.4349  0.2982 -0.1873
  945TIP3    H124250   5.518   7.237  10.629  1.0411 -2.0706  0.5867
  945TIP3    H224251   5.626   7.232  10.522 -0.6876  0.8569 -1.3709
  946TIP3   OH224252   6.000   2.516  12.503  0.4288  0.4588 -0.2267
  946TIP3    H124253   5.963   2.494  12.418  1.0115  0.5823 -0.5165
  946TIP3    H224254   6.047   2.438  12.530 -3.2615 -1.1512  1.9610
  947TIP3   OH224255   2.688   5.216  11.759  0.7616 -0.0779  0.4363
  947TIP3    H124256   2.616   5.181  11.706  0.2556  0.5825  0.6693
  947TIP3    H224257   2.696   5.308  11.731  0.4002  0.3130  1.5758
  948TIP3   OH224258   3.561   2.132  11.184 -0.0518  0.2877  0.3978
  948TIP3    H124259   3.510   2.209  11.207  0.0751  0.3622  0.4336
  948TIP3    H224260   3.651   2.156  11.206 -0.1907 -0.4015  1.7940
  949TIP3   OH224261   4.310   1.642  13.171  0.1685 -0.1616 -0.4419
  949TIP3    H124262   4.374   1.617  13.237  0.2373 -1.6502 -1.0361
  949TIP3    H224263   4.311   1.569  13.109 -2.2876 -0.3295 -0.3209
  950TIP3   OH224264   2.879   6.843  11.638 -0.0426 -0.1527  0.3080
  950TIP3    H124265   2.852   6.753  11.617 -0.2188 -0.4743  1.8172
  950TIP3    H224266   2.799   6.894  11.635  0.6383  0.9565 -5.0585
  951TIP3   OH224267   1.300   1.433  11.384  0.0910 -0.0370 -0.1484
  951TIP3    H124268   1.312   1.476  11.469 -3.0188 -0.1764  0.4385
  951TIP3    H224269   1.291   1.340  11.404 -2.1402  0.0868 -0.4143
  952TIP3   OH224270   3.191   3.135  11.124 -0.1682 -0.7922 -0.1293
  952TIP3    H124271   3.280   3.105  11.144 -0.3346 -1.1484  0.0748
  952TIP3    H224272   3.203   3.200  11.055  0.5351  1.3447  1.9297
  953TIP3   OH224273   5.442   6.865  13.123  0.1797  0.0036 -0.1604
  953TIP3    H124274   5.422   6.957  13.103  1.2128  0.5858  1.4667
  953TIP3    H224275   5.359   6.829  13.155  0.3603  0.9913  1.4406
  954TIP3   OH224276   3.717   6.151  12.444  0.2081  0.4538 -0.0826
  954TIP3    H124277   3.766   6.177  12.366  0.0807  1.6869  0.2459
  954TIP3    H224278   3.782   6.149  12.514  0.2615 -0.3448 -0.1527
  955TIP3   OH224279   0.034   5.214  11.058  0.2443  0.6896 -0.1797
  955TIP3    H124280   0.121   5.181  11.034  0.6704  0.7832  1.1960
  955TIP3    H224281   0.046   5.254  11.143 -0.9012  1.8412 -0.5480
  956TIP3   OH224282   2.947   0.675  10.774  0.0133  0.3188  0.1584
  956TIP3    H124283   2.866   0.625  10.782  0.3414 -0.4449 -1.1679
  956TIP3    H224284   3.013   0.609  10.751  0.5921  1.2480 -0.8503
  957TIP3   OH224285   6.008   7.237  10.402 -0.0260  0.5991  0.2870
  957TIP3    H124286   5.983   7.153  10.364 -1.4915  0.3818  1.6837
  957TIP3    H224287   6.041   7.288  10.328 -0.1079 -0.8286 -0.7533
  958TIP3   OH224288   5.168   3.747  10.083 -0.1503  0.1977  0.3558
  958TIP3    H124289   5.090   3.764  10.029 -1.4328  0.8435  2.3463
  958TIP3    H224290   5.222   3.825  10.072  0.7248 -0.6730 -1.8247
  959TIP3   OH224291   6.487   6.397   9.989  0.3853 -0.0271  0.7756
  959TIP3    H124292   6.513   6.351   9.909 -0.2357 -0.1720  0.6592
  959TIP3    H224293   6.556   6.462  10.002 -0.0428  0.6982 -0.4650
  960TIP3   OH224294   3.705   6.811  10.212  0.2197  0.1407  0.1925
  960TIP3    H124295   3.800   6.821  10.201  0.7207 -2.3143  1.8159
  960TIP3    H224296   3.680   6.746  10.145  0.0824 -0.8007  1.1338
  961TIP3   OH224297   3.661   2.752  12.194 -0.0858 -0.9222  0.0701
  961TIP3    H124298   3.732   2.817  12.193  0.7492 -1.8237 -1.4442
  961TIP3    H224299   3.601   2.784  12.261  0.2160  1.5141 -0.7589
  962TIP3   OH224300   3.680   0.275  10.290 -0.5308  0.0857  0.0182
  962TIP3    H124301   3.747   0.329  10.249  0.7400 -1.4773 -0.0048
  962TIP3    H224302   3.649   0.218  10.220 -0.2697 -0.7472  0.5725
  963TIP3   OH224303   0.440   0.086  11.909  0.0941  0.3935 -0.4560
  963TIP3    H124304   0.349   0.114  11.906 -0.5243 -1.0129  2.9653
  963TIP3    H224305   0.487   0.160  11.949  0.2203  0.5170 -0.8252
  964TIP3   OH224306   5.362   0.633  11.390 -0.7917  0.0190  0.5993
  964TIP3    H124307   5.431   0.601  11.332 -1.2616 -0.5375  0.3417
  964TIP3    H224308   5.408   0.662  11.469 -0.3979 -1.7675  1.0341
  965TIP3   OH224309   3.169   0.505  10.699  0.0159  0.1671 -0.4764
  965TIP3    H124310   3.243   0.501  10.759 -0.9333  0.3624  0.7369
  965TIP3    H224311   3.119   0.426  10.718 -0.2946  0.2325 -1.0108
  966TIP3   OH224312   3.829   3.874  12.904  0.8292 -0.1716  0.2540
  966TIP3    H124313   3.737   3.872  12.877  0.6460  0.3811  0.8236
  966TIP3    H224314   3.834   3.947  12.966  0.9757 -2.1682  2.6432
  967TIP3   OH224315   2.633   6.201  13.994 -0.2902  0.3497  0.2207
  967TIP3    H124316   2.553   6.244  13.964 -0.4036  0.4111  0.6063
  967TIP3    H224317   2.675   6.265  14.052  0.9990  1.0542 -1.4376
  968TIP3   OH224318   5.740   3.409  10.092  0.5084  0.1273 -0.3133
  968TIP3    H124319   5.810   3.427  10.029  0.1364  1.6597 -0.2953
  968TIP3    H224320   5.669   3.373  10.039  0.5415  0.5210 -0.6264
  969TIP3   OH224321   7.276   3.498  11.364 -0.0726 -0.3503 -0.4288
  969TIP3    H124322   7.307   3.468  11.279  1.8252 -2.2322  0.8684
  969TIP3    H224323   7.266   3.417  11.415 -0.9724  0.7670  1.1996
  970TIP3   OH224324   0.781   6.488  10.050  0.2614  0.3585  0.2023
  970TIP3    H124325   0.819   6.418  10.103 -0.3829 -0.5199 -0.4730
  970TIP3    H224326   0.720   6.443   9.991 -0.4242  1.5281 -0.0036
  971TIP3   OH224327   4.092   6.713  11.199  0.2296  0.1390  0.2076
  971TIP3    H124328   4.049   6.706  11.114 -2.3878  1.2140  1.3906
  971TIP3    H224329   4.131   6.800  11.200 -1.6444  0.9957  0.9250
  972TIP3   OH224330   1.121   2.241  10.490  0.2567 -0.0972  0.5301
  972TIP3    H124331   1.160   2.188  10.420  0.4249  0.7965 -0.0649
  972TIP3    H224332   1.142   2.332  10.466 -0.5893  0.2826  1.1854
  973TIP3   OH224333   6.202   1.256  11.035  0.3353 -0.0082 -0.1885
  973TIP3    H124334   6.181   1.308  10.958  3.9684 -0.7270 -1.7734
  973TIP3    H224335   6.297   1.259  11.041  0.2442 -1.2061  3.4464
  974TIP3   OH224336   3.568   0.349  11.256  0.2589  0.1142 -0.0395
  974TIP3    H124337   3.472   0.352  11.262  0.1379 -0.4401 -1.4206
  974TIP3    H224338   3.598   0.349  11.347 -1.0897 -0.7740  0.4233
  975TIP3   OH224339   2.438   0.577  12.221  0.6300  0.1856  0.2400
  975TIP3    H124340   2.465   0.502  12.274 -1.6046 -0.9698 -0.1958
  975TIP3    H224341   2.452   0.549  12.131 -0.3963  0.2146  0.0697
  976TIP3   OH224342   6.309   6.928  10.947  0.1196 -0.4263 -0.9685
  976TIP3    H124343   6.356   6.844  10.947 -0.1718 -0.5946 -1.2389
  976TIP3    H224344   6.219   6.904  10.926 -0.0446 -0.0850 -0.6459
  977TIP3   OH224345   2.493   5.746  10.977 -0.3863  0.1195  0.0624
  977TIP3    H124346   2.528   5.682  10.914  1.0514 -0.0199  0.9632
  977TIP3    H224347   2.453   5.814  10.923  0.4227 -0.2310 -0.9941
  978TIP3   OH224348   6.021   0.803   9.905 -0.7134  0.5736 -0.2510
  978TIP3    H124349   6.045   0.890   9.871 -1.9317  1.4131  0.9744
  978TIP3    H224350   5.929   0.792   9.880 -0.4741 -0.5291 -0.6876
  979TIP3   OH224351   6.152   6.074  10.114 -0.6119  0.4697 -0.0672
  979TIP3    H124352   6.081   6.044  10.171  0.6219  1.6797  2.1488
  979TIP3    H224353   6.166   6.165  10.139  1.9609  0.1391 -0.2061
  980TIP3   OH224354   6.914   6.444  11.629  0.2477  0.3016  0.2133
  980TIP3    H124355   6.954   6.473  11.547 -2.8609  2.0974 -0.7722
  980TIP3    H224356   6.826   6.483  11.627 -0.3115 -0.6360  3.8412
  981TIP3   OH224357   6.727   0.479  10.827  0.3888  0.4602  0.1841
  981TIP3    H124358   6.631   0.483  10.830  0.4646  2.4712  0.1618
  981TIP3    H224359   6.750   0.520  10.744  1.2667 -0.3687  0.0108
  982TIP3   OH224360   2.677   0.862  11.256 -0.2248 -0.1039 -0.2269
  982TIP3    H124361   2.620   0.798  11.213  0.0585  0.0563 -0.8460
  982TIP3    H224362   2.763   0.819  11.258 -0.0925  0.1492 -0.4084
  983TIP3   OH224363   4.636   5.183  10.684 -0.6460  0.2323 -0.2656
  983TIP3    H124364   4.588   5.212  10.606  0.3857 -1.3626 -1.5172
  983TIP3    H224365   4.728   5.199  10.663 -0.4905  2.5376  1.8219
  984TIP3   OH224366   3.965   2.041  10.203  0.1783 -0.7297  0.6244
  984TIP3    H124367   3.957   2.012  10.113 -1.2311 -0.8906  0.7865
  984TIP3    H224368   3.879   2.077  10.224  0.5769 -0.4447  1.8122
  985TIP3   OH224369   1.548   2.725  12.795 -0.2859  0.0279  0.2329
  985TIP3    H124370   1.549   2.760  12.884 -0.9825  2.5665 -0.7171
  985TIP3    H224371   1.455   2.719  12.772 -0.1179 -0.8018 -0.2593
  986TIP3   OH224372   2.707   2.397  15.460 -0.5625 -0.1788 -0.3660
  986TIP3    H124373   2.650   2.467  15.490  0.7519  1.0025 -0.5365
  986TIP3    H224374   2.726   2.419  15.369 -0.0276 -0.6764 -0.3802
  987TIP3   OH224375   1.272   2.121  15.904  0.2160 -0.2125 -0.1211
  987TIP3    H124376   1.330   2.125  15.828  0.1851 -1.2421 -0.2041
  987TIP3    H224377   1.327   2.086  15.974  0.3304  1.0236  0.4293
  988TIP3   OH224378   6.322   6.729  14.282 -0.2390 -0.2274  0.2988
  988TIP3    H124379   6.311   6.714  14.376 -3.2131 -0.1941 -0.0170
  988TIP3    H224380   6.355   6.646  14.248 -1.3418 -0.9747  1.0307
  989TIP3   OH224381   2.243   0.888  10.519 -0.6402 -0.8781 -0.7352
  989TIP3    H124382   2.286   0.877  10.603  0.2751  0.2745 -1.0417
  989TIP3    H224383   2.149   0.878  10.538 -0.2871 -2.9414  0.0072
  990TIP3   OH224384   6.313   1.408  11.312 -0.8750  0.2950  0.0629
  990TIP3    H124385   6.326   1.314  11.301 -0.9982  0.4050 -1.0843
  990TIP3    H224386   6.241   1.415  11.374 -0.6755 -0.3647  0.3735
  991TIP3   OH224387   7.092   2.458  11.106  0.0448  0.1600  0.2231
  991TIP3    H124388   7.019   2.408  11.143 -0.1083  0.9417  0.9803
  991TIP3    H224389   7.106   2.530  11.168  1.9565 -0.4190  0.4816
  992TIP3   OH224390   6.733   0.026   9.809  0.1670  0.0759 -0.0210
  992TIP3    H124391   6.645   0.062   9.801  0.1745  0.4525  1.4788
  992TIP3    H224392   6.764   0.056   9.894  0.6079 -2.5478  0.7836
  993TIP3   OH224393   2.618   3.725  14.768  0.5130  0.1516 -0.2098
  993TIP3    H124394   2.685   3.781  14.809  0.5055 -0.7458  1.0750
  993TIP3    H224395   2.668   3.659  14.721  0.5278  0.0511 -0.0531
  994TIP3   OH224396   7.007   0.297  10.458 -0.6600  0.7088 -0.3693
  994TIP3    H124397   7.000   0.267  10.368  1.4039  1.9574 -0.9646
  994TIP3    H224398   6.930   0.260  10.502 -1.2760 -0.5143 -2.4490
  995TIP3   OH224399   4.775   1.408  11.755 -0.4271 -0.2360  0.4003
  995TIP3    H124400   4.733   1.344  11.697  0.4819 -1.5238  1.1630
  995TIP3    H224401   4.764   1.491  11.709 -2.0852 -0.8429 -0.3492
  996TIP3   OH224402   6.740   2.276   9.947 -0.0514  0.4028 -0.4984
  996TIP3    H124403   6.706   2.187   9.952  0.0179  0.3972 -0.1013
  996TIP3    H224404   6.670   2.326   9.905 -0.0430  0.1388 -0.8293
  997TIP3   OH224405   5.435   0.226  13.439  0.6566  0.1619  0.1018
  997TIP3    H124406   5.422   0.227  13.344 -1.4404 -1.2120  0.3432
  997TIP3    H224407   5.465   0.138  13.459 -0.7466 -0.1503  0.9205
  998TIP3   OH224408   6.637   6.774  11.430 -0.5457 -0.2225 -0.0439
  998TIP3    H124409   6.558   6.728  11.402  0.0996 -1.6110  0.3560
  998TIP3    H224410   6.636   6.856  11.381 -2.0775 -0.3575 -0.2566
  999TIP3   OH224411   6.154   1.030  10.749 -0.3844  0.2692 -0.2956
  999TIP3    H124412   6.076   1.085  10.754 -2.3505 -2.4780  0.6438
  999TIP3    H224413   6.130   0.951  10.797  2.3791 -1.3482 -1.4913
 1000TIP3   OH224414   0.503   0.892   9.725 -0.3952  0.0425  0.2064
 1000TIP3    H124415   0.448   0.824   9.684  0.2543  0.8030 -2.0095
 1000TIP3    H224416   0.586   0.848   9.744 -0.5648 -0.2208  0.3316
 1001TIP3   OH224417   5.609   1.743  12.645  0.1569 -0.0791 -0.0862
 1001TIP3    H124418   5.658   1.771  12.722 -2.4482 -1.1429  2.0323
 1001TIP3    H224419   5.660   1.671  12.608  1.7925  0.9117  0.1688
 1002TIP3   OH224420   6.248   4.443  11.142  1.3324 -0.1260  0.0371
 1002TIP3    H124421   6.308   4.454  11.068  0.7980  2.2660 -0.0752
 1002TIP3    H224422   6.185   4.514  11.132 -0.0077 -1.0774  1.6034
 1003TIP3   OH224423   1.900   6.535  10.665 -0.0728  0.3663 -0.5134
 1003TIP3    H124424   1.835   6.576  10.608 -0.9727  1.1338  1.0157
 1003TIP3    H224425   1.854   6.520  10.747  0.8144 -1.9339 -0.3815
 1004TIP3   OH224426   5.708   0.819  10.613 -0.7902 -0.3428  0.3374
 1004TIP3    H124427   5.620   0.783  10.626 -0.9331 -0.2839 -0.4538
 1004TIP3    H224428   5.756   0.749  10.568 -1.1344  0.5248 -1.4206
 1005TIP3   OH224429   3.829   2.290  10.933 -0.5436 -0.3618  0.4516
 1005TIP3    H124430   3.828   2.292  11.029  1.0622 -0.6910  0.4848
 1005TIP3    H224431   3.805   2.200  10.911 -2.9169  0.2371  0.4863
 1006TIP3   OH224432   2.343   4.373  13.928 -0.6901 -0.3642 -0.5372
 1006TIP3    H124433   2.399   4.358  14.004 -1.2881 -0.4182 -0.0989
 1006TIP3    H224434   2.404   4.386  13.855 -0.1064  0.1530  0.0362
 1007TIP3   OH224435   0.796   6.866  13.116 -0.0567 -0.6256  0.3819
 1007TIP3    H124436   0.815   6.959  13.100  0.5118 -0.9750 -1.0215
 1007TIP3    H224437   0.760   6.834  13.034  2.4815 -2.3498 -0.1221
 1008TIP3   OH224438   7.241   3.338  12.694  0.0211  0.0397 -0.0426
 1008TIP3    H124439   7.240   3.244  12.711  2.2523  0.3433  2.0462
 1008TIP3    H224440   7.180   3.374  12.759  2.8950  0.4780  2.4790
 1009TIP3   OH224441   5.711   0.538  10.865  0.5749  0.7652  0.5951
 1009TIP3    H124442   5.761   0.464  10.829 -0.2384  0.5645 -0.1506
 1009TIP3    H224443   5.762   0.615  10.841  0.2345  0.6042 -0.6990
 1010TIP3   OH224444   6.445   1.068  10.751 -0.2296 -0.0955  0.0652
 1010TIP3    H124445   6.491   1.145  10.716  0.8547 -0.5058  0.5500
 1010TIP3    H224446   6.359   1.071  10.711  0.3247  0.5411 -1.1035
 1011TIP3   OH224447   1.063   1.364  12.676 -0.0532 -0.3716 -0.5998
 1011TIP3    H124448   1.058   1.273  12.706 -0.1559 -0.1433  0.0747
 1011TIP3    H224449   0.981   1.404  12.707 -0.5122 -0.3346 -1.8487
 1012TIP3   OH224450   0.094   1.547  11.906 -0.0607  0.6481  0.1790
 1012TIP3    H124451   0.156   1.544  11.979  0.3951  1.5980 -0.1662
 1012TIP3    H224452   0.028   1.481  11.928  3.0303 -3.1000 -1.2395
 1013TIP3   OH224453   6.402   1.930  11.453 -0.6309 -0.5123 -0.4557
 1013TIP3    H124454   6.488   1.966  11.431 -0.5758 -0.7288 -0.5880
 1013TIP3    H224455   6.344   1.962  11.384 -1.2480  1.9946  1.1353
 1014TIP3   OH224456   2.696   5.533  12.868 -0.2502 -0.0242 -0.4817
 1014TIP3    H124457   2.605   5.513  12.891  0.3762 -2.7734 -0.2258
 1014TIP3    H224458   2.748   5.471  12.919  1.7673  1.0994 -1.1015
 1015TIP3   OH224459   1.442   2.054  12.491 -0.0233  0.2780 -0.4355
 1015TIP3    H124460   1.461   1.981  12.551  0.7790 -0.4617 -1.5700
 1015TIP3    H224461   1.439   2.014  12.405 -1.5027  1.2970 -0.8685
 1016TIP3   OH224462   5.424   0.064  11.624  0.4416 -0.3866 -0.2067
 1016TIP3    H124463   5.399   0.059  11.716  1.9745  1.0615  0.3066
 1016TIP3    H224464   5.451   0.155  11.611  0.9381 -0.7554 -1.8992
 1017TIP3   OH224465   7.122   6.725  10.930  1.0715  0.1695 -0.8148
 1017TIP3    H124466   7.176   6.656  10.894  0.2728 -1.7268  1.4680
 1017TIP3    H224467   7.032   6.698  10.911  0.8131  1.8075 -2.0034
 1018TIP3   OH224468   5.464   7.295  10.198 -0.2747 -0.7215 -0.0181
 1018TIP3    H124469   5.541   7.287  10.254  0.0478  1.4404 -0.1427
 1018TIP3    H224470   5.499   7.313  10.111 -0.9363  0.8692  0.0345
 1019TIP3   OH224471   7.140   0.241  12.069  0.1813 -0.8587  0.1422
 1019TIP3    H124472   7.051   0.240  12.104  1.0084 -2.5586  2.3390
 1019TIP3    H224473   7.184   0.312  12.117  0.1728 -0.4057 -0.5172
 1020TIP3   OH224474   6.972   6.457  11.363 -0.4002 -0.5684  0.0681
 1020TIP3    H124475   7.049   6.464  11.308 -1.1977 -1.0422 -1.1084
 1020TIP3    H224476   6.940   6.368  11.351  0.1889 -1.1383  2.3456
 1021TIP3   OH224477   1.191   1.443  11.960 -0.0676 -0.2768  0.3935
 1021TIP3    H124478   1.232   1.522  11.925 -0.2565 -0.1090  0.5469
 1021TIP3    H224479   1.122   1.422  11.897 -0.5721  0.1694  0.7880
 1022TIP3   OH224480   7.300   7.212  11.167  0.6703  0.1622  0.2861
 1022TIP3    H124481   7.249   7.224  11.087 -0.3132  2.1822  1.1949
 1022TIP3    H224482   7.390   7.207  11.137  0.2322 -0.1661 -1.0318
 1023TIP3   OH224483   5.795   6.726  10.508  1.0369  0.2398  0.2118
 1023TIP3    H124484   5.770   6.648  10.556 -1.5247  1.6016  1.2168
 1023TIP3    H224485   5.837   6.693  10.429 -1.0229 -2.1893  0.0600
 1024TIP3   OH224486   5.086   0.083  10.798 -0.5529  0.1418 -0.1156
 1024TIP3    H124487   5.153   0.151  10.786 -0.0007 -0.6424 -1.5712
 1024TIP3    H224488   5.028   0.093  10.723  0.4164 -1.9867 -1.1668
 1025TIP3   OH224489   5.882   6.703  12.051 -0.2834  0.3864 -0.1935
 1025TIP3    H124490   5.914   6.703  12.141 -0.0183 -0.1961 -0.2825
 1025TIP3    H224491   5.860   6.794  12.033  0.6652  0.6805  0.1052
 1026TIP3   OH224492   6.808   5.348  12.250  0.2571  0.9197 -0.1334
 1026TIP3    H124493   6.860   5.291  12.307 -0.9678 -1.1764 -1.0313
 1026TIP3    H224494   6.723   5.355  12.294 -0.0211  0.9931 -0.6750
 1027TIP3   OH224495   5.319   0.592  13.805  0.3371 -0.1847  0.3551
 1027TIP3    H124496   5.229   0.612  13.833  0.1476 -0.5280 -0.0003
 1027TIP3    H224497   5.314   0.589  13.710  0.6963 -0.3487  0.3405
 1028TIP3   OH224498   6.341   4.926  12.268  0.0295 -0.3257  0.8032
 1028TIP3    H124499   6.339   4.916  12.173 -1.7375  0.7754  0.6948
 1028TIP3    H224500   6.434   4.927  12.290  0.5596  2.4524 -1.2768
 1029TIP3   OH224501   0.120   4.007  11.505 -0.0560 -0.7183  0.4083
 1029TIP3    H124502   0.162   4.072  11.562 -0.8351  0.1889 -0.0354
 1029TIP3    H224503   0.035   4.046  11.484  0.1621 -1.1104 -1.2480
 1030TIP3   OH224504   6.320   2.014  12.813  0.0738 -0.4975  0.8398
 1030TIP3    H124505   6.344   2.051  12.899  0.5418 -1.7123  1.2345
 1030TIP3    H224506   6.335   1.920  12.822 -0.0498 -0.6553 -0.5288
 1031TIP3   OH224507   5.678   2.207  12.133  0.3996  0.1938  0.0194
 1031TIP3    H124508   5.752   2.163  12.174 -0.3201  0.7927  1.9955
 1031TIP3    H224509   5.716   2.281  12.085  1.5240 -2.0057 -2.6202
 1032TIP3   OH224510   2.494   0.697  11.148 -0.0752  0.3799  0.0742
 1032TIP3    H124511   2.430   0.632  11.120 -2.2089  1.6326  1.8293
 1032TIP3    H224512   2.531   0.731  11.066 -2.5003  0.4242 -1.0558
 1033TIP3   OH224513   7.108   6.796  10.634 -0.0090 -0.2939  0.1122
 1033TIP3    H124514   7.137   6.798  10.725  1.0268 -0.4555 -0.2039
 1033TIP3    H224515   7.016   6.770  10.638  0.5504 -2.2068  0.9998
 1034TIP3   OH224516   6.115   5.866  11.382 -0.5678 -0.3074 -0.0915
 1034TIP3    H124517   6.150   5.947  11.344 -0.2162 -0.1258  0.5908
 1034TIP3    H224518   6.178   5.844  11.451 -0.4368 -1.3969 -0.5460
 1035TIP3   OH224519   5.182   4.225  11.928  0.3675 -0.2042  0.4543
 1035TIP3    H124520   5.135   4.164  11.871  1.4019  1.4617 -2.2212
 1035TIP3    H224521   5.274   4.202  11.918  0.6710  1.0222  0.3408
 1036TIP3   OH224522   1.368   7.137  11.409 -0.2960 -0.0506 -0.0442
 1036TIP3    H124523   1.290   7.097  11.370  0.0286 -0.6465 -0.0793
 1036TIP3    H224524   1.439   7.076  11.391  0.1540  0.4085  0.1387
 1037TIP3   OH224525   5.977   5.469  11.256  0.4995  0.3673 -0.0288
 1037TIP3    H124526   6.065   5.484  11.291  1.5494 -0.2288 -2.3161
 1037TIP3    H224527   5.956   5.380  11.283  0.2213  0.8206  1.2757
 1038TIP3   OH224528   2.380   1.540   9.865  0.4061 -0.5421 -0.2476
 1038TIP3    H124529   2.294   1.564   9.832  0.4820 -0.2632 -0.2458
 1038TIP3    H224530   2.368   1.453   9.903  0.1474 -0.5428 -0.3295
 1039TIP3   OH224531   1.343   1.149  13.183 -0.2866  0.3323  0.4621
 1039TIP3    H124532   1.253   1.161  13.151 -0.3488  1.5431  1.0780
 1039TIP3    H224533   1.358   1.223  13.242  0.9427 -0.1437  0.7625
 1040TIP3   OH224534   5.799   6.262  13.580 -0.4187  0.4229  0.2055
 1040TIP3    H124535   5.847   6.180  13.567  0.1898  1.1062 -2.1466
 1040TIP3    H224536   5.713   6.234  13.610  0.4539 -0.9740  1.5122
 1041TIP3   OH224537   0.945   0.873  10.863 -0.2032 -0.1372 -0.2264
 1041TIP3    H124538   0.909   0.824  10.938  0.6269  0.0615  0.3076
 1041TIP3    H224539   0.947   0.964  10.893  2.5913 -0.3951  0.5032
 1042TIP3   OH224540   6.294   1.911  10.272  0.0731 -0.1241  0.2990
 1042TIP3    H124541   6.296   2.006  10.262  1.1522 -0.1232  0.4318
 1042TIP3    H224542   6.345   1.878  10.198 -0.1470 -0.5889  0.3532
 1043TIP3   OH224543   1.879   7.244  13.690 -0.2821 -0.4002 -0.4009
 1043TIP3    H124544   1.819   7.300  13.641 -1.1372 -0.8198  0.1560
 1043TIP3    H224545   1.838   7.158  13.690 -0.9380 -0.1243  2.1202
 1044TIP3   OH224546   0.821   2.380  10.606 -0.5009 -0.2831 -0.1628
 1044TIP3    H124547   0.848   2.310  10.665 -2.6324 -2.0131 -1.1656
 1044TIP3    H224548   0.892   2.444  10.611  0.4578 -1.4837  2.4380
 1045TIP3   OH224549   0.461   0.753  11.004 -0.6739  0.2635  0.0831
 1045TIP3    H124550   0.536   0.696  10.986 -0.4956  0.0672  1.4006
 1045TIP3    H224551   0.384   0.698  10.988 -0.5164 -0.0013  0.2372
 1046TIP3   OH224552   0.346   1.313  11.379  0.0756  0.3583 -0.3519
 1046TIP3    H124553   0.305   1.229  11.403  1.4601 -0.4833 -0.8511
 1046TIP3    H224554   0.436   1.289  11.355 -0.1917  1.6516 -2.8273
 1047TIP3   OH224555   5.731   3.791  11.256 -0.1641  0.3152  0.0599
 1047TIP3    H124556   5.760   3.726  11.192  0.5636  1.2423 -0.5653
 1047TIP3    H224557   5.652   3.753  11.295 -1.5251  0.3779 -2.4831
 1048TIP3   OH224558   7.281   1.648  10.369  0.1911  0.5444 -0.1659
 1048TIP3    H124559   7.307   1.675  10.281 -1.5446  0.8441 -0.5937
 1048TIP3    H224560   7.224   1.573  10.356  2.4471 -1.4417  0.8809
 1049TIP3   OH224561   4.117   1.980  12.798 -0.0372 -0.8653  0.0968
 1049TIP3    H124562   4.041   1.922  12.807 -0.3545 -0.4521  0.0898
 1049TIP3    H224563   4.080   2.068  12.800  0.1685 -0.6819 -2.2357
 1050TIP3   OH224564   1.399   6.650  10.381 -0.3024 -0.0342 -0.0555
 1050TIP3    H124565   1.426   6.723  10.437 -0.5786  0.4475 -0.5469
 1050TIP3    H224566   1.476   6.630  10.329 -0.0380 -0.4962  0.5080
 1051TIP3   OH224567   3.042   6.286  11.357  0.2438  0.0410 -0.0849
 1051TIP3    H124568   2.971   6.223  11.372  2.5554 -3.0441 -1.7074
 1051TIP3    H224569   3.067   6.315  11.445 -1.4292 -0.5918  0.6253
 1052TIP3   OH224570   6.586   0.121  11.576  0.2037  0.4396 -0.3692
 1052TIP3    H124571   6.614   0.079  11.495  2.9005 -0.5633  1.0234
 1052TIP3    H224572   6.622   0.210  11.570 -0.4930  0.7050 -0.7098
 1053TIP3   OH224573   5.955   6.698  10.905 -0.1557 -0.1395 -0.8783
 1053TIP3    H124574   5.973   6.792  10.907  0.5297 -0.3077  1.0261
 1053TIP3    H224575   5.864   6.691  10.934 -0.3044 -0.0528 -1.3142
 1054TIP3   OH224576   0.130   6.126  10.367  0.3394  0.6126 -0.5088
 1054TIP3    H124577   0.037   6.121  10.346  0.4291 -1.4956 -0.5471
 1054TIP3    H224578   0.169   6.173  10.293 -0.5679  0.7655 -0.8939
 1055TIP3   OH224579   4.194   5.887  13.086 -0.4414  0.7701 -0.4006
 1055TIP3    H124580   4.222   5.960  13.141 -1.5853  0.2931  0.8514
 1055TIP3    H224581   4.099   5.881  13.101 -0.5555 -0.2057 -1.4234
 1056TIP3   OH224582   2.338   2.067  10.359 -0.2882  0.1449 -0.1049
 1056TIP3    H124583   2.293   2.053  10.276  0.5769 -0.2589 -0.5085
 1056TIP3    H224584   2.294   2.143  10.398 -1.5482 -0.4630 -0.3289
 1057TIP3   OH224585   1.283   0.032  10.229 -0.7596  0.6414  0.6295
 1057TIP3    H124586   1.278   0.093  10.156  3.2765  0.3582 -0.0440
 1057TIP3    H224587   1.365  -0.015  10.215 -0.9715 -0.9813  4.1634
 1058TIP3   OH224588   1.732   1.041  12.488 -0.5136  0.5021 -0.0623
 1058TIP3    H124589   1.678   0.966  12.514 -2.6072  2.4320  1.3249
 1058TIP3    H224590   1.765   1.077  12.570 -0.2649  1.6365 -0.6505
 1059TIP3   OH224591   6.386   7.207  11.201 -0.3576 -0.3253 -0.5544
 1059TIP3    H124592   6.423   7.249  11.123 -0.7107 -1.4913 -1.3536
 1059TIP3    H224593   6.292   7.204  11.186 -0.3041 -1.7298 -0.6699
 1060TIP3   OH224594   5.994   1.493  10.310 -0.1656  0.2117 -0.2482
 1060TIP3    H124595   6.034   1.526  10.390 -0.2245  1.0161 -0.5470
 1060TIP3    H224596   5.931   1.427  10.339  2.0349 -1.7686  0.1832
 1061TIP3   OH224597   5.885   0.860  11.543 -0.1462  0.6283  0.0548
 1061TIP3    H124598   5.826   0.817  11.481 -0.9851  2.0661 -0.1866
 1061TIP3    H224599   5.920   0.935  11.494  0.5076  0.7959  0.7720
 1062TIP3   OH224600   0.082   2.256  11.726 -0.2710 -0.4686 -0.7060
 1062TIP3    H124601   0.067   2.339  11.772 -1.2199 -0.9533 -0.1013
 1062TIP3    H224602   0.038   2.267  11.642  0.7986  0.1393 -1.1930
 1063TIP3   OH224603   2.796   2.440  11.586 -0.0775  0.2270  0.0808
 1063TIP3    H124604   2.848   2.509  11.544  1.1908 -0.0227  1.2109
 1063TIP3    H224605   2.838   2.358  11.560 -0.3923 -0.0246  0.3477
 1064TIP3   OH224606   4.512   2.420  10.080  0.4356  0.9327  0.1717
 1064TIP3    H124607   4.556   2.498  10.116 -0.1878  0.3185  2.3608
 1064TIP3    H224608   4.559   2.346  10.119  1.1925  0.1831 -2.1012
 1065TIP3   OH224609   5.052   1.692  11.859 -0.2572  0.0626  0.1195
 1065TIP3    H124610   5.115   1.748  11.904 -0.5800 -1.0807  2.0629
 1065TIP3    H224611   4.981   1.751  11.834  0.7745  1.0454 -0.5537
 1066TIP3   OH224612   0.209   2.373  11.196 -0.4153  0.2235  1.0152
 1066TIP3    H124613   0.120   2.345  11.215 -0.7591  0.8973  0.4394
 1066TIP3    H224614   0.214   2.376  11.101 -0.1220  1.2431  1.0496
 1067TIP3   OH224615   5.943   6.825  14.508  0.7715  0.2312  0.2781
 1067TIP3    H124616   5.963   6.892  14.573 -0.9124 -1.9885  3.1539
 1067TIP3    H224617   5.870   6.862  14.458  0.1809  0.7691  1.5185
 1068TIP3   OH224618   0.427   0.990  11.792  0.5213 -0.0732 -0.3454
 1068TIP3    H124619   0.472   1.070  11.820  2.0860 -0.6443 -1.1712
 1068TIP3    H224620   0.433   0.931  11.867  0.7591  0.0066 -0.3036
 1069TIP3   OH224621   0.925   3.320  10.195  0.2274 -0.0329 -0.5052
 1069TIP3    H124622   0.893   3.249  10.140  1.6320 -0.8204 -0.3246
 1069TIP3    H224623   1.003   3.351  10.150  0.1700  0.7593 -0.0693
 1070TIP3   OH224624   0.018   6.543  10.808  0.1337 -0.2580 -0.5664
 1070TIP3    H124625   0.001   6.460  10.852  1.6105 -0.3827 -0.2144
 1070TIP3    H224626   0.075   6.521  10.734  1.1305  0.5221 -0.0460
 1071TIP3   OH224627   4.797   6.790  10.342  0.4262  0.1751 -0.0506
 1071TIP3    H124628   4.704   6.812  10.342  0.4867  0.4255 -0.0170
 1071TIP3    H224629   4.802   6.709  10.291  0.2300  0.3327 -0.3212
 1072TIP3   OH224630   6.076   0.993  14.445 -0.3302 -0.2305 -1.0014
 1072TIP3    H124631   6.158   1.020  14.406  0.4084 -1.3238 -0.2498
 1072TIP3    H224632   6.012   1.058  14.415  0.9322  1.0223 -1.0298
 1073TIP3   OH224633   4.762   5.209  11.138  0.2372  0.5246  0.0630
 1073TIP3    H124634   4.700   5.253  11.079  0.1450 -0.9749 -0.9803
 1073TIP3    H224635   4.848   5.238  11.106  0.1451  0.7622  0.0291
 1074TIP3   OH224636   0.206   0.417  14.183 -0.0618 -0.6087  0.5380
 1074TIP3    H124637   0.191   0.376  14.269  1.4525  1.0456  1.6171
 1074TIP3    H224638   0.129   0.394  14.132 -2.9144  1.7279  3.6296
 1075TIP3   OH224639   0.954   5.018  10.995  0.1325  0.2405 -0.4150
 1075TIP3    H124640   0.872   5.068  11.001  2.1423  3.6140  0.4200
 1075TIP3    H224641   0.958   4.968  11.076 -2.0535 -1.6133 -1.3881
 1076TIP3   OH224642   1.562   0.592  13.425 -0.6854 -0.1461  0.2440
 1076TIP3    H124643   1.542   0.617  13.335 -0.2926  0.6149  0.3633
 1076TIP3    H224644   1.563   0.675  13.473  1.6795 -0.2535  0.4514
 1077TIP3   OH224645   5.784   6.953  11.962  0.1408  0.1983  0.5869
 1077TIP3    H124646   5.827   7.031  11.997 -0.3389  1.2054 -0.9873
 1077TIP3    H224647   5.805   6.954  11.869 -2.9945  0.5780 -0.1986
 1078TIP3   OH224648   0.485   0.215  10.337 -0.5225  0.2845 -0.4781
 1078TIP3    H124649   0.536   0.155  10.281  1.2315  1.0296  0.2682
 1078TIP3    H224650   0.551   0.258  10.391 -2.0705  0.5984  1.1991
 1079TIP3   OH224651   1.998   6.836  11.351 -0.5103  1.1345  0.2432
 1079TIP3    H124652   1.998   6.920  11.398  0.3271  0.6195  1.1784
 1079TIP3    H224653   1.918   6.792  11.379 -0.8862  1.5631 -0.1491
 1080TIP3   OH224654   6.581   4.853  12.387  0.1758  0.3142  0.0370
 1080TIP3    H124655   6.669   4.891  12.394 -0.0317  1.0897 -1.3976
 1080TIP3    H224656   6.597   4.763  12.359  0.5251  0.4289 -0.1434
 1081TIP3   OH224657   5.099   5.493  12.848  0.2294  0.0082  0.0195
 1081TIP3    H124658   5.103   5.406  12.890 -2.1708  0.6419  1.6945
 1081TIP3    H224659   5.178   5.537  12.878  0.3895 -0.8627  0.9340
 1082TIP3   OH224660   6.944   5.258  10.648 -0.5945  0.0059  0.0508
 1082TIP3    H124661   6.953   5.177  10.598 -0.4856 -0.3635  0.6612
 1082TIP3    H224662   7.019   5.258  10.708 -2.0839 -0.7854  1.9470
 1083TIP3   OH224663   6.061   6.747  12.282  0.0588 -0.5386 -0.3889
 1083TIP3    H124664   6.145   6.767  12.241  0.1974 -0.9952 -0.3379
 1083TIP3    H224665   6.075   6.662  12.323  0.1917  0.3239  1.3704
 1084TIP3   OH224666   5.991   4.538  13.623  0.9223 -0.1520 -0.4467
 1084TIP3    H124667   5.938   4.471  13.666  2.8689 -0.9034  0.8618
 1084TIP3    H224668   6.036   4.491  13.553  2.2306 -0.2300  0.4259
 1085TIP3   OH224669   5.476   0.196  12.279  0.6327  0.2317 -0.9182
 1085TIP3    H124670   5.518   0.121  12.322 -0.2582  1.2867  1.8967
 1085TIP3    H224671   5.386   0.169  12.265  0.0904  1.0409  0.8725
 1086TIP3   OH224672   0.839   0.217  12.701  0.1704 -0.1603 -0.2608
 1086TIP3    H124673   0.831   0.203  12.607 -1.2664 -1.9959  0.0992
 1086TIP3    H224674   0.786   0.295  12.718  0.8444  0.4740 -1.0396
 1087TIP3   OH224675   2.500   0.799  11.861 -0.4450  0.3961 -0.3500
 1087TIP3    H124676   2.412   0.766  11.878 -0.5612  0.9827  0.2113
 1087TIP3    H224677   2.488   0.861  11.788 -0.5517  0.7143 -0.0651
 1088TIP3   OH224678   5.820   0.382   9.978  0.0066  0.3883  0.5085
 1088TIP3    H124679   5.848   0.302  10.022  2.9251 -2.0152 -5.1546
 1088TIP3    H224680   5.726   0.372   9.967  0.2461 -1.9501  0.4627
 1089TIP3   OH224681   0.442   5.410  10.145  0.5579  0.1212  0.1578
 1089TIP3    H124682   0.378   5.391  10.076  0.1654  0.5295  0.4046
 1089TIP3    H224683   0.490   5.486  10.113  1.6206 -0.7939 -0.4878
 1090TIP3   OH224684   2.753   1.531  11.992  0.0496 -0.3761  0.4649
 1090TIP3    H124685   2.804   1.476  11.933  0.7736 -0.1486  0.8743
 1090TIP3    H224686   2.811   1.603  12.015 -0.2754 -0.3746  1.3191
 1091TIP3   OH224687   0.120   5.366  10.304  0.5458  0.2581 -0.4950
 1091TIP3    H124688   0.132   5.306  10.230  0.6944  0.4526 -0.6294
 1091TIP3    H224689   0.159   5.320  10.379 -0.4998 -0.3713 -0.3242
 1092TIP3   OH224690   1.440   6.965  13.243  0.4245  0.4550  0.2125
 1092TIP3    H124691   1.387   6.903  13.193 -1.0204  0.8982  1.1504
 1092TIP3    H224692   1.527   6.927  13.245  0.9758  1.2128 -4.0778
 1093TIP3   OH224693   6.118   2.642  12.210  0.0835  0.0578  0.5311
 1093TIP3    H124694   6.031   2.680  12.219  0.4565  1.0452  0.0097
 1093TIP3    H224695   6.115   2.596  12.126  1.2524  3.3762 -1.4341
 1094TIP3   OH224696   1.471   3.066  15.343  0.6290 -0.4352  0.2385
 1094TIP3    H124697   1.534   3.089  15.275 -0.2305  2.7235  0.4484
 1094TIP3    H224698   1.413   3.002  15.301  1.5784 -0.3713 -1.1969
 1095TIP3   OH224699   4.566   6.609  15.763  0.2532 -0.3560  0.5577
 1095TIP3    H124700   4.595   6.626  15.673 -0.6223 -0.2220  0.2984
 1095TIP3    H224701   4.499   6.675  15.779  1.9396  1.0448  2.0814
 1096TIP3   OH224702   5.948   3.709   9.866  0.3837  0.3781  0.4149
 1096TIP3    H124703   5.957   3.616   9.884 -0.1614  0.5099  1.3716
 1096TIP3    H224704   5.861   3.732   9.900  0.5004  1.2236  0.1487
 1097TIP3   OH224705   3.113   6.788  12.542 -0.0374  0.0140  0.0421
 1097TIP3    H124706   3.056   6.712  12.553 -0.9200  0.8889  1.6508
 1097TIP3    H224707   3.171   6.787  12.618 -1.0645  1.7817  0.8714
 1098TIP3   OH224708   6.055   0.917  11.732 -0.6798  0.2914 -0.3122
 1098TIP3    H124709   6.082   1.007  11.718 -1.4557  0.4986 -0.5181
 1098TIP3    H224710   5.984   0.903  11.669  0.7946 -1.1023 -1.7313
 1099TIP3   OH224711   5.203   5.971  12.473 -0.0626  0.0806 -0.6015
 1099TIP3    H124712   5.242   6.020  12.544 -0.1439  0.5990 -0.9132
 1099TIP3    H224713   5.182   5.886  12.511 -0.6704  0.5662  0.1584
 1100TIP3   OH224714   0.920   0.852  13.614 -0.3063  0.0122  0.4328
 1100TIP3    H124715   0.962   0.805  13.542  0.4165  2.1098 -0.5562
 1100TIP3    H224716   0.827   0.834  13.603 -0.4010  1.8866 -2.2287
 1101TIP3   OH224717   6.135   4.955  12.556  0.0350 -0.4764 -0.4590
 1101TIP3    H124718   6.075   4.968  12.483 -0.4286 -0.5657 -0.0969
 1101TIP3    H224719   6.106   5.019  12.622  0.2022 -0.6710 -0.1976
 1102TIP3   OH224720   0.103   3.477  10.802  0.4879 -0.0554 -0.1872
 1102TIP3    H124721   0.057   3.558  10.823  2.4168  0.4252  2.2976
 1102TIP3    H224722   0.194   3.492  10.827  0.7380 -3.2376  1.1109
 1103TIP3   OH224723   4.655   4.290  10.456  1.0637  0.3205  0.0683
 1103TIP3    H124724   4.664   4.367  10.399 -0.2368  0.1170 -0.4267
 1103TIP3    H224725   4.568   4.300  10.496 -0.0911 -2.0898 -1.7772
 1104TIP3   OH224726   4.119   1.373  11.070  0.4842  0.1769  0.8097
 1104TIP3    H124727   4.081   1.367  11.158  2.4626 -1.6302  1.5892
 1104TIP3    H224728   4.210   1.347  11.081  1.0826  1.0677 -1.6014
 1105TIP3   OH224729   2.156   1.362  11.705 -0.0394  0.0667  0.1767
 1105TIP3    H124730   2.167   1.275  11.666  1.4632  1.1388 -1.8912
 1105TIP3    H224731   2.063   1.382  11.693 -1.2005 -2.6273  3.7987
 1106TIP3   OH224732   0.078   5.112  10.601  0.0680  0.1112 -0.4026
 1106TIP3    H124733   0.051   5.201  10.625  1.7774  0.8249 -1.0890
 1106TIP3    H224734   0.122   5.122  10.517 -0.0115 -1.4405 -0.6439
 1107TIP3   OH224735   5.355   6.624  12.543 -0.3205  0.4906 -0.3047
 1107TIP3    H124736   5.444   6.593  12.528 -0.0477  0.8942  0.4530
 1107TIP3    H224737   5.365   6.717  12.564 -0.8801  0.4524  0.1583
 1108TIP3   OH224738   7.005   6.367  10.882  0.7429 -0.0138 -0.4201
 1108TIP3    H124739   7.042   6.360  10.793 -1.7479 -0.6559 -1.4390
 1108TIP3    H224740   6.969   6.456  10.886  2.4114  0.6497  0.6144
 1109TIP3   OH224741   0.069   6.801  10.481  0.2413 -0.1434  0.6305
 1109TIP3    H124742   0.000   6.790  10.547  0.6306 -0.6839  0.9458
 1109TIP3    H224743   0.145   6.831  10.531  0.6342 -0.8747  0.4717
 1110TIP3   OH224744   4.229   2.950  12.800  0.5586 -0.1663 -0.0216
 1110TIP3    H124745   4.308   2.900  12.816  1.1764  1.3095  1.7596
 1110TIP3    H224746   4.158   2.893  12.828  1.1527 -0.5818  0.6446
 1111TIP3   OH224747   1.899   0.533  11.112 -0.0271 -0.1014  0.0424
 1111TIP3    H124748   1.854   0.448  11.112 -1.2196  0.4845 -1.7174
 1111TIP3    H224749   1.837   0.592  11.155  0.3322  0.1173  0.2601
 1112TIP3   OH224750   5.314   3.431  13.050 -0.3370  0.9088 -0.3235
 1112TIP3    H124751   5.231   3.412  13.094  0.6513  0.9296  1.6109
 1112TIP3    H224752   5.328   3.524  13.065  1.2061  0.4167  1.4781
 1113TIP3   OH224753   6.635   5.733  10.471  0.1989  0.3608 -0.1843
 1113TIP3    H124754   6.618   5.644  10.440  0.0385  0.0296  0.8260
 1113TIP3    H224755   6.710   5.763  10.419 -0.9672  0.3583 -1.8914
 1114TIP3   OH224756   6.879   7.097   9.603  0.6873  0.0074  0.5107
 1114TIP3    H124757   6.808   7.141   9.651  1.4918  1.8091  0.1139
 1114TIP3    H224758   6.950   7.091   9.667  1.4140  1.5116 -0.1174
 1115TIP3   OH224759   0.738   1.913  11.316  0.0212 -0.0830  0.1611
 1115TIP3    H124760   0.689   1.831  11.329  0.0640  0.1590  2.0490
 1115TIP3    H224761   0.737   1.927  11.222 -2.6086 -0.6721  0.0601
 1116TIP3   OH224762   6.570   1.319  12.025  0.3375  0.2786 -0.5724
 1116TIP3    H124763   6.546   1.242  11.974 -1.3377  0.5856 -0.2797
 1116TIP3    H224764   6.659   1.301  12.056  0.3770 -1.0356 -1.4336
 1117TIP3   OH224765   6.126   6.468  13.223 -0.5317 -0.2519  0.1404
 1117TIP3    H124766   6.179   6.491  13.147  1.0864 -2.4063  0.5682
 1117TIP3    H224767   6.168   6.512  13.296  0.2787 -1.3862  0.3703
 1118TIP3   OH224768   7.203   1.395  12.019 -0.2548 -0.0739  0.2898
 1118TIP3    H124769   7.242   1.309  12.002  1.3425  0.1480  2.6058
 1118TIP3    H224770   7.130   1.401  11.957  2.0882 -1.3886 -2.7085
 1119TIP3   OH224771   3.983   7.281  11.464 -0.4733  0.0034 -0.3963
 1119TIP3    H124772   4.078   7.274  11.453 -0.7268  0.6996 -3.5379
 1119TIP3    H224773   3.957   7.198  11.504  1.4754 -0.0477  0.8267
 1120TIP3   OH224774   0.823   4.235  10.468  0.3730 -0.5170 -0.0221
 1120TIP3    H124775   0.798   4.205  10.381  1.2757 -1.4172  0.0282
 1120TIP3    H224776   0.916   4.215  10.476  0.2665 -0.6104  1.2152
 1121TIP3   OH224777   0.559   3.086  11.012  0.1839  0.9060 -0.4835
 1121TIP3    H124778   0.515   3.111  11.094  1.0049 -3.9320  1.6027
 1121TIP3    H224779   0.495   3.034  10.965  1.4342 -0.6557 -0.4895
 1122TIP3   OH224780   6.286   5.390  12.543  0.3870 -0.6224 -0.0334
 1122TIP3    H124781   6.339   5.437  12.607 -0.0171  0.6100 -0.5847
 1122TIP3    H224782   6.230   5.457  12.505 -1.6006 -1.9181  0.5550
 1123TIP3   OH224783   6.887   4.601   9.968  0.1112 -0.1208 -0.4815
 1123TIP3    H124784   6.850   4.620   9.882  0.9942  1.6509 -0.5046
 1123TIP3    H224785   6.975   4.567   9.949 -0.3025 -1.2960 -0.3254
 1124TIP3   OH224786   6.954   3.983  15.712 -0.0768  0.0342  0.1671
 1124TIP3    H124787   6.959   3.888  15.698 -1.2897  0.1035 -0.8367
 1124TIP3    H224788   6.863   4.005  15.694  0.2056  1.4096  0.3624
 1125TIP3   OH224789   7.299   1.679  13.967 -0.6493  1.0343  0.2147
 1125TIP3    H124790   7.389   1.647  13.956 -0.1273  3.0001 -1.5085
 1125TIP3    H224791   7.284   1.736  13.891 -3.3353  0.7987  0.5120
 1126TIP3   OH224792   1.562   2.191  12.009  0.2109  0.3680  0.0548
 1126TIP3    H124793   1.483   2.194  11.955 -0.8370 -0.0912  1.5395
 1126TIP3    H224794   1.589   2.100  12.007  0.0517  0.3105  0.4708
 1127TIP3   OH224795   6.803   2.425  10.225 -0.2086 -0.0575  0.2876
 1127TIP3    H124796   6.814   2.399  10.134  2.3090 -1.0130  0.8236
 1127TIP3    H224797   6.855   2.505  10.234  0.1816 -0.3885  1.0569
 1128TIP3   OH224798   0.165   3.480  12.622 -0.0750  0.2748 -0.0739
 1128TIP3    H124799   0.071   3.466  12.637 -0.1143 -0.0138 -0.5688
 1128TIP3    H224800   0.206   3.397  12.646 -0.1229 -0.1473 -1.3714
 1129TIP3   OH224801   0.828   1.446  11.741  0.8546 -0.3328 -0.0773
 1129TIP3    H124802   0.917   1.468  11.715  1.3011 -1.8921  0.1069
 1129TIP3    H224803   0.795   1.525  11.784  2.1591  0.2204 -0.0803
 1130TIP3   OH224804   5.712   2.715  10.140  0.0628  0.5511  0.3450
 1130TIP3    H124805   5.779   2.671  10.088 -0.0879  0.0356  0.5834
 1130TIP3    H224806   5.666   2.772  10.078 -0.0238  0.0452 -0.0574
 1131TIP3   OH224807   0.014   0.757  12.535  0.1539 -0.1181  0.4256
 1131TIP3    H124808   0.096   0.769  12.488 -1.2705  0.8491 -1.9252
 1131TIP3    H224809   0.023   0.673  12.579  2.0907 -0.3958 -0.4514
 1132TIP3   OH224810   2.570   0.684  11.562 -0.3490  0.1128 -0.0601
 1132TIP3    H124811   2.658   0.702  11.528 -0.6384 -0.0617 -0.8960
 1132TIP3    H224812   2.586   0.653  11.652  0.3964  0.7575  0.0415
 1133TIP3   OH224813   6.832   2.524  13.615  0.0370 -0.3924  0.3932
 1133TIP3    H124814   6.847   2.611  13.651 -0.7745  0.7027 -1.8665
 1133TIP3    H224815   6.919   2.487  13.605  0.3117 -0.5961  3.0949
 1134TIP3   OH224816   4.147   3.527  11.357  0.4000 -0.3269  0.3350
 1134TIP3    H124817   4.222   3.467  11.356 -0.0561 -0.8850 -0.2435
 1134TIP3    H224818   4.183   3.611  11.327  0.5384 -0.8901 -1.0967
 1135TIP3   OH224819   3.686   2.563  14.255  0.0916  0.1456  0.3265
 1135TIP3    H124820   3.735   2.594  14.331  1.7386 -0.7019 -0.3578
 1135TIP3    H224821   3.645   2.642  14.219 -0.0659  0.6670  1.6289
 1136TIP3   OH224822   0.253   4.192  10.311 -0.5204  0.1099 -0.4161
 1136TIP3    H124823   0.196   4.268  10.326 -1.7809 -1.1762  1.4736
 1136TIP3    H224824   0.342   4.228  10.316 -1.0965  1.4466  0.5791
 1137TIP3   OH224825   2.279   3.017  10.487  0.5226 -0.5780  0.5228
 1137TIP3    H124826   2.335   3.091  10.464 -0.0348 -0.7748 -1.5570
 1137TIP3    H224827   2.198   3.031  10.437 -0.8038 -0.9547  2.5167
 1138TIP3   OH224828   0.756   2.991  11.552  0.2242  0.0865  0.0971
 1138TIP3    H124829   0.715   2.916  11.508 -1.5953  0.0275  1.8200
 1138TIP3    H224830   0.819   2.952  11.612  0.5766  0.0280 -0.3092
 1139TIP3   OH224831   5.190   0.205  12.896 -0.2981  0.0906  0.5877
 1139TIP3    H124832   5.118   0.168  12.947 -0.9422 -0.2398 -0.5380
 1139TIP3    H224833   5.154   0.285  12.858  0.4539  0.8046  1.3514
 1140TIP3   OH224834   7.070   0.398  11.846 -0.1402  0.1859  0.5998
 1140TIP3    H124835   7.094   0.317  11.893 -1.5072 -1.8049 -2.0309
 1140TIP3    H224836   6.988   0.426  11.886 -1.3568 -1.5671 -0.5957
 1141TIP3   OH224837   0.671   3.004  12.027  0.7667 -0.2187 -0.0589
 1141TIP3    H124838   0.662   2.912  12.054  2.1725 -0.4230 -0.2223
 1141TIP3    H224839   0.651   3.054  12.106 -0.7249 -0.6459 -0.1613
 1142TIP3   OH224840   1.279   3.658   9.915  0.2280 -0.0288  0.3497
 1142TIP3    H124841   1.326   3.576   9.898 -1.1016 -0.9152  0.8541
 1142TIP3    H224842   1.306   3.683  10.003 -0.5746 -0.7944  0.8301
 1143TIP3   OH224843   3.823   1.780  10.459 -0.2986 -0.6360 -0.2349
 1143TIP3    H124844   3.830   1.755  10.367 -0.4144 -1.0395 -0.1318
 1143TIP3    H224845   3.755   1.848  10.460 -0.7365 -1.0734 -0.3596
 1144TIP3   OH224846   0.379   2.838  10.939  0.4408 -0.6421  0.1232
 1144TIP3    H124847   0.287   2.856  10.921  1.0205  1.6798 -0.7343
 1144TIP3    H224848   0.407   2.784  10.865 -0.1187 -0.9435  0.1288
 1145TIP3   OH224849   0.516   1.537  10.141  0.1006  0.3328  0.2594
 1145TIP3    H124850   0.544   1.456  10.098  1.9758  0.8750  0.4123
 1145TIP3    H224851   0.420   1.530  10.147  0.0729 -0.9378 -1.5583
 1146TIP3   OH224852   6.307   2.834  13.153 -0.3547  0.5904  0.0863
 1146TIP3    H124853   6.388   2.859  13.197 -1.3753  2.3921  1.0643
 1146TIP3    H224854   6.283   2.750  13.191  0.7923  0.3110  0.1781
 1147TIP3   OH224855   0.673   6.778  11.667 -0.0159 -0.1237 -0.5872
 1147TIP3    H124856   0.620   6.850  11.700  0.2029 -0.3542  0.2870
 1147TIP3    H224857   0.630   6.699  11.701 -0.2014 -0.4063 -1.4612
 1148TIP3   OH224858   6.579   1.373  13.057 -0.2940 -0.0651  0.2485
 1148TIP3    H124859   6.590   1.467  13.041  0.0387 -0.3734 -1.3664
 1148TIP3    H224860   6.656   1.332  13.017 -0.5274 -1.0535  0.7862
 1149TIP3   OH224861   1.637   0.344  12.610  0.4650 -0.0059  0.3719
 1149TIP3    H124862   1.730   0.350  12.632  0.2937 -0.9584  1.3828
 1149TIP3    H224863   1.597   0.420  12.653  0.9103  0.8811 -0.7803
 1150TIP3   OH224864   1.999   7.087  11.454  0.4915  0.2763  0.0145
 1150TIP3    H124865   1.915   7.114  11.416 -0.5661 -0.3462  1.8566
 1150TIP3    H224866   2.047   7.170  11.466 -0.6188  0.8381  0.6903
 1151TIP3   OH224867   5.359   1.404  10.764  0.3915 -0.0394 -0.0910
 1151TIP3    H124868   5.426   1.357  10.715  1.7214  0.3203  1.3225
 1151TIP3    H224869   5.370   1.496  10.737 -0.0797 -0.0917 -0.4668
 1152TIP3   OH224870   6.918   2.059  13.054 -0.6680  0.2385  0.6101
 1152TIP3    H124871   6.989   2.095  13.108 -0.3412 -0.8730  0.9438
 1152TIP3    H224872   6.839   2.101  13.087 -0.1145  1.8603 -0.0969
 1153TIP3   OH224873   1.186   0.480  12.774  0.1641 -0.0502  0.5959
 1153TIP3    H124874   1.159   0.402  12.823  0.2279  0.8200  2.0467
 1153TIP3    H224875   1.280   0.470  12.761 -0.2163 -1.3888 -1.3913
 1154TIP3   OH224876   0.942   0.620  11.425 -0.4312  0.0672  0.4606
 1154TIP3    H124877   0.917   0.636  11.334  0.0783  1.2334  0.5177
 1154TIP3    H224878   1.028   0.662  11.435  0.8796 -2.5757  0.6856
 1155TIP3   OH224879   2.609   3.873  10.925 -0.8471  0.4335 -0.1139
 1155TIP3    H124880   2.693   3.879  10.880 -1.8747  0.3712 -2.1444
 1155TIP3    H224881   2.619   3.927  11.003  0.0478  3.1668 -2.0260
 1156TIP3   OH224882   1.514   6.812  10.594  0.0653  0.2735 -0.7284
 1156TIP3    H124883   1.557   6.897  10.608 -2.0724  1.4423 -1.1172
 1156TIP3    H224884   1.465   6.797  10.674  0.9945 -0.9645 -0.3742
 1157TIP3   OH224885   2.699   5.517  11.740 -0.6269 -0.3709 -0.3168
 1157TIP3    H124886   2.761   5.590  11.745 -1.1516  0.1294 -1.0640
 1157TIP3    H224887   2.675   5.499  11.831  1.1363 -1.0241  0.0334
 1158TIP3   OH224888   1.257   1.062  13.606 -0.8455  0.4118 -0.5822
 1158TIP3    H124889   1.350   1.055  13.628 -0.6567  0.7000 -1.2813
 1158TIP3    H224890   1.252   1.030  13.516 -1.1358  2.1333 -1.1943
 1159TIP3   OH224891   6.839   4.400  10.476 -0.5029  0.2454 -0.6506
 1159TIP3    H124892   6.802   4.373  10.393 -1.0308 -0.7427 -0.1033
 1159TIP3    H224893   6.888   4.324  10.507  2.7655  1.7862 -1.7728
 1160TIP3   OH224894   6.949   2.335  11.860  0.2612  0.2554  0.5971
 1160TIP3    H124895   6.921   2.267  11.922  0.6119  1.2673  1.8822
 1160TIP3    H224896   6.870   2.387  11.845  0.1717 -0.0018  0.1656
 1161TIP3   OH224897   1.051   1.160  12.264 -0.0043  0.2056 -0.4984
 1161TIP3    H124898   1.027   1.089  12.323 -0.3514 -0.4137 -1.3842
 1161TIP3    H224899   1.066   1.235  12.322  0.8640 -0.7125  0.4826
 1162TIP3   OH224900   2.855   1.752  10.580  0.1782  0.2550  0.0162
 1162TIP3    H124901   2.867   1.761  10.486 -0.7847 -0.1631 -0.1553
 1162TIP3    H224902   2.931   1.795  10.619 -0.6384  2.5955 -0.8823
 1163TIP3   OH224903   6.937   2.919  11.966 -0.9111 -0.2529  0.8579
 1163TIP3    H124904   6.846   2.947  11.966 -0.5942  0.8207  1.3100
 1163TIP3    H224905   6.982   2.980  11.908 -1.3011 -3.7622 -3.3885
 1164TIP3   OH224906   7.230   2.431  11.894  0.2007  0.1564  0.2226
 1164TIP3    H124907   7.169   2.407  11.824  0.2490 -0.7163  0.4644
 1164TIP3    H224908   7.246   2.524  11.882 -1.4493  0.4667  0.3602
 1165TIP3   OH224909   1.184   4.828  11.735 -0.0419 -0.9225 -0.2435
 1165TIP3    H124910   1.251   4.761  11.719 -0.5293 -1.6780  0.8490
 1165TIP3    H224911   1.109   4.800  11.682  0.4252 -0.1637 -1.3396
 1166TIP3   OH224912   4.362   2.100  10.952 -0.1638 -0.2206  0.1368
 1166TIP3    H124913   4.330   2.107  11.042 -1.0832  0.0034 -0.2080
 1166TIP3    H224914   4.362   2.006  10.934 -0.5881 -0.2261  0.1556
 1167TIP3   OH224915   0.592   2.290  11.758  0.2731 -0.3603  0.2108
 1167TIP3    H124916   0.658   2.257  11.697 -0.1972 -1.5493  0.3487
 1167TIP3    H224917   0.509   2.280  11.711  0.1139  0.6172  0.2588
 1168TIP3   OH224918   0.096   3.771  11.278 -0.3992 -0.6552 -0.0984
 1168TIP3    H124919   0.068   3.721  11.200  3.2628  1.5901 -3.0236
 1168TIP3    H224920   0.050   3.854  11.271  0.5314 -0.1502 -0.3317
 1169TIP3   OH224921   6.768   4.376  10.052  0.2401 -0.5640  0.5563
 1169TIP3    H124922   6.811   4.292  10.033  0.2160 -0.4258 -0.1179
 1169TIP3    H224923   6.827   4.441  10.014 -0.0992 -0.3172  0.4596
 1170TIP3   OH224924   4.573   2.196  10.778  0.3271  0.1124 -0.0791
 1170TIP3    H124925   4.627   2.275  10.778  0.2316  0.2023 -1.4725
 1170TIP3    H224926   4.584   2.158  10.865  0.9482  1.2700  0.3561
 1171TIP3   OH224927   0.396   5.955  11.901  0.1423 -0.1643  0.0825
 1171TIP3    H124928   0.452   6.031  11.919  0.9054 -0.6341 -0.2889
 1171TIP3    H224929   0.350   5.940  11.984 -1.8431  2.1677 -0.5108
 1172TIP3   OH224930   3.463   0.651  10.386 -0.4330 -0.4344  0.0260
 1172TIP3    H124931   3.530   0.647  10.318 -1.9162 -0.3826 -1.4521
 1172TIP3    H224932   3.395   0.589  10.357 -0.9185 -0.6825  1.6325
 1173TIP3   OH224933   7.075   1.038  10.450 -0.0379  0.2514  0.1453
 1173TIP3    H124934   7.092   0.946  10.433 -1.6865  0.1376 -1.0833
 1173TIP3    H224935   6.982   1.041  10.475  0.0724  1.5309  0.4649
 1174TIP3   OH224936   3.588   3.687  11.115 -0.0939  0.1162 -0.2539
 1174TIP3    H124937   3.567   3.594  11.126 -0.4987  0.1098 -1.0052
 1174TIP3    H224938   3.676   3.696  11.149 -0.1022 -0.5240 -0.0571
 1175TIP3   OH224939   0.442   1.601   0.503  0.5685  0.1829  0.1838
 1175TIP3    H124940   0.390   1.641   0.573  0.8334  0.4210  0.2493
 1175TIP3    H224941   0.423   1.507   0.510 -0.4053  0.3457 -0.2655
 1176TIP3   OH224942   2.263   2.531  12.159 -1.0825  0.6982  0.0410
 1176TIP3    H124943   2.280   2.602  12.221  0.7159 -1.5847  2.2604
 1176TIP3    H224944   2.192   2.481  12.199  0.0100 -0.7216  0.2388
 1177TIP3   OH224945   0.982   2.612  10.651  0.6539  0.0711 -0.0094
 1177TIP3    H124946   1.002   2.703  10.630  1.0460  0.4554  1.9370
 1177TIP3    H224947   0.925   2.618  10.728 -0.4954 -1.2927 -0.7272
 1178TIP3   OH224948   2.190   1.483  10.406 -0.5798  0.6196  0.5342
 1178TIP3    H124949   2.122   1.420  10.428 -0.9908  0.4868 -1.0433
 1178TIP3    H224950   2.164   1.518  10.321  0.5537  1.6567  0.5921
 1179TIP3   OH224951   6.655   4.687  11.370  0.4585 -0.5428 -0.0872
 1179TIP3    H124952   6.626   4.638  11.447 -0.1149  1.4453  0.9860
 1179TIP3    H224953   6.647   4.625  11.298  1.1584 -2.4887  1.4761
 1180TIP3   OH224954   2.621   3.435  11.045 -0.3675 -0.0901  0.2772
 1180TIP3    H124955   2.575   3.518  11.041 -1.2192 -0.5658  0.0357
 1180TIP3    H224956   2.683   3.444  11.118  1.8271  1.8985 -1.7636
 1181TIP3   OH224957   1.233   6.897  11.753  0.3832  0.3815  0.4444
 1181TIP3    H124958   1.144   6.891  11.720  1.1430  2.5479 -2.1630
 1181TIP3    H224959   1.225   6.946  11.835 -0.7648  1.2238 -0.1518
 1182TIP3   OH224960   6.845   1.521  10.329 -0.0459 -0.1433  0.4583
 1182TIP3    H124961   6.830   1.610  10.360  1.6239  0.2918  0.0912
 1182TIP3    H224962   6.849   1.529  10.234 -0.1481 -0.6445  0.4093
 1183TIP3   OH224963   0.193   2.849  10.650 -0.2850  0.0184  0.1290
 1183TIP3    H124964   0.104   2.829  10.678 -0.4509  0.0324 -0.3805
 1183TIP3    H224965   0.216   2.928  10.699  0.2225 -1.1638  1.8406
 1184TIP3   OH224966   1.086   1.097  10.543 -0.6132 -0.1116  0.0981
 1184TIP3    H124967   1.027   1.165  10.510  0.0445 -0.2089 -1.3109
 1184TIP3    H224968   1.029   1.022  10.559 -1.4048  0.8727  2.0147
 1185TIP3   OH224969   3.143   4.531  12.786 -0.3954  0.0181 -0.0230
 1185TIP3    H124970   3.097   4.450  12.765  1.3763 -1.0560  0.2339
 1185TIP3    H224971   3.127   4.588  12.710 -1.6220 -0.5552 -0.2097
 1186TIP3   OH224972   1.246   0.246  11.049 -0.0819 -0.1821  0.2409
 1186TIP3    H124973   1.176   0.304  11.078  0.4607  0.5943  0.0158
 1186TIP3    H224974   1.303   0.236  11.125 -0.2878 -0.5918  0.3415
 1187TIP3   OH224975   6.980   2.860   9.964 -0.5154 -0.1825  0.3333
 1187TIP3    H124976   6.991   2.930   9.900 -0.2895 -0.7240 -0.2165
 1187TIP3    H224977   7.068   2.827   9.980 -0.3422  1.1445  2.2681
 1188TIP3   OH224978   1.464   2.083  11.637  0.0358 -0.0425 -0.4074
 1188TIP3    H124979   1.413   2.012  11.599 -1.2113  0.7510 -0.2533
 1188TIP3    H224980   1.411   2.114  11.711  2.1285 -1.1575  1.6198
 1189TIP3   OH224981   5.438   3.401  11.720 -0.4172  0.3470  0.5999
 1189TIP3    H124982   5.437   3.496  11.727  0.0460  0.5025 -1.1295
 1189TIP3    H224983   5.530   3.378  11.710 -0.6235 -0.1521 -0.2931
 1190TIP3   OH224984   6.999   2.090  10.582 -0.8478 -0.2159  0.2109
 1190TIP3    H124985   6.954   2.050  10.509 -0.1843 -1.9719  0.7358
 1190TIP3    H224986   7.026   2.016  10.637  3.0464  0.6929 -0.3269
 1191TIP3   OH224987   6.388   6.221  12.120  0.1161 -0.3497  0.2347
 1191TIP3    H124988   6.483   6.224  12.117  0.0958 -0.5060 -0.9553
 1191TIP3    H224989   6.364   6.170  12.042 -0.8698 -1.6393  1.3541
 1192TIP3   OH224990   2.672   1.832  10.776  0.5856  0.6275 -0.2950
 1192TIP3    H124991   2.719   1.777  10.713 -0.5924  0.6196 -1.1844
 1192TIP3    H224992   2.580   1.826  10.749  0.0700  0.6762  1.3867
 1193TIP3   OH224993   0.467   1.849  10.149  0.5612  0.1221  0.3184
 1193TIP3    H124994   0.469   1.767  10.101  0.9533  0.0093  0.5227
 1193TIP3    H224995   0.478   1.917  10.082 -0.9305  0.0700  0.0131
 1194TIP3   OH224996   2.053   5.083  14.233  0.2808 -0.0403  0.3746
 1194TIP3    H124997   2.114   5.053  14.300  1.3360 -1.9285 -1.3751
 1194TIP3    H224998   2.090   5.165  14.202  1.9393 -1.1195 -0.5980
 1195TIP3   OH224999   5.968   3.360  10.368  0.3434  0.0019  0.3864
 1195TIP3    H125000   6.006   3.383  10.283 -0.6692  0.7264  0.1085
 1195TIP3    H225001   6.034   3.306  10.410 -0.1897 -2.5769 -1.9409
 1196TIP3   OH225002   5.644   0.131  11.928 -0.3293 -0.5652  0.0105
 1196TIP3    H125003   5.699   0.175  11.863  0.0916  0.8905  1.3069
 1196TIP3    H225004   5.706   0.082  11.982 -0.3588  0.4457  0.9865
 1197TIP3   OH225005   2.374   2.641  11.259 -0.4222 -0.0100  0.5690
 1197TIP3    H125006   2.362   2.681  11.344  1.8480  0.0393  0.9086
 1197TIP3    H225007   2.286   2.616  11.231 -1.2246  0.2372  2.7804
 1198TIP3   OH225008   6.890   1.910  10.020  0.2890  0.2044 -0.8718
 1198TIP3    H125009   6.950   1.980  10.043  0.6430 -1.2309  2.9147
 1198TIP3    H225010   6.819   1.954   9.973  0.8542  3.0093  0.7553
 1199TIP3   OH225011   6.952   5.915  10.684  0.4746 -0.5834 -0.2695
 1199TIP3    H125012   6.885   5.973  10.649 -1.1595 -1.1164  1.9251
 1199TIP3    H225013   6.906   5.832  10.700  1.1748 -0.4016  3.0016
 1200TIP3   OH225014   0.104   2.433  12.166  0.1080  0.0636 -0.0343
 1200TIP3    H125015   0.048   2.447  12.089 -1.5875 -1.8913  0.7948
 1200TIP3    H225016   0.164   2.363  12.139  2.9822  2.8676 -1.2886
 1201TIP3   OH225017   6.757   1.900  11.592  0.4675  0.2257  0.2570
 1201TIP3    H125018   6.838   1.865  11.553  2.4152  2.3564  2.2556
 1201TIP3    H225019   6.723   1.959  11.525  1.1403  0.1325 -0.1816
 1202TIP3   OH225020   5.958   4.561  13.259  0.3807  0.4539 -0.1532
 1202TIP3    H125021   5.865   4.556  13.238  0.4979  0.3068 -0.6374
 1202TIP3    H225022   5.977   4.655  13.260  0.8231  0.4206 -2.7281
 1203TIP3   OH225023   2.742   0.675  10.456  0.0651 -0.2712  0.3202
 1203TIP3    H125024   2.729   0.721  10.373 -1.3064 -1.9343 -0.4099
 1203TIP3    H225025   2.759   0.745  10.519 -1.5604  1.2214 -0.8351
 1204TIP3   OH225026   2.274   5.443  10.307 -0.1799  0.1421 -0.6453
 1204TIP3    H125027   2.208   5.444  10.238 -0.6736  0.2584 -0.1738
 1204TIP3    H225028   2.306   5.533  10.311 -2.0608  0.7392  1.1029
 1205TIP3   OH225029   1.446   1.167  10.577  0.1148 -0.0236  0.9639
 1205TIP3    H125030   1.447   1.230  10.650 -1.3586  1.3209 -0.1418
 1205TIP3    H225031   1.393   1.094  10.609  0.0915  0.2259  1.4991
 1206TIP3   OH225032   6.981   6.406  10.003 -0.6777  0.1377 -0.0113
 1206TIP3    H125033   7.034   6.442   9.933  0.3858 -1.0812  0.1529
 1206TIP3    H225034   6.943   6.326   9.966  0.0133 -0.5949  0.8286
 1207TIP3   OH225035   5.276   1.826  11.981 -0.0193 -0.2135  0.7836
 1207TIP3    H125036   5.245   1.906  12.023  3.0908  0.2500  2.3680
 1207TIP3    H225037   5.315   1.855  11.899 -1.4772 -0.4834 -0.0153
 1208TIP3   OH225038   1.109   1.308  10.762  0.1245  0.2230 -0.7101
 1208TIP3    H125039   1.204   1.313  10.775  0.1302  2.7799 -1.4227
 1208TIP3    H225040   1.097   1.236  10.701  1.8208  1.2485 -2.3102
 1209TIP3   OH225041   4.904   3.540  12.875  0.1016 -0.0004  0.0306
 1209TIP3    H125042   4.966   3.470  12.893 -1.1687 -0.7051  1.7882
 1209TIP3    H225043   4.820   3.507  12.907 -0.6203  2.0714  0.3623
 1210TIP3   OH225044   6.670   4.187  10.665  0.3934 -0.3464 -0.2094
 1210TIP3    H125045   6.713   4.101  10.666  0.2385 -0.4247 -0.2433
 1210TIP3    H225046   6.602   4.179  10.598  0.0173 -0.3721  0.1738
 1211TIP3   OH225047   1.867   1.628  10.448 -0.0324 -0.1477  0.5715
 1211TIP3    H125048   1.841   1.626  10.355  0.1727 -0.9852  0.5311
 1211TIP3    H225049   1.910   1.713  10.458  0.4463 -0.2841 -0.2394
 1212TIP3   OH225050   1.941   0.252  12.774 -0.3220 -0.5737  0.4765
 1212TIP3    H125051   1.886   0.209  12.839  1.5896 -0.1276  2.4479
 1212TIP3    H225052   1.921   0.345  12.783  1.1175 -0.3556  1.5875
 1213TIP3   OH225053   3.038   2.456  12.204  0.3756  0.3197  0.0208
 1213TIP3    H125054   3.132   2.469  12.193  0.4486  0.0422  0.3089
 1213TIP3    H225055   3.004   2.448  12.114  0.5227  1.1204 -0.1083
 1214TIP3   OH225056   1.101   2.086  12.887 -0.0973 -0.3857  0.0640
 1214TIP3    H125057   1.139   2.027  12.822 -0.2492 -1.2325  0.7343
 1214TIP3    H225058   1.021   2.119  12.845  0.3078 -0.1816 -0.5486
 1215TIP3   OH225059   6.988   0.738  11.833 -0.2006  0.0645  0.2025
 1215TIP3    H125060   6.894   0.720  11.837 -0.1051 -0.5763 -0.2409
 1215TIP3    H225061   7.024   0.695  11.911  0.1156 -2.3106 -1.2099
 1216TIP3   OH225062   6.767   1.420  10.982 -0.0333  0.0536 -0.8113
 1216TIP3    H125063   6.731   1.331  10.992  0.6119 -0.1713 -0.5144
 1216TIP3    H225064   6.802   1.421  10.893  2.7208 -0.9951  0.2016
 1217TIP3   OH225065   2.294   7.302  13.248  0.9476  0.1941 -0.6017
 1217TIP3    H125066   2.220   7.332  13.302  2.1135  2.0759 -0.0073
 1217TIP3    H225067   2.349   7.379  13.238  1.4231 -0.4673 -3.4448
 1218TIP3   OH225068   2.997   7.228  12.436 -0.0424 -0.2848  0.3194
 1218TIP3    H125069   3.059   7.291  12.471  0.3855  0.1423 -1.1735
 1218TIP3    H225070   2.975   7.171  12.510  2.7115 -0.9010  0.7000
 1219TIP3   OH225071   1.710   3.061  11.435  0.5123 -0.1974 -0.0857
 1219TIP3    H125072   1.633   3.006  11.451  1.0253 -1.3534 -1.5611
 1219TIP3    H225073   1.719   3.112  11.516 -1.6905 -0.1730  0.1965
 1220TIP3   OH225074   2.549   1.826  11.267  0.7779  0.2948  0.1094
 1220TIP3    H125075   2.539   1.743  11.221 -1.9584  2.2200 -3.0501
 1220TIP3    H225076   2.534   1.806  11.359 -1.8927 -2.3553 -0.8535
 1221TIP3   OH225077   7.089   6.304  12.422  1.1342 -0.0719 -0.6030
 1221TIP3    H125078   7.083   6.386  12.373  2.1514 -0.0099 -0.6300
 1221TIP3    H225079   7.026   6.246  12.379  1.2490  0.3264 -1.3134
 1222TIP3   OH225080   0.033   3.077  11.705  0.3461  0.0510  0.1456
 1222TIP3    H125081   0.128   3.074  11.696  0.6333  0.7484  2.5151
 1222TIP3    H225082   0.012   3.002  11.761 -0.3568  0.6508  0.6842
 1223TIP3   OH225083   2.120   1.634   9.851 -0.0794  0.2280  0.6935
 1223TIP3    H125084   2.050   1.569   9.844  0.7101 -0.5731  0.1355
 1223TIP3    H225085   2.076   1.714   9.880 -1.3528 -0.0502 -0.4363
 1224TIP3   OH225086   2.089   0.224  11.771  0.1201  0.1729 -0.3088
 1224TIP3    H125087   2.179   0.250  11.755 -0.1514  1.3560  0.0809
 1224TIP3    H225088   2.092   0.177  11.855  0.3797  0.1192 -0.3495
 1225TIP3   OH225089   1.737   3.947  10.670 -0.1359 -0.0011  0.4739
 1225TIP3    H125090   1.689   3.867  10.692 -0.0159 -0.2839 -0.2814
 1225TIP3    H225091   1.819   3.916  10.633 -0.3714  0.4654 -0.4438
 1226TIP3   OH225092   0.647   1.033  12.235 -0.1175 -0.2735  0.0938
 1226TIP3    H125093   0.679   1.121  12.219  2.5862 -0.8787  1.7900
 1226TIP3    H225094   0.552   1.040  12.227 -0.1221  3.2361  2.2736
 1227TIP3   OH225095   3.280   0.837  10.989 -0.4444 -0.6725 -0.0668
 1227TIP3    H125096   3.242   0.753  11.013 -0.9723 -0.4749 -0.1907
 1227TIP3    H225097   3.352   0.816  10.930 -1.2222 -0.9923 -0.9222
 1228TIP3   OH225098   2.542   6.225  11.785  0.2872 -0.7000  0.1968
 1228TIP3    H125099   2.606   6.235  11.855 -1.6709 -1.5707  2.1893
 1228TIP3    H225100   2.512   6.314  11.767  0.5368 -0.5046  0.7407
 1229TIP3   OH225101   2.115   3.267  13.421  0.1407 -0.0084 -0.1098
 1229TIP3    H125102   2.025   3.265  13.452  0.5854 -0.1116  1.1990
 1229TIP3    H225103   2.142   3.359  13.433 -0.0733  0.2304 -1.3539
 1230TIP3   OH225104   7.030   0.199  13.360 -0.0609  0.0725  0.0734
 1230TIP3    H125105   7.082   0.122  13.382 -2.1120 -1.1711  0.7562
 1230TIP3    H225106   7.004   0.185  13.268  2.2519  1.5806 -0.8572
 1231TIP3   OH225107   1.824   3.085  10.165 -0.0156  0.1128  0.4868
 1231TIP3    H125108   1.791   2.999  10.139 -0.4436  0.3288  0.3009
 1231TIP3    H225109   1.745   3.135  10.187  0.2701  0.2742  1.1631
 1232TIP3   OH225110   0.353   5.271  11.116 -0.1306 -0.4540  0.0355
 1232TIP3    H125111   0.298   5.196  11.092 -1.5548  0.9091 -1.0519
 1232TIP3    H225112   0.380   5.309  11.032  1.0585 -0.0897  0.5720
 1233TIP3   OH225113   6.744   1.803  10.386 -0.1535  0.0776  0.3996
 1233TIP3    H125114   6.670   1.780  10.329 -0.9665  0.9245  1.0965
 1233TIP3    H225115   6.754   1.898  10.375  0.8030 -0.0219  0.3519
 1234TIP3   OH225116   0.883   5.059  10.319 -0.5697 -0.0830  0.0922
 1234TIP3    H125117   0.939   5.100  10.254  1.5820 -1.5852  0.9430
 1234TIP3    H225118   0.922   4.973  10.334 -1.5426 -0.1305  2.6670
 1235TIP3   OH225119   6.893   0.741  10.270  0.3959 -0.2936 -0.3666
 1235TIP3    H125120   6.843   0.662  10.288 -0.1173 -0.0919 -0.9187
 1235TIP3    H225121   6.898   0.745  10.175  0.3894  0.3589 -0.3394
 1236TIP3   OH225122   0.923   2.988  10.013  0.2387  0.2166  0.4709
 1236TIP3    H125123   0.966   3.047   9.950 -0.0686 -0.6535 -0.5741
 1236TIP3    H225124   0.856   3.043  10.054  0.1510  0.6853 -0.2769
 1237TIP3   OH225125   3.154   2.013  10.403 -0.5198 -0.0016  0.2257
 1237TIP3    H125126   3.113   1.987  10.320  0.8811  0.5514 -0.6619
 1237TIP3    H225127   3.159   1.933  10.454 -1.6027 -0.3061 -0.1304
 1238TIP3   OH225128   0.558   0.577   9.955 -0.1147  0.9111  0.1107
 1238TIP3    H125129   0.483   0.539  10.001  0.2118  0.0096 -0.0941
 1238TIP3    H225130   0.555   0.671   9.977 -0.7629  0.7198  0.8430
 1239TIP3   OH225131   7.239   2.225  11.188 -0.5312  0.1388 -0.0237
 1239TIP3    H125132   7.260   2.180  11.106  1.0434  2.9233 -1.2006
 1239TIP3    H225133   7.163   2.279  11.167 -1.2320 -0.5014  0.8497
 1240TIP3   OH225134   2.787   3.822  11.709 -0.1291  0.3318 -0.0692
 1240TIP3    H125135   2.781   3.779  11.624  0.1567 -0.3292  0.2346
 1240TIP3    H225136   2.727   3.773  11.765  1.0084 -0.3853  0.5597
 1241TIP3   OH225137   3.454   1.644  10.626  0.0012 -0.4210  0.0400
 1241TIP3    H125138   3.417   1.692  10.552  0.1632  0.1711  0.3387
 1241TIP3    H225139   3.481   1.560  10.589 -0.3909 -0.3313 -0.4634
 1242TIP3   OH225140   0.816   5.376  11.553 -0.2568 -0.1467 -0.3504
 1242TIP3    H125141   0.870   5.303  11.524  1.5093  0.7277  0.6387
 1242TIP3    H225142   0.878   5.441  11.587 -1.8755  1.1811  0.1997
 1243TIP3   OH225143   3.022   2.653  10.461 -0.2270  0.1473  0.3799
 1243TIP3    H125144   3.112   2.648  10.430 -0.6194  0.9886 -0.9443
 1243TIP3    H225145   3.017   2.590  10.533  0.3051 -2.9692 -2.2345
 1244TIP3   OH225146   1.797   0.331  11.438 -0.1308 -0.0630 -0.1352
 1244TIP3    H125147   1.795   0.320  11.533 -3.0447 -1.5307 -0.3192
 1244TIP3    H225148   1.710   0.364  11.415  0.9461  1.4838 -2.1714
 1245TIP3   OH225149   2.730   0.625  12.851  0.0716 -0.1707 -0.1554
 1245TIP3    H125150   2.683   0.621  12.935  1.4219 -0.9188  0.5753
 1245TIP3    H225151   2.756   0.716  12.842  0.2799 -0.1724  0.4301
 1246TIP3   OH225152   0.539   0.240  11.539  0.1325 -0.0105  0.3921
 1246TIP3    H125153   0.481   0.306  11.500  0.1794  0.3538  0.9363
 1246TIP3    H225154   0.517   0.159  11.494  0.2648  0.4336 -0.4755
 1247TIP3   OH225155   0.510   3.927  11.692  0.0466 -0.0437  0.2424
 1247TIP3    H125156   0.559   3.907  11.772  0.5540 -0.9451 -0.2811
 1247TIP3    H225157   0.481   3.842  11.660 -1.0550  0.4096  0.0311
 1248TIP3   OH225158   0.683   5.184  12.703  0.2077  0.2911  0.4591
 1248TIP3    H125159   0.776   5.171  12.723  0.1841  0.8310  0.9335
 1248TIP3    H225160   0.653   5.098  12.673  0.7625  0.0071  0.7022
 1249TIP3   OH225161   0.409   0.973  11.147 -0.4119  0.5248  0.0368
 1249TIP3    H125162   0.414   0.917  11.069  1.7550  1.3106 -0.4407
 1249TIP3    H225163   0.439   1.059  11.116  1.4371  0.6024  1.9169
 1250TIP3   OH225164   2.773   0.776  13.270 -0.7452  1.0064  0.4963
 1250TIP3    H125165   2.757   0.702  13.329 -2.7425 -0.2891 -1.5539
 1250TIP3    H225166   2.832   0.833  13.318 -0.8122 -0.9186  2.9756
 1251TIP3   OH225167   6.301   1.961  10.804 -0.3281 -0.1710  0.5450
 1251TIP3    H125168   6.227   1.945  10.745  0.3139 -0.2711 -0.2356
 1251TIP3    H225169   6.343   2.039  10.768  1.3306 -1.4743 -0.3838
 1252TIP3   OH225170   0.895   2.935  10.543  0.0843 -0.0017  0.1294
 1252TIP3    H125171   0.913   3.017  10.590 -0.9635  1.1091 -1.3795
 1252TIP3    H225172   0.801   2.921  10.553  0.0485 -0.3658 -0.6677
 1253TIP3   OH225173   0.235   1.928  10.497  0.3239 -0.4161 -0.1011
 1253TIP3    H125174   0.309   1.883  10.456  2.6135  0.8059  2.5244
 1253TIP3    H225175   0.249   2.021  10.477 -0.0983 -0.1055  1.0148
 1254TIP3   OH225176   1.419   0.652  11.265  0.1498 -0.6134 -0.0233
 1254TIP3    H125177   1.497   0.645  11.210 -0.2451  2.1062 -1.0065
 1254TIP3    H225178   1.351   0.687  11.207 -0.7292  0.7318  1.7558
 1255TIP3   OH225179   0.371   6.104  10.763  0.3013 -0.2077 -0.1290
 1255TIP3    H125180   0.422   6.023  10.767 -1.1866 -1.1357  0.4844
 1255TIP3    H225181   0.281   6.075  10.750 -0.3586  1.3146  0.8759
 1256TIP3   OH225182   3.685   2.591  10.589 -0.2097  0.1024  0.4189
 1256TIP3    H125183   3.649   2.504  10.572 -1.7962  0.0103  3.9252
 1256TIP3    H225184   3.666   2.640  10.509  0.4138 -2.6418 -1.4740
 1257TIP3   OH225185   0.430   6.424  10.178  0.2738 -0.0359 -0.3634
 1257TIP3    H125186   0.345   6.380  10.166  0.5943 -1.1321  1.2864
 1257TIP3    H225187   0.413   6.491  10.243 -0.1469  2.1783 -2.6873
 1258TIP3   OH225188   5.916   2.898  14.263 -0.0109  0.2249 -0.3273
 1258TIP3    H125189   5.969   2.971  14.232  0.3510 -0.3090 -0.9812
 1258TIP3    H225190   5.951   2.822  14.217 -0.5437 -0.3201  0.1652
 1259TIP3   OH225191   2.494   3.674  11.094 -0.2317  0.0025 -0.4279
 1259TIP3    H125192   2.512   3.744  11.032  0.3681 -0.1428 -0.4201
 1259TIP3    H225193   2.502   3.716  11.180  0.1190 -0.0711 -0.4238
 1260TIP3   OH225194   6.575   2.356  10.367 -0.1702  0.5418  0.6043
 1260TIP3    H125195   6.648   2.372  10.306  0.2812 -2.1990  0.3399
 1260TIP3    H225196   6.610   2.378  10.453  2.0862 -3.5048  0.8811
 1261TIP3   OH225197   6.641   2.935  10.485 -0.0602  0.4714 -0.0018
 1261TIP3    H125198   6.663   2.930  10.578 -1.9163  0.8100  0.4786
 1261TIP3    H225199   6.717   2.899  10.441  1.3081  1.3314  1.5884
 1262TIP3   OH225200   4.012   5.869  11.900 -0.1776 -0.1814  0.5693
 1262TIP3    H125201   3.984   5.960  11.902  0.4137  0.0524 -1.2084
 1262TIP3    H225202   3.939   5.822  11.860  0.0711 -0.2734  0.2203
 1263TIP3   OH225203   4.079   2.693  11.584  0.2395  0.0977  0.6761
 1263TIP3    H125204   4.091   2.598  11.580  0.0472 -0.0084  2.3686
 1263TIP3    H225205   3.993   2.705  11.623 -0.1009  0.9664 -0.3292
 1264TIP3   OH225206   2.096   2.394  10.905 -0.2244 -0.1222  0.5884
 1264TIP3    H125207   2.118   2.361  10.818  2.3805  2.1479  0.3279
 1264TIP3    H225208   2.022   2.453  10.891  1.2526  1.5485 -0.3859
 1265TIP3   OH225209   1.587   6.369  12.831 -0.0805 -0.4350  0.7071
 1265TIP3    H125210   1.590   6.461  12.857  1.1638  0.0898 -1.2137
 1265TIP3    H225211   1.617   6.368  12.740 -2.3685 -2.4354 -0.1156
 1266TIP3   OH225212   1.740   2.786  10.951  0.4358 -0.0255  0.1523
 1266TIP3    H125213   1.732   2.826  11.038  1.2539  0.6080 -0.0576
 1266TIP3    H225214   1.661   2.813  10.904  0.9325  1.2673  0.0458
 1267TIP3   OH225215   3.336   4.657   9.974  0.1807  0.2486 -0.2127
 1267TIP3    H125216   3.406   4.721   9.980 -1.4298  2.0898 -0.7179
 1267TIP3    H225217   3.368   4.581  10.023  3.0892  0.5138 -1.5975
 1268TIP3   OH225218   3.340   2.328  12.692 -0.1203  0.0236  0.1661
 1268TIP3    H125219   3.344   2.293  12.603 -0.8002  2.0483 -0.7137
 1268TIP3    H225220   3.345   2.252  12.749 -0.0323 -1.3371 -1.6303
 1269TIP3   OH225221   4.166   3.416  10.989  0.1771 -0.2816 -0.9162
 1269TIP3    H125222   4.100   3.382  11.050  1.4136  1.4061  1.4479
 1269TIP3    H225223   4.151   3.510  10.988  1.6171 -0.0560 -1.5175
 1270TIP3   OH225224   4.448   1.442  12.372 -0.0624 -0.1534  0.8740
 1270TIP3    H125225   4.466   1.506  12.303 -1.5931 -1.2373 -0.5964
 1270TIP3    H225226   4.530   1.394  12.383  0.6959  1.1715  1.0351
 1271TIP3   OH225227   6.366   4.719  11.625 -0.3577  0.4174  0.2249
 1271TIP3    H125228   6.363   4.807  11.588  1.9341  1.0147  1.3376
 1271TIP3    H225229   6.349   4.661  11.551 -4.5564  1.8257 -0.0428
 1272TIP3   OH225230   2.663   3.120  13.784 -0.4125  0.3609  0.0501
 1272TIP3    H125231   2.751   3.085  13.778 -0.3056  0.9704 -2.5826
 1272TIP3    H225232   2.665   3.178  13.860  1.3509  0.1065  0.2086
 1273TIP3   OH225233   2.786   0.940  12.879 -0.0615  0.1083 -0.1371
 1273TIP3    H125234   2.850   0.910  12.944 -0.0223  1.2482  0.3618
 1273TIP3    H225235   2.837   0.996  12.820 -0.2537 -0.3306 -0.7188
 1274TIP3   OH225236   1.310   1.468  12.697 -0.2767 -0.4354 -0.1075
 1274TIP3    H125237   1.344   1.409  12.764  1.0876  2.0955  1.5014
 1274TIP3    H225238   1.216   1.447  12.693 -0.2100 -1.2293  1.9402
 1275TIP3   OH225239   0.606   2.101  10.885  0.0397 -0.0626  0.3602
 1275TIP3    H125240   0.664   2.051  10.942 -2.2216 -1.3960  1.5604
 1275TIP3    H225241   0.578   2.038  10.819 -0.1636  0.5282 -0.1189
 1276TIP3   OH225242   2.251   1.527  11.248 -0.6304 -0.3582 -0.1145
 1276TIP3    H125243   2.203   1.560  11.325  3.4557 -0.5259  2.6500
 1276TIP3    H225244   2.253   1.432  11.260 -1.1182 -0.5026 -1.1540
 1277TIP3   OH225245   2.853   4.204  10.872 -0.0955  0.5741  0.3076
 1277TIP3    H125246   2.794   4.226  10.800  0.9314  1.4901 -0.2659
 1277TIP3    H225247   2.798   4.158  10.935 -1.2526  0.7611 -0.5573
 1278TIP3   OH225248   3.089   5.577  12.088  0.5127  0.0562  0.5330
 1278TIP3    H125249   2.999   5.604  12.105 -0.3168 -1.7208 -0.8441
 1278TIP3    H225250   3.140   5.617  12.158 -1.4177  0.6857  1.6182
 1279TIP3   OH225251   7.002   1.446  11.834 -0.5885 -0.1942 -0.1637
 1279TIP3    H125252   7.020   1.435  11.741 -0.1051 -0.5012 -0.0348
 1279TIP3    H225253   6.912   1.414  11.845 -1.3631  1.6592 -0.8725
 1280TIP3   OH225254   5.247   6.706  13.239  0.4243  0.2611 -0.7484
 1280TIP3    H125255   5.156   6.732  13.227  0.5349  0.2337 -1.6783
 1280TIP3    H225256   5.257   6.630  13.182  0.2460 -1.5188  1.4974
 1281TIP3   OH225257   2.598   2.116  11.537  0.0603 -0.1239  0.2017
 1281TIP3    H125258   2.563   2.073  11.459 -0.6211 -1.4869  1.2434
 1281TIP3    H225259   2.690   2.132  11.516  0.1557 -1.4732 -0.4788
 1282TIP3   OH225260   6.049   3.393  12.103 -0.4013 -0.2989 -0.4197
 1282TIP3    H125261   6.003   3.320  12.062  0.5915 -0.7725 -0.6990
 1282TIP3    H225262   6.088   3.356  12.182 -3.0277  0.8047  1.4799
 1283TIP3   OH225263   6.533   4.090   9.945  0.2918  0.5098 -0.4167
 1283TIP3    H125264   6.550   3.996   9.944  0.1676  0.4744  1.0088
 1283TIP3    H225265   6.602   4.127   9.890  0.7084 -0.3420 -0.4776
 1284TIP3   OH225266   2.590   2.070  10.500  0.1400 -0.1161  0.2630
 1284TIP3    H125267   2.638   2.030  10.428 -0.3978 -2.6642  1.2369
 1284TIP3    H225268   2.498   2.047  10.483  0.0653 -1.1947  1.9938
 1285TIP3   OH225269   2.032   2.789  15.048  0.8836 -0.2680  0.1025
 1285TIP3    H125270   2.108   2.807  15.103  1.8060 -4.7252  0.5129
 1285TIP3    H225271   1.972   2.741  15.106 -1.0023  0.6649 -1.0303
 1286TIP3   OH225272   0.960   5.837  13.927  0.1835  0.3034  0.3616
 1286TIP3    H125273   1.007   5.833  13.844 -1.5451  1.2800 -0.7111
 1286TIP3    H225274   0.938   5.746  13.947  3.8443 -0.3328  1.6961
 1287TIP3   OH225275   2.189   2.064  12.160 -0.2367 -0.1242  0.0646
 1287TIP3    H125276   2.173   2.007  12.084  0.4769  0.5102 -0.5697
 1287TIP3    H225277   2.282   2.085  12.156  0.2774 -1.8295  2.3672
 1288TIP3   OH225278   1.549   1.012  12.982 -0.4304 -0.2215  0.1905
 1288TIP3    H125279   1.489   1.045  13.048  0.4211  0.3227  0.7093
 1288TIP3    H225280   1.593   1.090  12.948  0.7156 -0.6911  0.5455
 1289TIP3   OH225281   0.400   2.819  10.042 -0.0167  0.3666 -0.0828
 1289TIP3    H125282   0.438   2.901  10.011 -1.3204  0.2515 -2.0988
 1289TIP3    H225283   0.312   2.818  10.005 -0.7361 -0.9853  1.6177
 1290TIP3   OH225284   2.653   0.812  10.946 -0.5917 -0.2187 -0.2808
 1290TIP3    H125285   2.735   0.858  10.961  0.1121 -2.1451  1.9788
 1290TIP3    H225286   2.658   0.781  10.855  1.6371 -1.2217  0.1673
 1291TIP3   OH225287   0.630   1.920  13.124 -0.1985 -0.0433  0.0680
 1291TIP3    H125288   0.720   1.928  13.092 -0.8672  1.0054 -1.6578
 1291TIP3    H225289   0.634   1.946  13.216  1.5603 -1.8011  0.5154
 1292TIP3   OH225290   1.455   0.902  10.185  0.1732 -0.2977 -0.2759
 1292TIP3    H125291   1.390   0.935  10.247  0.4550 -0.3870  0.0742
 1292TIP3    H225292   1.404   0.864  10.114 -0.1479  1.6056 -1.0814
 1293TIP3   OH225293   0.114   6.423  12.250  0.4850  0.2298 -0.6898
 1293TIP3    H125294   0.175   6.360  12.212 -2.4415 -3.0349 -0.2310
 1293TIP3    H225295   0.070   6.463  12.175  1.2025  0.5783 -0.9317
 1294TIP3   OH225296   6.487   1.633  11.290  0.1364 -0.0720 -0.4279
 1294TIP3    H125297   6.438   1.551  11.295  0.8628 -0.4569  0.7837
 1294TIP3    H225298   6.434   1.696  11.339 -0.4047  0.1684 -1.3295
 1295TIP3   OH225299   1.184   2.210  12.518 -0.1525 -1.0394  0.1512
 1295TIP3    H125300   1.266   2.161  12.520 -0.6715 -1.9368 -0.3855
 1295TIP3    H225301   1.120   2.151  12.558 -0.5272 -0.3153  0.6351
 1296TIP3   OH225302   5.901   5.224  11.369 -0.0051 -0.1541 -0.7162
 1296TIP3    H125303   5.881   5.281  11.444 -0.2209 -1.6611  0.3878
 1296TIP3    H225304   5.818   5.180  11.350  0.9885 -2.6988  0.6753
 1297TIP3   OH225305   1.150   6.947  10.349 -0.6089  0.0396 -0.6719
 1297TIP3    H125306   1.063   6.926  10.315 -0.5492 -1.4718  0.1021
 1297TIP3    H225307   1.137   6.961  10.443  0.1057 -0.9644 -0.4175
 1298TIP3   OH225308   0.188   1.914  11.998 -0.5331 -0.3425 -0.2804
 1298TIP3    H125309   0.259   1.851  12.009 -1.5988 -1.4071  0.6516
 1298TIP3    H225310   0.120   1.885  12.059 -2.2185  0.0052 -1.9296
 1299TIP3   OH225311   0.980   1.373  13.307  0.2543 -0.2428  0.4200
 1299TIP3    H125312   0.966   1.285  13.343  1.7249 -0.9159 -0.5764
 1299TIP3    H225313   0.905   1.388  13.250  0.5871 -1.3661 -0.3370
 1300TIP3   OH225314   3.414   1.290  12.789 -0.0588  0.7181 -0.2001
 1300TIP3    H125315   3.440   1.221  12.851  0.9721  0.8953 -0.4278
 1300TIP3    H225316   3.486   1.294  12.726 -1.0021  0.6883 -1.2929
 1301TIP3   OH225317   4.096   3.237  10.376  0.2195 -0.3120 -0.3944
 1301TIP3    H125318   4.027   3.214  10.314  2.5463 -0.7973 -2.9247
 1301TIP3    H225319   4.131   3.153  10.406  0.7081 -0.0753 -0.2976
 1302TIP3   OH225320   3.020   2.102  14.409 -1.0979  0.0602 -0.7515
 1302TIP3    H125321   2.979   2.155  14.340 -1.6631  0.6544  0.0264
 1302TIP3    H225322   2.971   2.020  14.407 -2.3435  0.7611  0.1608
 1303TIP3   OH225323   2.706   1.088  13.276  0.0763 -0.5496 -0.0272
 1303TIP3    H125324   2.788   1.039  13.282  0.5948  0.1419 -1.3689
 1303TIP3    H225325   2.657   1.044  13.207 -0.1580 -0.2049 -0.0830
 1304TIP3   OH225326   5.694   5.447  13.944 -0.0892 -0.0227  0.6266
 1304TIP3    H125327   5.610   5.461  13.986 -0.1415  1.0363  0.1905
 1304TIP3    H225328   5.759   5.469  14.010 -0.1636  0.1511  0.6415
 1305TIP3   OH225329   3.508   4.357  12.313  0.6106 -0.5088 -0.3495
 1305TIP3    H125330   3.419   4.382  12.290  1.4899  2.5276 -0.7392
 1305TIP3    H225331   3.499   4.305  12.393 -1.4437  0.7673  0.2908
 1306TIP3   OH225332   0.102   1.046  10.076 -0.1080  0.0955  0.1729
 1306TIP3    H125333   0.045   0.982  10.033 -2.0387  0.9951  1.3313
 1306TIP3    H225334   0.187   1.034  10.034 -1.1837 -1.1404 -1.7324
 1307TIP3   OH225335   0.988   1.910  10.866  0.5978 -0.0027 -0.1819
 1307TIP3    H125336   0.953   1.829  10.828  2.7639 -0.5592 -1.0453
 1307TIP3    H225337   1.069   1.884  10.908  0.4380  1.4284  1.0413
 1308TIP3   OH225338   2.910   4.062  10.509 -0.8517  0.4790 -0.3109
 1308TIP3    H125339   2.825   4.025  10.484 -1.2840  1.7893 -0.8101
 1308TIP3    H225340   2.966   4.046  10.433 -0.5539 -0.6405  0.1289
 1309TIP3   OH225341   3.957   3.624  10.871 -0.2414  0.0503  0.2339
 1309TIP3    H125342   3.934   3.711  10.905  1.1861  1.2230 -1.7125
 1309TIP3    H225343   3.989   3.641  10.783 -1.1202 -2.6206 -0.6307
 1310TIP3   OH225344   2.834   0.134  11.001 -0.1673  0.0767 -0.2756
 1310TIP3    H125345   2.791   0.218  11.014  1.8868  1.1522 -0.3092
 1310TIP3    H225346   2.802   0.104  10.915 -1.1992  0.6319 -0.0856
 1311TIP3   OH225347   3.224   2.394  10.129 -0.9291  0.6455  0.1077
 1311TIP3    H125348   3.145   2.392  10.074 -1.7650 -1.9885  1.3346
 1311TIP3    H225349   3.287   2.338  10.083  1.1623  4.5674 -2.0839
 1312TIP3   OH225350   2.208   1.550  10.964  0.1092 -0.3777 -0.0760
 1312TIP3    H125351   2.302   1.537  10.953  0.3918 -0.2623  2.0623
 1312TIP3    H225352   2.196   1.558  11.058 -1.9437  0.4547 -0.3947
 1313TIP3   OH225353   3.292   0.423  10.391 -0.1739  0.0088 -0.6663
 1313TIP3    H125354   3.226   0.368  10.348  1.1712 -2.5344  0.4339
 1313TIP3    H225355   3.249   0.455  10.470 -0.2949 -1.1369 -0.2657
 1314TIP3   OH225356   3.990   0.812  11.945  0.9213  0.1938  0.5188
 1314TIP3    H125357   3.935   0.869  11.892  0.1103  0.1961  1.3618
 1314TIP3    H225358   3.949   0.726  11.940  1.1573  0.0683  0.6879
 1315TIP3   OH225359   4.980   1.234  11.064 -0.3597  0.4999 -0.0772
 1315TIP3    H125360   5.073   1.212  11.063 -0.1631  1.3080 -1.1961
 1315TIP3    H225361   4.935   1.151  11.082  0.6075  0.2617  1.2677
 1316TIP3   OH225362   2.717   0.307  12.379  0.0255 -0.2305  0.2500
 1316TIP3    H125363   2.656   0.244  12.418 -1.2128  1.2349  0.7333
 1316TIP3    H225364   2.681   0.326  12.292 -0.0860  0.4338  0.4334
 1317TIP3   OH225365   6.644   0.776  10.430  0.6142 -0.6340  0.5160
 1317TIP3    H125366   6.652   0.819  10.515  1.2862 -1.2893  0.7862
 1317TIP3    H225367   6.727   0.794  10.386 -0.1277  0.5950 -0.4349
 1318TIP3   OH225368   3.943   1.836  10.725  0.4244  0.9854  0.7531
 1318TIP3    H125369   3.924   1.746  10.750  2.7036  1.2552  3.7431
 1318TIP3    H225370   3.888   1.852  10.648  0.9426 -3.3264 -0.6137
 1319TIP3   OH225371   0.794   4.310  11.428 -0.4593 -0.2138 -0.0833
 1319TIP3    H125372   0.761   4.223  11.450  1.3614 -0.9409 -0.2010
 1319TIP3    H225373   0.875   4.319  11.478 -0.6449  1.4518 -0.0262
 1320TIP3   OH225374   2.576   2.657  10.945 -0.0020  0.4355  0.0188
 1320TIP3    H125375   2.608   2.747  10.953  0.6753  0.0595  1.9671
 1320TIP3    H225376   2.482   2.667  10.926  0.3232  1.5480 -1.0527
 1321TIP3   OH225377   1.304   1.133  10.111  0.2818  0.0663  0.1356
 1321TIP3    H125378   1.296   1.065  10.044 -1.0451  0.3111  0.0210
 1321TIP3    H225379   1.229   1.119  10.169  1.1158  0.1916  1.2721
 1322TIP3   OH225380   2.950   3.633  11.388 -1.2186  0.5271  0.3170
 1322TIP3    H125381   3.037   3.673  11.382 -1.3739  0.7444 -0.5668
 1322TIP3    H225382   2.937   3.617  11.482 -0.5093  1.1120  0.5187
 1323TIP3   OH225383   1.632   2.350  11.203  0.5971  0.0502  0.3268
 1323TIP3    H125384   1.574   2.310  11.268  2.1578 -1.5760  0.7685
 1323TIP3    H225385   1.574   2.375  11.132 -0.8688 -0.0313  1.4544
 1324TIP3   OH225386   5.021   1.334   9.944 -0.2802  0.1999  0.0995
 1324TIP3    H125387   5.021   1.403   9.878  1.4594 -0.2091 -0.3425
 1324TIP3    H225388   5.086   1.270   9.912 -0.0892 -0.4419  1.7414
 1325TIP3   OH225389   6.884   3.253  11.083 -0.1777 -0.1924 -0.2055
 1325TIP3    H125390   6.937   3.330  11.062 -0.2041  0.1118  0.8645
 1325TIP3    H225391   6.803   3.266  11.033 -1.3685  1.8924  2.1779
 1326TIP3   OH225392   1.759   1.044  12.019 -0.0831 -0.4697 -0.1691
 1326TIP3    H125393   1.668   1.013  12.018  0.2451 -1.4752  0.1468
 1326TIP3    H225394   1.752   1.138  12.008 -1.1092 -0.6756 -1.4606
 1327TIP3   OH225395   1.559   3.936  13.007  0.3480  0.2067 -0.1332
 1327TIP3    H125396   1.540   4.026  13.035 -0.5498  0.5871 -1.8789
 1327TIP3    H225397   1.475   3.903  12.975  0.8713 -0.9554 -0.3246
 1328TIP3   OH225398   4.220   3.854  10.476  0.7037 -0.2127  0.1972
 1328TIP3    H125399   4.263   3.904  10.408  0.4656 -0.8882 -0.4556
 1328TIP3    H225400   4.127   3.854  10.451  0.5823 -0.2836  0.6349
 1329TIP3   OH225401   2.970   2.450  10.650  0.3952  0.2470 -0.1638
 1329TIP3    H125402   2.875   2.452  10.663  0.4303  0.0088  0.1416
 1329TIP3    H225403   2.997   2.363  10.680  0.7131  0.3241 -0.2218
 1330TIP3   OH225404   2.963   7.140  10.972 -0.0981  0.0574 -0.8493
 1330TIP3    H125405   2.873   7.174  10.967 -0.1117  0.1053 -0.3202
 1330TIP3    H225406   2.992   7.136  10.881 -1.7992 -3.1113 -1.3240
 1331TIP3   OH225407   2.790   0.169  10.399 -0.2035 -0.1538 -0.2765
 1331TIP3    H125408   2.725   0.138  10.462  2.9153 -1.1827  2.5076
 1331TIP3    H225409   2.829   0.247  10.439 -1.1930  1.8173 -2.9391
 1332TIP3   OH225410   3.610   3.401  11.131  0.3553  0.2052 -0.4763
 1332TIP3    H125411   3.576   3.318  11.163  0.4581  0.9902  1.7527
 1332TIP3    H225412   3.703   3.400  11.154  0.4591  0.7568 -0.8458
 1333TIP3   OH225413   0.810   2.035  11.570  0.2552 -0.1599 -0.4131
 1333TIP3    H125414   0.773   1.990  11.495  0.5402 -0.6524 -0.2643
 1333TIP3    H225415   0.826   2.124  11.540 -0.7367 -0.0350 -0.5702
 1334TIP3   OH225416   5.558   1.720  11.153  0.1863  0.1349 -0.0322
 1334TIP3    H125417   5.478   1.773  11.147 -0.0915 -0.1865  0.7433
 1334TIP3    H225418   5.618   1.762  11.092 -1.2340 -0.8103 -2.1437
 1335TIP3   OH225419   4.992   1.432  11.408 -0.0757  0.7109 -0.3664
 1335TIP3    H125420   4.934   1.506  11.422  0.0302  0.4544  1.7175
 1335TIP3    H225421   5.049   1.432  11.486  0.1086 -1.3608 -0.4783
 1336TIP3   OH225422   4.504   6.874  11.107  0.1427 -0.6626 -0.3134
 1336TIP3    H125423   4.569   6.911  11.048  1.0425  1.0073  1.6479
 1336TIP3    H225424   4.430   6.935  11.103 -0.9845 -2.1108 -1.9068
 1337TIP3   OH225425   1.321   3.018  11.703  0.5041 -0.1731 -0.1633
 1337TIP3    H125426   1.321   2.930  11.667  0.2351 -0.2747  0.0827
 1337TIP3    H225427   1.253   3.064  11.654  1.1000  0.0905 -0.7537
 1338TIP3   OH225428   3.815   0.874  12.391  0.2297  0.7470  0.1838
 1338TIP3    H125429   3.792   0.781  12.387 -0.0013  0.7882  0.5531
 1338TIP3    H225430   3.783   0.910  12.309  3.2383 -0.1482 -1.4784
 1339TIP3   OH225431   5.027   2.497  12.789  0.0976  0.4245  0.6638
 1339TIP3    H125432   5.023   2.413  12.835 -0.0774  0.5898  0.9538
 1339TIP3    H225433   4.938   2.512  12.757  0.2311  0.2841  0.2229
 1340TIP3   OH225434   1.345   2.189  10.661 -0.4900  0.2860 -0.3670
 1340TIP3    H125435   1.298   2.256  10.710 -1.4609 -1.0201  0.5122
 1340TIP3    H225436   1.281   2.157  10.597 -0.8647 -1.5158  0.8539
 1341TIP3   OH225437   1.322   4.463  11.124  0.2818 -0.2285 -0.0609
 1341TIP3    H125438   1.332   4.493  11.034 -0.1154 -0.4276 -0.1737
 1341TIP3    H225439   1.410   4.434  11.150  0.6994  1.1421  0.0972
 1342TIP3   OH225440   3.375   2.236  10.397  0.1578 -0.0295  0.3776
 1342TIP3    H125441   3.412   2.179  10.330 -1.2898 -1.2236  0.5740
 1342TIP3    H225442   3.321   2.178  10.451 -1.9621  1.6666  0.1280
 1343TIP3   OH225443   0.633   2.951  10.620  0.0396  0.0857 -0.4782
 1343TIP3    H125444   0.549   2.909  10.639 -0.9836  0.9474 -2.8104
 1343TIP3    H225445   0.632   3.030  10.674 -0.3151 -0.2794  0.0603
 1344TIP3   OH225446   0.822   2.161  14.498 -0.0959 -0.3008  0.4390
 1344TIP3    H125447   0.836   2.244  14.543 -1.8022  0.2399  0.0085
 1344TIP3    H225448   0.828   2.095  14.567  0.3801  0.2536  0.9327
 1345TIP3   OH225449   4.113   7.217  10.590  0.9042  0.0184  0.3557
 1345TIP3    H125450   4.126   7.205  10.496  0.3817 -0.1774  0.3052
 1345TIP3    H225451   4.078   7.306  10.598  0.5158 -0.1303  0.3221
 1346TIP3   OH225452   2.971   3.238  11.567 -0.3279 -0.1658 -0.4515
 1346TIP3    H125453   3.004   3.317  11.611 -1.3022 -0.2682  0.4645
 1346TIP3    H225454   3.041   3.174  11.579  1.0017  0.8912 -2.2370
 1347TIP3   OH225455   1.290   5.500  11.591 -0.1616  0.3011 -0.2085
 1347TIP3    H125456   1.373   5.495  11.638  0.7324 -2.3783 -1.9611
 1347TIP3    H225457   1.314   5.483  11.499 -2.6112 -0.3525 -0.7517
 1348TIP3   OH225458   1.221   1.687  11.586 -0.0869  0.0516 -0.2617
 1348TIP3    H125459   1.144   1.705  11.532  1.3822 -0.8339 -2.7349
 1348TIP3    H225460   1.282   1.758  11.564  0.4996 -0.2882  0.2746
 1349TIP3   OH225461   1.885   4.873  10.673 -0.1860  0.6349  0.3534
 1349TIP3    H125462   1.930   4.957  10.664 -0.4864  0.6754 -0.8810
 1349TIP3    H225463   1.949   4.808  10.645 -0.8003  0.6734 -1.1793
 1350TIP3   OH225464   3.875   0.827  12.940  0.1524 -0.0940 -0.2778
 1350TIP3    H125465   3.842   0.913  12.914  0.4242 -0.2230 -1.0930
 1350TIP3    H225466   3.824   0.803  13.017 -0.5546  0.4019 -0.5897
 1351TIP3   OH225467   2.226   0.922  12.078 -0.0388 -0.5484 -0.2587
 1351TIP3    H125468   2.137   0.941  12.048  0.0387  1.0120  0.4278
 1351TIP3    H225469   2.272   1.006  12.071  0.5934 -0.6621  2.0486
 1352TIP3   OH225470   3.388   2.483  11.824 -0.3232  0.0840  0.6818
 1352TIP3    H125471   3.311   2.513  11.775  1.2409  1.5060 -0.9946
 1352TIP3    H225472   3.409   2.555  11.883 -0.1941 -0.2284  1.0140
 1353TIP3   OH225473   4.604   2.512  11.603 -0.7867 -0.4384 -0.0396
 1353TIP3    H125474   4.612   2.520  11.508 -0.7873 -0.5589 -0.0489
 1353TIP3    H225475   4.516   2.543  11.622 -0.1756  1.2742  0.1139
 1354TIP3   OH225476   3.751   1.496  10.023  0.1294 -0.0373  0.0632
 1354TIP3    H125477   3.838   1.535  10.028 -0.1885  0.4857  1.5307
 1354TIP3    H225478   3.749   1.433  10.095 -0.1683 -1.1478 -0.9042
 1355TIP3   OH225479   2.603   4.995  15.283  0.2490 -0.4239 -0.2027
 1355TIP3    H125480   2.593   5.052  15.207 -1.5639  2.7968  2.3182
 1355TIP3    H225481   2.530   4.934  15.277 -0.9611  0.9896 -0.1230
 1356TIP3   OH225482   4.495   6.660  11.654 -0.7033  0.1484 -0.2561
 1356TIP3    H125483   4.439   6.665  11.576  0.6688  1.5039 -1.1860
 1356TIP3    H225484   4.473   6.738  11.704 -0.9489 -0.2657  0.2824
 1357TIP3   OH225485   3.140   6.372  12.483  0.2342  0.0459 -0.3412
 1357TIP3    H125486   3.215   6.425  12.512 -1.0097  0.3829  2.4372
 1357TIP3    H225487   3.165   6.340  12.396  3.0487  1.2055 -0.0092
 1358TIP3   OH225488   2.086   0.786   9.804  0.4573 -0.3216  0.0743
 1358TIP3    H125489   2.055   0.869   9.767 -0.8454 -0.5405  0.6614
 1358TIP3    H225490   2.025   0.766   9.875  0.7416 -1.8008 -0.0701
 1359TIP3   OH225491   0.381   1.487  10.814  0.3560 -0.4854  0.6428
 1359TIP3    H125492   0.357   1.573  10.780 -0.9049 -1.0098  0.1921
 1359TIP3    H225493   0.437   1.506  10.889 -0.6334  0.7552  1.0881
 1360TIP3   OH225494   2.709   2.580  10.712  0.3864  0.7045 -0.2026
 1360TIP3    H125495   2.710   2.485  10.729  1.5543  0.9312  1.1286
 1360TIP3    H225496   2.676   2.618  10.794  0.6884  1.5010 -0.4516
 1361TIP3   OH225497   3.712   0.903  10.768  0.2605 -0.1204 -0.2222
 1361TIP3    H125498   3.740   0.975  10.825 -1.4730  0.7479 -0.4266
 1361TIP3    H225499   3.793   0.855  10.748  1.6978  2.6089 -1.2364
 1362TIP3   OH225500   2.244   2.683  10.104 -0.5143  0.0001  0.8805
 1362TIP3    H125501   2.226   2.772  10.135  0.0105  1.1639 -2.0044
 1362TIP3    H225502   2.158   2.644  10.090 -0.7535  0.5000  0.9438
 1363TIP3   OH225503   2.783   6.943  10.825 -0.0585  0.6788  0.0909
 1363TIP3    H125504   2.868   6.987  10.820  0.0829  0.5034  0.8815
 1363TIP3    H225505   2.725   7.009  10.863  0.6168 -0.4604  3.1955
 1364TIP3   OH225506   1.695   0.460  10.696  0.2190  0.6687 -0.6011
 1364TIP3    H125507   1.756   0.448  10.768  0.2880 -0.4490 -0.8365
 1364TIP3    H225508   1.644   0.538  10.720 -0.4143 -0.2503  1.1242
 1365TIP3   OH225509   1.191   4.225  11.155 -0.1651  0.1105 -0.1148
 1365TIP3    H125510   1.201   4.317  11.129  1.0864  0.3585  1.1788
 1365TIP3    H225511   1.200   4.226  11.250  1.0485 -1.5077 -0.1965
 1366TIP3   OH225512   3.425   3.146  10.083  0.1901 -0.1391 -0.0077
 1366TIP3    H125513   3.445   3.149   9.989 -1.3386  0.1662 -0.3434
 1366TIP3    H225514   3.341   3.191  10.090  0.5834  0.3352  1.5941
 1367TIP3   OH225515   5.727   0.734  11.348  0.4456  0.1269  0.0718
 1367TIP3    H125516   5.667   0.796  11.307  0.2992  0.1306  0.2914
 1367TIP3    H225517   5.673   0.658  11.367  1.2280 -1.2051 -2.7709
 1368TIP3   OH225518   2.845   0.629  11.125 -0.1056 -0.3504  0.0290
 1368TIP3    H125519   2.787   0.589  11.060  1.4781 -1.4264 -0.7732
 1368TIP3    H225520   2.823   0.585  11.207 -2.1126  1.0082  0.2444
 1369TIP3   OH225521   3.928   3.146  11.269  0.0281 -0.3411  0.0921
 1369TIP3    H125522   3.924   3.238  11.240 -2.5669 -0.8454 -1.2646
 1369TIP3    H225523   4.021   3.131  11.285  1.0819  1.2681 -3.8306
 1370TIP3   OH225524   3.999   3.712  10.278  0.3303 -0.1737 -0.3947
 1370TIP3    H125525   4.016   3.630  10.324  0.8211  0.1163 -0.0514
 1370TIP3    H225526   4.037   3.699  10.191  0.6808 -0.2039 -0.2403
 1371TIP3   OH225527   4.489   4.552  10.722  0.6487  0.0619 -0.8643
 1371TIP3    H125528   4.572   4.600  10.718 -0.4209  1.9548 -0.7465
 1371TIP3    H225529   4.426   4.615  10.756 -0.9383 -1.2586 -1.2725
 1372TIP3   OH225530   3.306   3.693  12.238 -0.3416 -0.1707 -0.2249
 1372TIP3    H125531   3.255   3.692  12.157 -0.0809  0.9160 -0.4115
 1372TIP3    H225532   3.321   3.601  12.258  0.4964 -0.4590 -2.0106
 1373TIP3   OH225533   0.135   3.367  12.147  0.0310 -0.3716  0.2770
 1373TIP3    H125534   0.065   3.322  12.194  1.4448 -1.3088  1.4800
 1373TIP3    H225535   0.200   3.388  12.213  0.9058  0.5334 -0.8370
 1374TIP3   OH225536   2.905   3.562   9.796 -0.6028 -0.6121 -0.1250
 1374TIP3    H125537   2.819   3.600   9.777 -0.0660  0.8460  0.3365
 1374TIP3    H225538   2.894   3.521   9.882 -0.1540  1.7913  1.1268
 1375TIP3   OH225539   4.282   0.075  13.607 -0.4257  0.3159  0.3138
 1375TIP3    H125540   4.311   0.040  13.691  0.8674  1.0096  0.1781
 1375TIP3    H225541   4.209   0.019  13.582 -0.0367 -0.6751  1.3213
 1376TIP3   OH225542   3.701   4.202  11.208 -0.0629  0.7838  0.7831
 1376TIP3    H125543   3.681   4.278  11.153  0.0797  0.2843  0.0291
 1376TIP3    H225544   3.621   4.149  11.204  0.5208 -0.0363 -0.2674
 1377TIP3   OH225545   4.442   5.987  12.412  0.3489 -0.1233 -1.0874
 1377TIP3    H125546   4.511   5.980  12.346  0.1781  2.7366 -1.6468
 1377TIP3    H225547   4.479   5.946  12.490  1.6860 -0.8956 -2.1148
 1378TIP3   OH225548   3.955   2.820  11.341  0.6058 -0.3319 -0.1349
 1378TIP3    H125549   3.991   2.899  11.380 -0.6052  0.1516  0.0250
 1378TIP3    H225550   4.000   2.748  11.385  0.3241  0.2340  1.0863
 1379TIP3   OH225551   3.774   3.839  11.485  0.4461  0.1415 -0.5113
 1379TIP3    H125552   3.760   3.802  11.572 -0.8950 -0.9036 -1.1656
 1379TIP3    H225553   3.806   3.927  11.502  0.9029 -0.3021  1.0491
 1380TIP3   OH225554   3.758   4.207  10.323 -0.0863 -0.4918 -0.3675
 1380TIP3    H125555   3.672   4.171  10.343 -0.5475  0.6319 -0.2824
 1380TIP3    H225556   3.807   4.133  10.286  0.1054 -2.0601  2.8836
 1381TIP3   OH225557   4.397   1.025  11.247  0.4000 -0.0958  0.2341
 1381TIP3    H125558   4.370   0.985  11.164 -0.6897 -0.4927  0.7828
 1381TIP3    H225559   4.348   0.978  11.314  0.9008  0.5679  1.0774
 1382TIP3   OH225560   1.834   3.216  10.537 -0.1624 -0.0821 -0.0421
 1382TIP3    H125561   1.818   3.268  10.615 -0.1169 -0.0190 -0.0735
 1382TIP3    H225562   1.833   3.279  10.465 -1.1246 -0.2630 -0.1946
 1383TIP3   OH225563   5.310   1.066  10.659 -0.2492 -0.6218 -0.3954
 1383TIP3    H125564   5.342   1.154  10.678  0.1237 -0.6723 -0.7769
 1383TIP3    H225565   5.340   1.048  10.570  0.4485 -1.4844  0.0054
 1384TIP3   OH225566   1.876   1.390  11.760 -0.8127 -0.2359 -0.2722
 1384TIP3    H125567   1.851   1.382  11.852  1.3077 -1.0052  0.2811
 1384TIP3    H225568   1.794   1.402  11.713 -2.0304 -1.0213  1.6069
 1385TIP3   OH225569   1.594   4.868  12.725  0.2129 -0.1134 -0.0363
 1385TIP3    H125570   1.606   4.922  12.804 -1.6358  0.8598 -0.3813
 1385TIP3    H225571   1.575   4.931  12.656 -2.6366 -1.1980 -0.3247
 1386TIP3   OH225572   2.960   3.360  10.549 -0.4004  0.2348  0.4955
 1386TIP3    H125573   2.901   3.284  10.542  0.3077 -0.4206  1.6170
 1386TIP3    H225574   3.002   3.365  10.463  0.4615 -1.3943  0.8105
 1387TIP3   OH225575   5.107   3.738  10.348  0.5648 -0.1058 -0.1872
 1387TIP3    H125576   5.180   3.798  10.364 -1.1005  2.2117 -1.0514
 1387TIP3    H225577   5.116   3.714  10.256  1.2287 -1.2118  0.1576
 1388TIP3   OH225578   1.666   0.334  11.962 -0.3607  0.0304  0.2586
 1388TIP3    H125579   1.721   0.356  12.038 -0.6167  0.0781  0.4341
 1388TIP3    H225580   1.594   0.398  11.967  0.0191  0.5225 -0.4584
 1389TIP3   OH225581   1.922   6.079  12.744 -0.0125  0.5320 -0.5625
 1389TIP3    H125582   1.948   6.150  12.685  0.8849  0.3952 -0.3372
 1389TIP3    H225583   1.994   6.073  12.807  0.5492 -1.4536 -1.3615
 1390TIP3   OH225584   1.135   3.381  12.615 -0.3447  0.2057 -0.0629
 1390TIP3    H125585   1.218   3.427  12.607  0.0118 -0.5716 -0.9631
 1390TIP3    H225586   1.142   3.334  12.699  1.3158 -2.1606 -1.4724
 1391TIP3   OH225587   5.904   3.404  10.963 -0.0689 -0.6820 -0.2705
 1391TIP3    H125588   5.962   3.331  10.986 -2.1616 -2.1350  0.5930
 1391TIP3    H225589   5.885   3.391  10.870  0.0328 -0.9049 -0.2607
 1392TIP3   OH225590   1.674   2.978  11.863 -0.1559 -0.2719  0.0971
 1392TIP3    H125591   1.626   2.930  11.930 -0.2506 -0.1309  0.1288
 1392TIP3    H225592   1.658   2.929  11.782 -0.9283  0.1769 -0.0232
 1393TIP3   OH225593   2.750   5.632  12.628  0.4462  0.0242  0.5818
 1393TIP3    H125594   2.754   5.728  12.637 -2.4393  0.2596 -0.2062
 1393TIP3    H225595   2.707   5.602  12.707 -1.4994 -0.3066 -0.5768
 1394TIP3   OH225596   3.184   4.174  11.697  0.3771  0.3025  0.0133
 1394TIP3    H125597   3.236   4.251  11.674 -0.2385  0.7038 -0.0372
 1394TIP3    H225598   3.215   4.106  11.637 -1.8669  1.5970 -2.7078
 1395TIP3   OH225599   0.568   3.309  11.809 -0.1447 -0.1201  0.2534
 1395TIP3    H125600   0.472   3.312  11.813 -0.0939  0.6302  1.4071
 1395TIP3    H225601   0.589   3.217  11.797 -1.0502 -0.0741 -1.8453
 1396TIP3   OH225602   3.974   1.116  11.210  0.1588  0.4009 -0.4703
 1396TIP3    H125603   4.014   1.073  11.286 -2.3488 -0.4227  0.4360
 1396TIP3    H225604   3.975   1.209  11.232 -0.7314  0.1492  0.6743
 1397TIP3   OH225605   2.444   2.397  10.204  0.1962 -0.5115  0.3549
 1397TIP3    H125606   2.471   2.449  10.128 -0.2507  0.7442  1.0408
 1397TIP3    H225607   2.399   2.321  10.166  1.1566 -0.5786 -0.6656
 1398TIP3   OH225608   0.864   5.520  14.550  0.0406  0.5155 -0.0494
 1398TIP3    H125609   0.910   5.443  14.582  1.1541  1.5248  0.8046
 1398TIP3    H225610   0.921   5.556  14.482 -0.5355  0.5134 -0.5368
 1399TIP3   OH225611   2.965   0.027  11.567 -0.1382 -0.2819  0.0410
 1399TIP3    H125612   2.941  -0.059  11.600 -0.4657 -0.2800 -0.1905
 1399TIP3    H225613   2.915   0.037  11.486 -0.9196  0.5613  0.6089
 1400TIP3   OH225614   3.775   6.477  10.994 -0.9841 -0.0728  0.5340
 1400TIP3    H125615   3.758   6.388  10.963 -0.5908 -0.4106  1.2899
 1400TIP3    H225616   3.704   6.530  10.955 -0.0677 -0.3431 -1.5813
 1401TIP3   OH225617   4.376   4.836  11.476 -0.1720  0.0182 -0.3974
 1401TIP3    H125618   4.358   4.859  11.385  2.0334  0.4101 -0.7764
 1401TIP3    H225619   4.337   4.750  11.488 -0.9041  0.1820 -1.5745
 1402TIP3   OH225620   3.175   4.617  10.222 -0.3929  0.4278  0.2837
 1402TIP3    H125621   3.225   4.666  10.287  0.4430  0.6756 -0.5338
 1402TIP3    H225622   3.226   4.624  10.142 -1.8417  0.8679 -0.6309
 1403TIP3   OH225623   2.378   2.649  10.650 -0.3594  0.1925 -0.0940
 1403TIP3    H125624   2.377   2.559  10.682 -1.1803 -0.2747 -1.3730
 1403TIP3    H225625   2.381   2.703  10.729 -1.3641 -0.9331  0.7341
 1404TIP3   OH225626   1.944   3.313  10.015  0.0782  0.8151  0.1948
 1404TIP3    H125627   1.866   3.365   9.999 -0.6646 -0.1097  0.7498
 1404TIP3    H225628   1.911   3.228  10.045  1.2070 -0.5837 -2.3361
 1405TIP3   OH225629   7.088   1.119  13.699  0.4295  0.8380 -0.2707
 1405TIP3    H125630   7.132   1.049  13.748  0.1296  1.3230  0.6964
 1405TIP3    H225631   7.101   1.095  13.607  1.8255  0.4246  0.0187
 1406TIP3   OH225632   3.561   2.794  15.022 -0.5603  0.5797  0.1550
 1406TIP3    H125633   3.607   2.828  14.945 -0.2941  0.3628  0.2195
 1406TIP3    H225634   3.597   2.707  15.035 -1.0672  0.3658  0.1400
 1407TIP3   OH225635   4.706   0.078  11.691 -0.1818  0.6158  0.3612
 1407TIP3    H125636   4.741   0.034  11.614 -0.3131  1.8276 -0.4161
 1407TIP3    H225637   4.732   0.023  11.765  1.0655  0.1124 -0.4389
 1408TIP3   OH225638   2.264   0.784  12.298 -0.2707 -0.8769 -0.2571
 1408TIP3    H125639   2.249   0.833  12.217  0.2977 -1.8703 -0.9672
 1408TIP3    H225640   2.314   0.707  12.271  0.0475 -1.1458  1.0571
 1409TIP3   OH225641   3.222   2.170  13.044 -0.4026 -0.6665 -0.3994
 1409TIP3    H125642   3.177   2.091  13.015 -1.9304  0.2319 -0.4876
 1409TIP3    H225643   3.175   2.242  13.002  0.2478  0.3684  0.6177
 1410TIP3   OH225644   1.708   2.328  12.992  0.4819 -0.4839  0.3834
 1410TIP3    H125645   1.695   2.407  12.940  1.1254 -1.2181 -0.9190
 1410TIP3    H225646   1.782   2.284  12.950  0.1534 -1.7575  1.1253
 1411TIP3   OH225647   1.996   4.833  11.806  0.2582 -0.0264  0.6180
 1411TIP3    H125648   2.049   4.782  11.867  0.1972 -0.7269  0.0912
 1411TIP3    H225649   1.966   4.908  11.857  4.6291  2.3238  0.0361
 1412TIP3   OH225650   6.648   2.423  11.561  0.1487  0.2913  0.2644
 1412TIP3    H125651   6.555   2.446  11.551  0.4797  1.5254 -0.0025
 1412TIP3    H225652   6.695   2.503  11.537  1.3291 -0.7431 -0.8690
 1413TIP3   OH225653   5.390   2.052  10.256 -0.3325  0.0550  0.1979
 1413TIP3    H125654   5.466   2.053  10.197 -0.4906  0.0279 -0.0063
 1413TIP3    H225655   5.339   1.977  10.227 -1.7213  1.5408 -1.2829
 1414TIP3   OH225656   3.030   2.457   9.951 -0.0584 -0.4560 -0.4063
 1414TIP3    H125657   2.945   2.500   9.962  0.2021 -0.2388  0.7504
 1414TIP3    H225658   3.062   2.489   9.866 -0.9701 -0.2703 -0.6847
 1415TIP3   OH225659   1.245   2.631  12.955  0.0952 -0.1464  0.0370
 1415TIP3    H125660   1.209   2.635  12.866 -3.3278 -2.1245  1.2248
 1415TIP3    H225661   1.275   2.720  12.973  2.6486 -0.1623 -3.7422
 1416TIP3   OH225662   2.068   1.094  10.943  0.2021  0.3519  0.0089
 1416TIP3    H125663   2.015   1.112  11.021 -0.4468  1.4161 -0.6561
 1416TIP3    H225664   2.158   1.103  10.973  0.0117 -1.2951  1.1179
 1417TIP3   OH225665   4.869   3.767  13.927 -0.0272  0.3361 -0.8034
 1417TIP3    H125666   4.822   3.851  13.928 -0.1764  0.2670  1.4498
 1417TIP3    H225667   4.802   3.703  13.905  0.0048  0.7617 -2.1643
 1418TIP3   OH225668   1.386   3.691  10.183 -0.2873 -0.2186  0.3750
 1418TIP3    H125669   1.433   3.612  10.159  0.6441  0.1878  0.8286
 1418TIP3    H225670   1.430   3.722  10.262 -0.0542  1.2585 -0.3170
 1419TIP3   OH225671   2.933   5.880  12.043  0.2729  0.1708 -0.3180
 1419TIP3    H125672   2.985   5.909  12.118  0.1755 -0.2375 -0.0935
 1419TIP3    H225673   2.998   5.850  11.979  0.3246 -0.1887 -0.0998
 1420TIP3   OH225674   1.196   3.354  10.084 -0.2309  0.5068  0.2742
 1420TIP3    H125675   1.239   3.365   9.999 -0.0412  1.0532  0.4434
 1420TIP3    H225676   1.236   3.275  10.121 -0.5192  0.1069 -0.2700
 1421TIP3   OH225677   6.223   2.055  11.280  0.3309 -0.4109 -0.7745
 1421TIP3    H125678   6.213   2.121  11.211  0.5988  0.5567  0.1019
 1421TIP3    H225679   6.137   2.014  11.286 -0.8031  2.1376  0.9450
 1422TIP3   OH225680   2.086   0.554  10.939 -0.3283  0.5479  0.7284
 1422TIP3    H125681   2.069   0.625  10.877 -0.6523 -0.5350 -0.4380
 1422TIP3    H225682   2.007   0.550  10.993 -0.1439  1.3270  1.0723
 1423TIP3   OH225683   7.121   0.392  11.557  0.4645 -0.1518  0.2609
 1423TIP3    H125684   7.042   0.443  11.539  1.8299  1.9982  0.2189
 1423TIP3    H225685   7.119   0.376  11.651  0.5317  0.8525  0.4374
 1424TIP3   OH225686   5.225   0.728  12.975  0.0032  0.5751 -0.3110
 1424TIP3    H125687   5.237   0.730  12.880  0.7538 -0.8821 -0.2612
 1424TIP3    H225688   5.262   0.644  13.002 -0.9145  0.6370  1.1835
 1425TIP3   OH225689   3.098   4.140  14.611 -0.3110  0.0866  0.6055
 1425TIP3    H125690   3.152   4.061  14.606 -0.5486 -0.2369  2.5996
 1425TIP3    H225691   3.017   4.117  14.566  0.7460  0.1870 -1.3899
 1426TIP3   OH225692   7.055   1.838  10.687 -0.6165 -0.0915 -0.3851
 1426TIP3    H125693   6.977   1.793  10.654 -0.6239  0.0953 -0.6244
 1426TIP3    H225694   7.126   1.775  10.675 -0.8242 -0.4664  0.3339
 1427TIP3   OH225695   2.626   3.567  10.628 -0.0205  0.4747  0.0078
 1427TIP3    H125696   2.707   3.609  10.658  0.4286  0.4713 -1.1786
 1427TIP3    H225697   2.608   3.608  10.543 -1.8881  1.2961  0.7766
 1428TIP3   OH225698   6.015   1.002  12.379 -0.0423  0.0330  0.2877
 1428TIP3    H125699   5.949   0.945  12.419 -1.4715  1.3277 -0.1814
 1428TIP3    H225700   6.093   0.990  12.433 -0.3743 -2.2228  0.3052
 1429TIP3   OH225701   0.806   7.056  12.511 -0.5623  0.0073  0.7623
 1429TIP3    H125702   0.804   7.119  12.440  2.6493  0.5545  1.0609
 1429TIP3    H225703   0.826   6.972  12.469 -0.6142 -0.0208  0.7932
 1430TIP3   OH225704   1.356   4.583  10.651 -0.5333  0.0926  0.2666
 1430TIP3    H125705   1.293   4.609  10.583 -0.6875 -0.5172  0.1780
 1430TIP3    H225706   1.439   4.573  10.604 -0.5836 -0.0781  0.2162
 1431TIP3   OH225707   4.464   3.043  10.360  0.4733 -0.3070  0.6255
 1431TIP3    H125708   4.414   3.114  10.399 -0.7098 -0.9453  0.2961
 1431TIP3    H225709   4.555   3.061  10.383  0.4471  2.4788 -1.2314
 1432TIP3   OH225710   3.871   0.804  10.273  0.2494  0.1122  0.4180
 1432TIP3    H125711   3.826   0.881  10.237 -0.6988 -0.3685  0.5454
 1432TIP3    H225712   3.897   0.754  10.196  0.5317  0.3724  0.3428
 1433TIP3   OH225713   3.484   3.061   9.828  0.4401  0.8778 -0.2975
 1433TIP3    H125714   3.569   3.053   9.871 -0.9481  0.1928  2.4722
 1433TIP3    H225715   3.475   2.982   9.776  0.8894  0.2474  0.5735
 1434TIP3   OH225716   4.265   2.877  11.461  0.1072  0.2958  0.1434
 1434TIP3    H125717   4.192   2.829  11.502  0.3443  0.9154  1.3037
 1434TIP3    H225718   4.308   2.922  11.533  1.2140  0.5231 -0.6426
 1435TIP3   OH225719   2.121   3.823  13.327 -0.6158  0.8792  0.7674
 1435TIP3    H125720   2.070   3.744  13.308  0.2368  0.2596  1.0115
 1435TIP3    H225721   2.160   3.847  13.243 -0.4300  0.7197  0.8072
 1436TIP3   OH225722   5.148   2.797  10.204  0.2815 -0.2149  0.1629
 1436TIP3    H125723   5.236   2.761  10.218 -0.3923 -2.0925 -0.1752
 1436TIP3    H225724   5.099   2.769  10.281 -0.8246 -1.9350 -1.1191
 1437TIP3   OH225725   4.790   3.809  11.643  0.2162  0.2849  0.4360
 1437TIP3    H125726   4.817   3.899  11.660 -2.2062  1.3941 -1.3448
 1437TIP3    H225727   4.715   3.795  11.701  0.8329 -0.7578  1.0090
 1438TIP3   OH225728   3.389   2.246   9.970  0.7055 -0.1311 -0.2267
 1438TIP3    H125729   3.383   2.174   9.907  1.3294 -1.0725  0.7612
 1438TIP3    H225730   3.482   2.265   9.976  0.4410  1.5771 -1.3687
 1439TIP3   OH225731   2.982   2.984  11.083  0.5307  0.2182 -0.0715
 1439TIP3    H125732   2.904   3.039  11.071 -0.0321 -0.8789 -1.6281
 1439TIP3    H225733   3.050   3.045  11.110 -0.1487  1.6782 -1.5345
 1440TIP3   OH225734   1.022   3.191  11.646  0.0956 -0.3778  0.9083
 1440TIP3    H125735   0.995   3.279  11.622 -1.6580 -0.6766  1.6728
 1440TIP3    H225736   0.985   3.178  11.734  1.9415 -1.1850  1.5806
 1441TIP3   OH225737   5.155   3.701  12.159  0.0946  0.9647 -0.4378
 1441TIP3    H125738   5.087   3.661  12.104  0.7369 -1.8406  0.6773
 1441TIP3    H225739   5.194   3.769  12.105 -0.8585 -0.1733 -2.5955
 1442TIP3   OH225740   4.230   5.910  12.201 -0.0638 -0.1717 -0.4666
 1442TIP3    H125741   4.320   5.927  12.229  0.2717  0.0659 -1.6533
 1442TIP3    H225742   4.177   5.973  12.250  0.2825 -1.0980  1.1111
 1443TIP3   OH225743   1.326   1.354  11.663  0.1795 -0.5667  0.0613
 1443TIP3    H125744   1.402   1.305  11.633 -0.1547  0.6925 -2.9995
 1443TIP3    H225745   1.362   1.419  11.723  1.0438 -2.2111  1.3731
 1444TIP3   OH225746   4.480   5.982  11.837 -0.0212 -0.2174 -0.2371
 1444TIP3    H125747   4.536   6.013  11.765 -0.5463 -1.1155 -1.0306
 1444TIP3    H225748   4.401   6.036  11.830 -0.0948 -0.3430 -0.3645
 1445TIP3   OH225749   1.662   6.677  13.371 -0.3066 -0.3874 -0.0120
 1445TIP3    H125750   1.680   6.730  13.293 -0.8697  1.9104  1.3699
 1445TIP3    H225751   1.567   6.669  13.374 -0.2899 -0.4736  0.4203
 1446TIP3   OH225752   2.034   2.347  15.648 -0.0038  0.4884  0.0161
 1446TIP3    H125753   2.022   2.362  15.742  2.8628 -0.2361  0.5527
 1446TIP3    H225754   2.121   2.382  15.629  0.1300 -0.8675 -2.0399
 1447TIP3   OH225755   3.755   2.938  12.496 -0.4081  0.2595 -0.2741
 1447TIP3    H125756   3.829   2.883  12.523 -0.1771  0.8472  0.3030
 1447TIP3    H225757   3.765   2.946  12.402  1.2980  1.8121  0.0108
 1448TIP3   OH225758   3.356   6.961  11.434  0.6428 -0.2924 -0.0284
 1448TIP3    H125759   3.357   6.933  11.342  0.3823  2.1445 -0.8138
 1448TIP3    H225760   3.263   6.961  11.458  0.7649 -1.6015  0.4590
 1449TIP3   OH225761   1.769   2.020  10.290 -0.6413  0.0127 -0.6656
 1449TIP3    H125762   1.677   2.021  10.266 -0.6522  0.8742 -0.5922
 1449TIP3    H225763   1.813   2.068  10.219 -0.1965 -0.7320 -0.9027
 1450TIP3   OH225764   2.406   1.814  13.006  0.4146  0.6151 -0.6489
 1450TIP3    H125765   2.344   1.748  13.035  0.4831  0.9282  0.2201
 1450TIP3    H225766   2.457   1.771  12.937 -1.4010  0.6649 -2.0488
 1451TIP3   OH225767   0.592   2.602  11.736 -0.1638  0.0881  0.0486
 1451TIP3    H125768   0.590   2.520  11.787  0.5430 -0.2800 -0.5017
 1451TIP3    H225769   0.679   2.639  11.755  0.8458 -0.9645 -2.2832
 1452TIP3   OH225770   1.534   5.939  10.276  0.1951  0.2856  0.0384
 1452TIP3    H125771   1.596   5.997  10.321  1.2376  0.3814 -1.4818
 1452TIP3    H225772   1.580   5.855  10.269 -0.2422  0.0610 -0.1971
 1453TIP3   OH225773   2.640   4.633  10.089  0.1279 -0.5178  0.0199
 1453TIP3    H125774   2.641   4.720  10.048 -0.4147 -0.1082  0.8622
 1453TIP3    H225775   2.668   4.574  10.020 -2.9082 -0.1187 -1.6493
 1454TIP3   OH225776   2.190   1.000  12.979 -0.2688 -0.2272 -0.1303
 1454TIP3    H125777   2.108   1.028  13.019  0.6737  0.3285  1.5152
 1454TIP3    H225778   2.165   0.945  12.905 -2.1090  0.3789  0.0388
 1455TIP3   OH225779   6.179   2.286  11.758 -0.4823 -0.0417 -0.6918
 1455TIP3    H125780   6.115   2.215  11.757 -2.9536  2.1154  0.3683
 1455TIP3    H225781   6.194   2.306  11.665 -1.3779 -0.4909 -0.9337
 1456TIP3   OH225782   3.622   3.664   0.168  0.4164 -0.0022  0.2665
 1456TIP3    H125783   3.614   3.733   0.102  0.4817 -0.4347 -0.1968
 1456TIP3    H225784   3.597   3.707   0.250  0.0916  0.4748 -0.0757
 1457TIP3   OH225785   2.926   3.006  13.693  0.2476 -0.4435  0.1714
 1457TIP3    H125786   2.926   2.911  13.705  2.8518 -0.2176  2.6407
 1457TIP3    H225787   3.008   3.024  13.647 -1.0285  0.4934 -1.8013
 1458TIP3   OH225788   4.230   2.765  11.110  0.2024 -0.0492  0.3724
 1458TIP3    H125789   4.237   2.859  11.127 -0.8992  0.0911  0.0972
 1458TIP3    H225790   4.137   2.745  11.125 -0.1433 -0.5559 -2.2920
 1459TIP3   OH225791   4.502   1.671  11.349 -0.4366 -0.1215 -0.0138
 1459TIP3    H125792   4.596   1.653  11.335 -0.1806  1.8563 -0.9468
 1459TIP3    H225793   4.460   1.639  11.269 -0.1777  1.8351 -0.9488
 1460TIP3   OH225794   6.906   4.385  12.483  0.4603 -0.4193 -0.0486
 1460TIP3    H125795   6.827   4.334  12.503  1.1120 -0.4660  2.5526
 1460TIP3    H225796   6.884   4.474  12.510  0.3502  0.1311 -1.8941
 1461TIP3   OH225797   2.848   1.794  12.077  0.5530  0.2961  0.4039
 1461TIP3    H125798   2.870   1.857  12.008 -1.0088  1.3035  0.7911
 1461TIP3    H225799   2.862   1.843  12.159  0.3616 -0.2091  0.7415
 1462TIP3   OH225800   1.991   2.678  10.291 -0.2062  0.4450 -0.4384
 1462TIP3    H125801   1.963   2.620  10.362 -0.1119  1.0531  0.1081
 1462TIP3    H225802   2.052   2.739  10.333  0.0058  0.6814 -1.0869
 1463TIP3   OH225803   5.284   5.006  12.463  0.1222 -0.2735 -0.4657
 1463TIP3    H125804   5.377   4.984  12.456  0.1994  0.4583 -2.0231
 1463TIP3    H225805   5.282   5.100  12.476 -0.3845 -0.3991  0.3951
 1464TIP3   OH225806   3.643   0.280  11.515 -0.2940 -1.0865 -0.2002
 1464TIP3    H125807   3.693   0.254  11.592  0.2088  0.6760  0.0896
 1464TIP3    H225808   3.556   0.242  11.528 -0.5077  0.0259  1.6956
 1465TIP3   OH225809   1.499   1.718  10.464 -0.4828  0.4317  0.0254
 1465TIP3    H125810   1.548   1.779  10.519 -1.1861  1.0564 -0.0396
 1465TIP3    H225811   1.462   1.772  10.394  0.0587 -0.2833 -0.8349
 1466TIP3   OH225812   3.725   0.700  10.472  0.1173  0.1615 -0.2548
 1466TIP3    H125813   3.758   0.723  10.385 -0.8459 -2.4945 -1.3946
 1466TIP3    H225814   3.631   0.689  10.459 -0.1019  0.1832  1.2462
 1467TIP3   OH225815   3.151   1.690  14.089  0.0608  0.0851 -0.0106
 1467TIP3    H125816   3.149   1.734  14.173  2.4705 -1.4178  0.8860
 1467TIP3    H225817   3.085   1.735  14.036 -0.3948  2.0328  2.1625
 1468TIP3   OH225818   2.772   6.817  12.242  0.0315 -0.0047  0.1445
 1468TIP3    H125819   2.847   6.870  12.269 -0.0139  0.1475 -0.0299
 1468TIP3    H225820   2.719   6.875  12.189  0.1688 -0.3353 -0.3608
 1469TIP3   OH225821   2.819   0.703  11.458  0.0465  0.5563  0.2600
 1469TIP3    H125822   2.827   0.610  11.438 -1.0163  0.4525  0.2513
 1469TIP3    H225823   2.875   0.717  11.535  1.3401  0.2189 -0.6093
 1470TIP3   OH225824   3.429   3.008  10.468  0.2048 -0.2988 -0.3555
 1470TIP3    H125825   3.465   2.967  10.390  0.6899 -0.0502 -0.2603
 1470TIP3    H225826   3.377   3.082  10.434  1.3109  0.4733 -0.3772
 1471TIP3   OH225827   2.247   1.760  10.485 -0.1507 -0.0753  0.0447
 1471TIP3    H125828   2.222   1.813  10.409  1.0333  0.2672 -0.1014
 1471TIP3    H225829   2.216   1.672  10.462  0.6461 -0.0806 -1.0631
 1472TIP3   OH225830   2.603   1.318  10.011  0.4684  0.2469 -0.4097
 1472TIP3    H125831   2.690   1.350  10.033  0.3452 -0.4628  1.1857
 1472TIP3    H225832   2.543   1.372  10.063  0.0201  0.0134 -0.6740
 1473TIP3   OH225833   0.718   4.696  12.286  0.0175 -0.1369 -0.5435
 1473TIP3    H125834   0.645   4.752  12.260 -0.9340 -2.0068 -2.0316
 1473TIP3    H225835   0.773   4.691  12.207  1.1255  0.2803  0.1932
 1474TIP3   OH225836   4.791   2.491  12.632  0.0777 -0.2810 -0.0063
 1474TIP3    H125837   4.800   2.490  12.537  0.1723  0.4134 -0.0101
 1474TIP3    H225838   4.723   2.557  12.649  0.4128 -0.0421  0.4277
 1475TIP3   OH225839   4.765   5.224  12.669 -0.2244 -0.2295  0.3378
 1475TIP3    H125840   4.791   5.251  12.581  0.9067 -1.2525  0.3475
 1475TIP3    H225841   4.792   5.296  12.726 -1.4040  0.6617 -0.1856
 1476TIP3   OH225842   2.913   5.506  11.328 -0.2134 -0.0421 -0.0502
 1476TIP3    H125843   2.835   5.475  11.282 -0.4730  0.7363 -0.1446
 1476TIP3    H225844   2.899   5.483  11.420 -2.0687  2.9810  0.4957
 1477TIP3   OH225845   1.599   3.488  12.682  0.3945 -0.4607 -0.2770
 1477TIP3    H125846   1.614   3.561  12.742  0.2013 -0.3329 -0.3823
 1477TIP3    H225847   1.668   3.425  12.702  0.4182 -0.3533 -0.0217
 1478TIP3   OH225848   4.994   1.721  12.971  1.0244  0.3996  0.5438
 1478TIP3    H125849   4.997   1.711  13.066  0.4665  0.5579  0.5813
 1478TIP3    H225850   5.028   1.638  12.937  0.2313 -0.0686  0.8741
 1479TIP3   OH225851   3.859   6.099  10.981 -0.3523  0.0914  0.2661
 1479TIP3    H125852   3.763   6.104  10.989 -0.5009 -0.4069 -0.9986
 1479TIP3    H225853   3.878   6.146  10.900  0.6681  1.7527  1.4415
 1480TIP3   OH225854   3.124   1.966  11.815  0.1985  0.5577  0.4558
 1480TIP3    H125855   3.054   1.912  11.851  0.5432  0.3582  0.8255
 1480TIP3    H225856   3.110   1.964  11.720 -0.5534  0.8704  0.5582
 1481TIP3   OH225857   5.635   1.511  12.487  0.1832 -0.5282  0.0742
 1481TIP3    H125858   5.573   1.481  12.553  1.6020 -0.8285  1.3054
 1481TIP3    H225859   5.610   1.464  12.407 -0.2039 -1.8247  0.9355
 1482TIP3   OH225860   3.585   6.255  10.912 -0.2559 -0.2280 -0.2067
 1482TIP3    H125861   3.568   6.250  10.818  0.1014 -1.9236 -0.1851
 1482TIP3    H225862   3.589   6.164  10.941  2.1038  0.2222  1.0112
 1483TIP3   OH225863   0.103   2.554  10.736 -0.1345 -0.2036 -0.6665
 1483TIP3    H125864   0.168   2.582  10.671 -1.5971  1.6415 -1.3825
 1483TIP3    H225865   0.036   2.622  10.734 -0.7816 -0.7105  1.9858
 1484TIP3   OH225866   6.296   2.864  10.211  0.0133 -0.1170  0.2290
 1484TIP3    H125867   6.350   2.870  10.133  1.1212 -0.5473  0.9490
 1484TIP3    H225868   6.206   2.864  10.178  0.4670 -0.2780 -1.0388
 1485TIP3   OH225869   5.127   0.291  11.783 -0.2903 -0.3908 -0.0676
 1485TIP3    H125870   5.035   0.308  11.802 -0.1823 -1.2433  1.2835
 1485TIP3    H225871   5.166   0.271  11.868  1.3896  1.0641 -0.4558
 1486TIP3   OH225872   2.983   0.968  10.132  0.7961  0.2540 -0.4370
 1486TIP3    H125873   2.941   1.026  10.069 -1.8034 -1.0661  0.0184
 1486TIP3    H225874   3.058   0.931  10.085  1.1270  2.1798 -1.4693
 1487TIP3   OH225875   4.148   0.801  10.775  0.3326 -0.3209  0.1091
 1487TIP3    H125876   4.139   0.852  10.856 -0.2731 -1.2020  0.6074
 1487TIP3    H225877   4.066   0.817  10.727  0.0630 -0.9380  0.3474
 1488TIP3   OH225878   7.078   3.359  10.593  0.0066  0.3921  0.2647
 1488TIP3    H125879   7.028   3.335  10.671 -1.7722 -0.0718 -1.0004
 1488TIP3    H225880   7.112   3.276  10.560 -2.1651  0.1300 -1.4084
 1489TIP3   OH225881   4.397   1.551  11.089  0.6306 -0.0613  0.5806
 1489TIP3    H125882   4.448   1.546  11.008 -1.3013 -0.6807 -0.6109
 1489TIP3    H225883   4.384   1.459  11.115  0.5021  0.1084  1.1262
 1490TIP3   OH225884   6.559   1.678  11.016 -0.2976 -0.2502 -0.3977
 1490TIP3    H125885   6.580   1.602  11.071 -1.0734 -1.7998 -2.1593
 1490TIP3    H225886   6.468   1.698  11.037 -0.2434 -0.1250 -0.2837
 1491TIP3   OH225887   5.769   1.451  10.607  0.0400 -0.1126 -0.0922
 1491TIP3    H125888   5.862   1.464  10.589  0.3521  1.7959  2.5996
 1491TIP3    H225889   5.724   1.498  10.537  1.1454  0.1500 -0.6308
 1492TIP3   OH225890   5.290   4.720  11.414 -0.2756  0.3107  0.3948
 1492TIP3    H125891   5.198   4.700  11.436  0.3259 -1.3500  1.5295
 1492TIP3    H225892   5.341   4.670  11.478  1.4400  1.1959 -0.2440
 1493TIP3   OH225893   5.452   1.854  10.827  0.3139 -0.6497 -0.3538
 1493TIP3    H125894   5.489   1.937  10.795 -0.4402 -0.9146 -1.9321
 1493TIP3    H225895   5.513   1.826  10.896  0.9049  0.9088 -0.2202
 1494TIP3   OH225896   5.570   1.271  10.615  0.2226 -0.3138  0.1420
 1494TIP3    H125897   5.635   1.340  10.614  1.1932 -1.2204 -0.9564
 1494TIP3    H225898   5.557   1.248  10.523  0.0685 -1.7164  0.4937
 1495TIP3   OH225899   2.404   2.025  12.509  0.3448  1.0253  0.0853
 1495TIP3    H125900   2.333   1.967  12.480 -0.3509  1.6808  0.4531
 1495TIP3    H225901   2.458   1.970  12.566  0.5617  0.3078 -0.7928
 1496TIP3   OH225902   5.394   1.689  11.518 -0.0759 -0.6083  0.7373
 1496TIP3    H125903   5.431   1.731  11.440  0.5956  0.3666  1.5622
 1496TIP3    H225904   5.434   1.602  11.520  1.1644 -0.0473  0.8715
 1497TIP3   OH225905   2.384   3.253  11.842  0.2323 -0.2714 -0.5198
 1497TIP3    H125906   2.380   3.314  11.769 -0.2807 -0.0491 -0.3074
 1497TIP3    H225907   2.468   3.208  11.831 -0.0992 -0.6282 -1.5474
 1498TIP3   OH225908   4.535   3.497   9.995 -0.2467 -1.4431  0.4348
 1498TIP3    H125909   4.446   3.531   9.987  0.2382 -0.4087 -0.6919
 1498TIP3    H225910   4.535   3.450  10.078 -1.0620  0.9760  1.8543
 1499TIP3   OH225911   4.600   1.792  10.365  0.1452  0.1542 -0.3156
 1499TIP3    H125912   4.556   1.727  10.310  0.0501 -0.7171  0.7529
 1499TIP3    H225913   4.529   1.838  10.410  0.2798 -1.3202  1.4844
 1500TIP3   OH225914   4.743   5.578  12.502  0.0043 -0.1416 -0.4916
 1500TIP3    H125915   4.755   5.670  12.479  0.4088 -0.0371  0.1136
 1500TIP3    H225916   4.826   5.553  12.544 -0.1555 -0.7436 -0.5312
 1501TIP3   OH225917   3.774   0.036  10.402 -0.2977 -0.0139  0.3530
 1501TIP3    H125918   3.859   0.038  10.446  0.7639  0.3912 -1.6563
 1501TIP3    H225919   3.741   0.126  10.409 -0.4095 -0.0910  0.8340
 1502TIP3   OH225920   2.968   0.218  13.329  0.4948  1.0051  0.5845
 1502TIP3    H125921   2.915   0.141  13.308 -1.8551  2.2186  1.8805
 1502TIP3    H225922   3.039   0.216  13.265 -0.1955 -1.5503 -0.1784
 1503TIP3   OH225923   3.673   4.283  10.014 -0.1571  0.3581 -0.3364
 1503TIP3    H125924   3.617   4.306  10.088  0.1080 -0.0573 -0.0040
 1503TIP3    H225925   3.703   4.367   9.979  0.2948  0.5452  0.4760
 1504TIP3   OH225926   7.234   1.390  11.091 -0.3469 -0.0463  0.3769
 1504TIP3    H125927   7.324   1.383  11.123  0.0863  1.2889 -0.4816
 1504TIP3    H225928   7.237   1.356  11.002 -0.5431  0.5838  0.1226
 1505TIP3   OH225929   0.871   3.892  15.118  0.0843  0.2327  0.3966
 1505TIP3    H125930   0.905   3.979  15.095  1.4928 -0.0942  1.1605
 1505TIP3    H225931   0.913   3.833  15.056  0.5066 -0.1129  1.0038
 1506TIP3   OH225932   4.911   0.397  11.488  0.1074  0.1945  0.1573
 1506TIP3    H125933   4.909   0.360  11.399 -0.1407  1.5322 -0.4079
 1506TIP3    H225934   5.004   0.405  11.509  0.1702  0.0970 -0.0860
 1507TIP3   OH225935   4.420   5.423  10.718 -0.4254  0.0579 -0.2506
 1507TIP3    H125936   4.430   5.350  10.658  0.4387  0.9676 -1.2242
 1507TIP3    H225937   4.372   5.386  10.792 -2.0170 -0.9237 -1.7378
 1508TIP3   OH225938   4.090   4.054  11.367  0.4716 -0.5305 -0.2226
 1508TIP3    H125939   4.013   4.111  11.373  1.2323  0.8808 -2.9376
 1508TIP3    H225940   4.136   4.066  11.450  0.1331  2.1813 -0.3736
 1509TIP3   OH225941   0.803   2.916  11.093 -0.2263 -0.2557  0.2254
 1509TIP3    H125942   0.796   3.002  11.134 -0.3138 -0.3011  0.3061
 1509TIP3    H225943   0.724   2.909  11.039 -1.1823 -1.0677  1.6983
 1510TIP3   OH225944   2.672   0.808  14.337  0.8485 -0.0491 -0.6011
 1510TIP3    H125945   2.641   0.798  14.427 -0.4037 -2.0937 -1.2252
 1510TIP3    H225946   2.762   0.774  14.339  1.8523  2.5826  0.4561
 1511TIP3   OH225947   6.637   2.024  10.227 -0.3501  0.2870 -0.0916
 1511TIP3    H125948   6.657   2.027  10.133  1.2936  2.2022  0.2744
 1511TIP3    H225949   6.551   2.065  10.235 -0.4459  0.2180 -0.7453
 1512TIP3   OH225950   4.660   1.170  11.362  0.2538  0.4785  0.2530
 1512TIP3    H125951   4.595   1.118  11.315 -0.0874 -0.7200  2.0116
 1512TIP3    H225952   4.727   1.106  11.387 -0.2153  0.8341  2.5226
 1513TIP3   OH225953   3.691   2.200  10.054 -0.0274  0.6530 -0.0649
 1513TIP3    H125954   3.758   2.133  10.043 -0.9893 -0.0781 -1.7115
 1513TIP3    H225955   3.687   2.244   9.970  0.5934  2.8219  1.0071
 1514TIP3   OH225956   4.379   4.276  10.249  0.5757 -0.3046  0.0649
 1514TIP3    H125957   4.444   4.244  10.188  0.7691 -0.1174  0.1725
 1514TIP3    H225958   4.410   4.363  10.275  0.5799 -0.4446  0.5448
 1515TIP3   OH225959   4.430   3.044   9.816  0.6710  0.0399 -0.6561
 1515TIP3    H125960   4.358   2.988   9.787 -1.5971  3.0449 -1.0274
 1515TIP3    H225961   4.407   3.068   9.905 -0.5233  3.5635 -1.8143
 1516TIP3   OH225962   7.292   2.886  11.944 -0.1088  0.4913 -0.7519
 1516TIP3    H125963   7.255   2.832  12.014  1.1314 -1.6761 -1.6990
 1516TIP3    H225964   7.343   2.953  11.989 -0.8136  0.2305  0.4470
 1517TIP3   OH225965   6.459   4.410  11.692 -0.2758 -0.2700 -0.0580
 1517TIP3    H125966   6.386   4.418  11.754  2.0453 -0.6742  2.8209
 1517TIP3    H225967   6.518   4.481  11.715  0.6650 -0.4518 -1.8207
 1518TIP3   OH225968   4.824   5.725  11.179 -0.1008 -0.0639  0.7844
 1518TIP3    H125969   4.891   5.687  11.236  0.5890  2.7733  1.9166
 1518TIP3    H225970   4.863   5.725  11.092 -0.3547 -2.4603  0.6305
 1519TIP3   OH225971   5.106   3.886  13.831 -0.2779  0.1802 -0.9166
 1519TIP3    H125972   5.174   3.833  13.875  1.1509  2.1539 -0.7022
 1519TIP3    H225973   5.024   3.843  13.855  0.7105 -0.7240  0.9633
 1520TIP3   OH225974   4.527   3.136  10.868 -0.2822  0.0495  0.1076
 1520TIP3    H125975   4.550   3.055  10.822  0.1509 -0.7709  1.7558
 1520TIP3    H225976   4.443   3.161  10.830 -0.2242 -0.9325 -0.7123
 1521TIP3   OH225977   4.716   3.032  10.166 -0.2289  0.0122 -0.0581
 1521TIP3    H125978   4.684   2.948  10.132 -1.3858 -0.3401  1.8381
 1521TIP3    H225979   4.672   3.098  10.113  0.8874 -0.5368 -1.7452
 1522TIP3   OH225980   4.571   3.047  12.843 -0.3022 -0.3928  0.0069
 1522TIP3    H125981   4.583   3.076  12.933  0.4681 -0.4788 -0.0672
 1522TIP3    H225982   4.522   3.118  12.801  2.5117  1.3176 -0.4679
 1523TIP3   OH225983   1.952   1.401  13.369 -0.0896 -0.2263  0.2586
 1523TIP3    H125984   2.029   1.453  13.391  0.9333 -1.9297  0.8432
 1523TIP3    H225985   1.987   1.314  13.347 -1.7198 -0.5964 -0.9744
 1524TIP3   OH225986   3.732   2.376  12.873  0.3465 -0.0229  0.1012
 1524TIP3    H125987   3.685   2.309  12.923 -0.4846  0.9106  0.5682
 1524TIP3    H225988   3.682   2.385  12.792 -0.0005  0.6204  0.3883
 1525TIP3   OH225989   3.141   4.648  13.227  0.2938 -0.0534 -0.7120
 1525TIP3    H125990   3.152   4.740  13.253 -2.5565 -0.0373  0.6509
 1525TIP3    H225991   3.067   4.649  13.166  0.0763 -1.4705 -0.4884
 1526TIP3   OH225992   4.422   4.346  11.366 -0.0193 -0.7004 -0.1815
 1526TIP3    H125993   4.345   4.370  11.315  0.9062  0.0382 -1.2436
 1526TIP3    H225994   4.386   4.307  11.446 -1.5065  0.3365 -0.3235
 1527TIP3   OH225995   5.728   6.851  11.109 -0.6827  0.1140  0.5387
 1527TIP3    H125996   5.761   6.841  11.020  1.3886  0.5922  1.2215
 1527TIP3    H225997   5.679   6.933  11.108 -2.4724 -0.9379 -0.6541
 1528TIP3   OH225998   0.257   5.040  11.045 -0.7949 -0.5303  0.3495
 1528TIP3    H125999   0.321   4.969  11.040  0.7367  0.7816  0.9078
 1528TIP3    H226000   0.173   4.995  11.058 -0.0835 -2.3041 -0.9022
 1529TIP3   OH226001   4.523   3.889  10.587 -0.0690 -0.1381 -0.3781
 1529TIP3    H126002   4.591   3.823  10.596 -0.8906 -1.1287 -1.3135
 1529TIP3    H226003   4.465   3.855  10.519 -2.7873 -0.4176  2.0206
 1530TIP3   OH226004   5.894   4.643  10.911 -0.2622  0.0495 -0.3999
 1530TIP3    H126005   5.928   4.652  10.822  0.8033  0.7429  0.0569
 1530TIP3    H226006   5.957   4.586  10.955 -0.9750 -0.5799 -0.1813
 1531TIP3   OH226007   2.763   4.188  12.753  0.2479  0.1442 -0.3177
 1531TIP3    H126008   2.828   4.131  12.712 -0.5590 -1.8859  1.1596
 1531TIP3    H226009   2.749   4.151  12.840 -0.9375  2.1117  0.3683
 1532TIP3   OH226010   5.630   1.517  11.667 -0.0466 -0.2593  0.2194
 1532TIP3    H126011   5.625   1.461  11.589  0.0203 -1.4201  1.0246
 1532TIP3    H226012   5.588   1.465  11.735 -0.0417  0.7214  0.9733
 1533TIP3   OH226013   3.719   3.085   9.952  0.0251  0.3671  0.4739
 1533TIP3    H126014   3.789   3.024   9.976  0.4474 -0.4185 -2.5936
 1533TIP3    H226015   3.762   3.171   9.949  0.1878  0.3276  1.4471
 1534TIP3   OH226016   2.930   1.360  11.872 -0.9080  0.1600 -0.7637
 1534TIP3    H126017   2.979   1.305  11.811  0.8216  0.2572  0.4963
 1534TIP3    H226018   2.949   1.324  11.958  1.2525  3.3754  0.2284
 1535TIP3   OH226019   3.134   1.057  12.938 -0.4548 -0.1859 -0.3640
 1535TIP3    H126020   3.086   0.979  12.966  0.6073 -0.4600  0.7813
 1535TIP3    H226021   3.208   1.022  12.888  0.1804  0.0427  0.3872
 1536TIP3   OH226022   6.829   6.618  12.405  0.0708 -0.2111 -0.3713
 1536TIP3    H126023   6.885   6.546  12.375  0.7582 -0.4092  1.2960
 1536TIP3    H226024   6.744   6.578  12.421 -0.1068 -0.2394 -1.3801
 1537TIP3   OH226025   5.152   3.585  11.476  0.4146 -0.6433 -0.5088
 1537TIP3    H126026   5.133   3.583  11.382 -0.9907 -1.0459 -0.2301
 1537TIP3    H226027   5.099   3.514  11.513  0.0788  0.2385  0.7375
 1538TIP3   OH226028   6.052   2.593  15.897  0.6300  0.1989 -0.2131
 1538TIP3    H126029   6.016   2.598  15.986 -0.2759 -0.4884 -0.5322
 1538TIP3    H226030   6.012   2.515  15.859  3.2257 -1.1630 -0.2737
 1539TIP3   OH226031   5.096   0.280  10.160 -0.3349  0.0739 -0.0199
 1539TIP3    H126032   5.017   0.244  10.200 -0.1965 -1.0336 -0.7274
 1539TIP3    H226033   5.125   0.213  10.098 -0.1573  1.4538 -1.4689
 1540TIP3   OH226034   3.786   1.987  13.118 -0.4695 -0.0563  0.1837
 1540TIP3    H126035   3.786   1.922  13.047 -2.0997 -0.2404  0.3353
 1540TIP3    H226036   3.878   2.010  13.129 -0.1886 -0.0895 -1.9396
 1541TIP3   OH226037   4.192   5.110   9.914 -0.2956 -0.1117  0.4006
 1541TIP3    H126038   4.247   5.062   9.976  0.6481  0.8286  0.3076
 1541TIP3    H226039   4.129   5.156   9.970 -0.0869 -0.0605  0.5937
 1542TIP3   OH226040   4.005   2.153  13.128 -0.2654  0.0503 -0.5136
 1542TIP3    H126041   4.099   2.167  13.120 -0.4116  0.3094 -1.9577
 1542TIP3    H226042   3.965   2.235  13.099 -0.9280  0.0657  0.4246
 1543TIP3   OH226043   4.721   3.666  10.691  0.2196  0.4499 -0.3493
 1543TIP3    H126044   4.775   3.733  10.733 -0.0831 -0.2707  1.2225
 1543TIP3    H226045   4.782   3.613  10.641  1.1103 -0.8135  1.9990
 1544TIP3   OH226046   3.302   2.477  12.160  0.3465  0.1206 -0.0134
 1544TIP3    H126047   3.349   2.550  12.119  0.8950  0.1243  0.5948
 1544TIP3    H226048   3.306   2.406  12.096  1.2314  0.1090  0.0462
 1545TIP3   OH226049   5.466   0.466  12.748  0.3222  0.1623  0.0189
 1545TIP3    H126050   5.491   0.543  12.697  0.5875  0.4039  0.5165
 1545TIP3    H226051   5.420   0.410  12.685  0.2852  0.6448 -0.3870
 1546TIP3   OH226052   2.582   1.424  13.465 -0.1185  0.7555  0.0663
 1546TIP3    H126053   2.523   1.358  13.429  0.7871  0.6383 -1.2381
 1546TIP3    H226054   2.549   1.507  13.430  0.8277  0.6307 -1.1652
 1547TIP3   OH226055   2.963   6.558   9.882  0.0603  0.4206 -0.8398
 1547TIP3    H126056   2.909   6.484   9.910  0.6150  1.1332  2.3145
 1547TIP3    H226057   2.905   6.634   9.888  0.8362  0.9131  0.7113
 1548TIP3   OH226058   3.916   0.833  10.601 -0.4329  0.1917 -0.1955
 1548TIP3    H126059   3.846   0.779  10.565 -0.0607 -0.8120  0.5391
 1548TIP3    H226060   3.914   0.913  10.550 -2.0345  0.1231 -0.2768
 1549TIP3   OH226061   5.087   4.516  10.006  0.1097 -0.0167 -0.2447
 1549TIP3    H126062   5.011   4.570   9.983  0.2415  0.2568 -0.0497
 1549TIP3    H226063   5.162   4.567   9.978  0.1598 -1.4209 -2.7708
 1550TIP3   OH226064   6.491   6.620  10.971  0.0844 -0.0783 -0.7271
 1550TIP3    H126065   6.527   6.635  10.884 -1.1008 -0.0655 -1.2182
 1550TIP3    H226066   6.481   6.525  10.978  2.1910 -0.2651  0.2187
 1551TIP3   OH226067   0.169   4.447  10.999 -0.4635  0.4533  0.4721
 1551TIP3    H126068   0.151   4.539  11.019 -2.0962 -0.3056  2.6605
 1551TIP3    H226069   0.227   4.418  11.070 -0.5912 -0.4130  0.2257
 1552TIP3   OH226070   5.859   3.017  10.738 -0.0857  0.0587 -0.2817
 1552TIP3    H126071   5.797   2.951  10.771  1.7616 -1.4598  0.2409
 1552TIP3    H226072   5.870   2.995  10.645 -0.7873  0.7193 -0.5306
 1553TIP3   OH226073   3.868   0.270  11.250 -0.2546  0.0338  0.0257
 1553TIP3    H126074   3.784   0.305  11.280  0.1594 -0.4358  1.7590
 1553TIP3    H226075   3.845   0.192  11.199 -0.9260  0.4488 -0.3106
 1554TIP3   OH226076   4.061   6.017  11.541 -0.1431 -0.4256 -0.3022
 1554TIP3    H126077   4.092   5.942  11.491  1.1031  0.6094 -1.1254
 1554TIP3    H226078   4.073   5.992  11.633  0.0185 -1.3236 -0.5620
 1555TIP3   OH226079   4.343   1.827  11.909 -1.1647  0.5982 -0.0390
 1555TIP3    H126080   4.425   1.803  11.954 -1.9542 -0.7924  0.7012
 1555TIP3    H226081   4.371   1.854  11.822  0.1663  0.9387  0.4760
 1556TIP3   OH226082   4.481   1.476  10.819  0.0762 -0.1912 -0.0380
 1556TIP3    H126083   4.504   1.566  10.793  0.8360 -1.0317 -2.3742
 1556TIP3    H226084   4.390   1.466  10.791  0.6465 -0.8291 -1.7307
 1557TIP3   OH226085   2.189   2.446  14.552 -0.6161 -0.8770 -0.0170
 1557TIP3    H126086   2.105   2.490  14.536  0.5759  0.9579 -1.3476
 1557TIP3    H226087   2.187   2.424  14.645 -1.3789  1.7103  0.6112
 1558TIP3   OH226088   4.377   0.406  11.385 -0.5410 -0.0886  0.0912
 1558TIP3    H126089   4.452   0.357  11.420 -1.2153 -0.6509  0.7531
 1558TIP3    H226090   4.334   0.345  11.326  0.8676  1.0167 -2.1409
 1559TIP3   OH226091   4.196   0.624  11.413  0.7368  0.4959 -0.3829
 1559TIP3    H126092   4.119   0.573  11.438  0.2932  2.4172  2.3600
 1559TIP3    H226093   4.265   0.559  11.399 -1.6379 -1.3984 -4.3537
 1560TIP3   OH226094   4.937   2.117  10.523  0.5343  0.1357 -0.0135
 1560TIP3    H126095   4.920   2.131  10.616  1.1215  0.5356  0.0345
 1560TIP3    H226096   5.016   2.062  10.521  0.9226  0.6908 -0.2804
 1561TIP3   OH226097   4.977   1.109  10.530 -0.4133  0.4840 -0.2618
 1561TIP3    H126098   4.986   1.018  10.502  0.8221  1.0863 -1.8547
 1561TIP3    H226099   5.015   1.110  10.618 -0.8791 -0.6199 -0.0262
 1562TIP3   OH226100   3.399   2.039  11.428  0.2300 -0.1977 -0.3213
 1562TIP3    H126101   3.434   1.989  11.502  0.7323 -1.0691 -1.1542
 1562TIP3    H226102   3.446   2.006  11.352 -0.3607  0.6360 -1.0485
 1563TIP3   OH226103   4.517   3.886  11.373 -0.4610  0.0422  0.5847
 1563TIP3    H126104   4.523   3.943  11.449 -1.1333  2.5053 -1.1509
 1563TIP3    H226105   4.451   3.927  11.317  0.9028 -1.0043 -1.8859
 1564TIP3   OH226106   5.490   3.315  10.567  0.2963 -0.1372  0.3264
 1564TIP3    H126107   5.440   3.252  10.515  0.5067  1.6107 -2.0745
 1564TIP3    H226108   5.425   3.380  10.596  0.2019 -1.0295  2.1738
 1565TIP3   OH226109   5.494   1.044  12.112 -0.2442  0.6268  0.3958
 1565TIP3    H126110   5.572   1.091  12.140  0.7826 -0.9083  0.1959
 1565TIP3    H226111   5.458   1.006  12.192 -1.1870  1.8996  0.5868
 1566TIP3   OH226112   3.580   1.674   9.912 -0.0102  0.1355 -0.1493
 1566TIP3    H126113   3.626   1.597   9.946 -0.4240 -0.8073 -1.6580
 1566TIP3    H226114   3.650   1.731   9.879  0.1615 -0.8020 -1.4396
 1567TIP3   OH226115   4.058   3.500  10.474 -0.3694 -0.4336 -0.2891
 1567TIP3    H126116   4.053   3.423  10.418  1.6432 -0.3573 -0.5926
 1567TIP3    H226117   4.151   3.511  10.494 -0.9607 -0.1259  2.6211
 1568TIP3   OH226118   5.808   2.828  10.949 -0.0027  0.2866  0.3801
 1568TIP3    H126119   5.743   2.759  10.937 -1.7772  1.8355  0.8680
 1568TIP3    H226120   5.830   2.824  11.042 -0.7395  0.9080  0.5878
 1569TIP3   OH226121   4.511   2.537  11.314 -0.0315 -0.0469 -0.0444
 1569TIP3    H126122   4.519   2.631  11.297  1.2765 -0.0715  0.3718
 1569TIP3    H226123   4.569   2.496  11.250  0.1634 -0.5086  0.4281
 1570TIP3   OH226124   4.698   3.688  11.427 -0.5311  0.0538 -0.6641
 1570TIP3    H126125   4.744   3.740  11.492 -1.1617  1.1888 -1.1142
 1570TIP3    H226126   4.621   3.740  11.404  0.3967  0.3418 -3.3355
 1571TIP3   OH226127   4.950   3.086  10.030  0.1432  0.9580  0.0756
 1571TIP3    H126128   4.878   3.066  10.089  0.7347 -0.8202  0.2342
 1571TIP3    H226129   4.922   3.164   9.982 -1.4169  0.8989  0.8808
 1572TIP3   OH226130   0.654   4.968  11.993 -0.2260  0.1772  0.3335
 1572TIP3    H126131   0.694   4.896  11.944  1.8721  1.6461 -0.2025
 1572TIP3    H226132   0.638   5.035  11.927  0.7128  1.3952  1.3335
 1573TIP3   OH226133   3.179   4.442  10.776 -0.2635  0.3394  0.0526
 1573TIP3    H126134   3.112   4.452  10.709 -0.5421 -0.3446  0.2230
 1573TIP3    H226135   3.161   4.356  10.815 -0.0659  0.6963  0.9508
 1574TIP3   OH226136   6.888   1.873  12.261 -0.2351 -0.4288 -0.1599
 1574TIP3    H126137   6.885   1.799  12.201 -1.7437  0.2202 -0.9235
 1574TIP3    H226138   6.894   1.950  12.204  3.6895 -0.0374  0.6707
 1575TIP3   OH226139   1.565   1.942  11.292  0.0482 -0.9243  0.1324
 1575TIP3    H126140   1.536   1.892  11.217 -0.1387 -1.2919  0.4492
 1575TIP3    H226141   1.650   1.977  11.266 -1.7429  2.2756 -1.7820
 1576TIP3   OH226142   4.708   2.417  10.721 -0.2295  0.2004  0.0704
 1576TIP3    H126143   4.774   2.463  10.670  0.7278 -2.2738 -0.9981
 1576TIP3    H226144   4.624   2.452  10.690  0.3411 -1.0165 -3.0426
 1577TIP3   OH226145   7.029   2.617  10.520  0.5278  0.1886  0.1341
 1577TIP3    H126146   7.102   2.579  10.471  0.8509 -0.9046  1.4347
 1577TIP3    H226147   7.041   2.711  10.512  0.6486  0.0373 -1.7613
 1578TIP3   OH226148   4.561   1.706  10.703  0.1000 -0.1124 -0.3065
 1578TIP3    H126149   4.635   1.767  10.707  0.1668 -0.1189 -1.2804
 1578TIP3    H226150   4.503   1.743  10.636 -0.1469 -0.8149 -0.4837
 1579TIP3   OH226151   5.942   3.045  10.419  0.7215 -0.2941 -0.5994
 1579TIP3    H126152   5.956   3.026  10.326  0.3738 -1.8233 -0.3559
 1579TIP3    H226153   5.857   3.089  10.421  0.9016  0.0858 -1.0395
 1580TIP3   OH226154   3.781   6.864  10.540  0.3297  0.2335  0.4109
 1580TIP3    H126155   3.715   6.927  10.509  1.0088  0.5223 -0.4818
 1580TIP3    H226156   3.832   6.843  10.461  1.5545  0.3146  1.1745
 1581TIP3   OH226157   1.744   1.696  11.200  0.0142 -0.6921  0.0829
 1581TIP3    H126158   1.670   1.655  11.243 -0.4168  0.6138  0.6006
 1581TIP3    H226159   1.810   1.704  11.269  0.3361 -1.0875 -0.1747
 1582TIP3   OH226160   5.049   4.994  11.430 -0.1515 -0.4905 -0.1624
 1582TIP3    H126161   5.118   5.021  11.492 -0.7849  0.6601  0.0489
 1582TIP3    H226162   5.037   4.900  11.447 -1.1841  0.0676  2.3146
 1583TIP3   OH226163   3.697   4.575  11.383 -0.1623  0.0931  0.0154
 1583TIP3    H126164   3.693   4.622  11.466 -0.9180  0.3224 -0.1458
 1583TIP3    H226165   3.644   4.496  11.397  1.3660 -0.8890  0.3876
 1584TIP3   OH226166   3.727   3.107  12.073  0.1939 -0.3419  0.2066
 1584TIP3    H126167   3.650   3.145  12.113  0.9431  1.8300 -0.3573
 1584TIP3    H226168   3.694   3.056  11.999 -0.8209 -0.8945  1.0365
 1585TIP3   OH226169   5.302   3.225   9.970 -0.4146 -0.5989  0.0524
 1585TIP3    H126170   5.254   3.147   9.944 -0.7054  0.1602 -1.7678
 1585TIP3    H226171   5.382   3.223   9.919  1.3821 -1.6740  2.8316
 1586TIP3   OH226172   3.747   2.663   9.596 -0.1936  0.2970 -0.3398
 1586TIP3    H126173   3.813   2.732   9.589 -0.4076  0.6547  1.0039
 1586TIP3    H226174   3.794   2.587   9.629 -0.3947  0.4777  0.3751
 1587TIP3   OH226175   3.208   2.880  10.957 -0.2959  0.2649 -0.0789
 1587TIP3    H126176   3.140   2.920  11.012  0.0922  0.5451  0.1947
 1587TIP3    H226177   3.232   2.948  10.895  0.9983  0.7700  0.9517
 1588TIP3   OH226178   4.532   7.288  13.234 -0.3217 -0.2126  0.2659
 1588TIP3    H126179   4.604   7.292  13.171 -0.3085 -1.5625  0.1899
 1588TIP3    H226180   4.471   7.224  13.197 -2.5461  2.3618 -0.6765
 1589TIP3   OH226181   1.938   1.500  12.529 -0.7889 -0.4960  0.1931
 1589TIP3    H126182   2.031   1.522  12.541 -0.8918 -0.1314  0.3187
 1589TIP3    H226183   1.935   1.405  12.539 -0.4624 -0.4858  0.4100
 1590TIP3   OH226184   0.085   1.473  10.772  0.0657  0.1118  0.6293
 1590TIP3    H126185   0.140   1.479  10.850  1.4530  0.0126 -0.3006
 1590TIP3    H226186   0.147   1.454  10.701 -1.2935 -0.9782 -0.3057
 1591TIP3   OH226187   5.277   4.884  10.504  0.2556 -0.3600  0.3075
 1591TIP3    H126188   5.352   4.825  10.507 -0.3621 -1.2600 -1.2682
 1591TIP3    H226189   5.277   4.917  10.414 -0.6489  0.3971  0.5792
 1592TIP3   OH226190   4.140   0.439  12.093 -0.0038 -0.5035 -0.0714
 1592TIP3    H126191   4.062   0.494  12.095  0.6967  0.4793  2.3123
 1592TIP3    H226192   4.189   0.468  12.016  0.3136  2.1808  1.0993
 1593TIP3   OH226193   1.878   0.891  12.243 -0.4125 -0.2851 -0.4680
 1593TIP3    H126194   1.890   0.972  12.194 -1.1186 -0.5314 -1.0572
 1593TIP3    H226195   1.849   0.920  12.330  0.4796  0.1365 -0.3131
 1594TIP3   OH226196   0.886   1.423  10.640  0.5113 -0.2842 -0.2703
 1594TIP3    H126197   0.843   1.508  10.642 -0.7673 -0.9390  0.1429
 1594TIP3    H226198   0.973   1.439  10.677 -0.6808  0.2987  2.3671
 1595TIP3   OH226199   3.562   2.797   9.777 -0.6536  0.3997  0.3914
 1595TIP3    H126200   3.615   2.772   9.701 -0.3744 -1.4723  1.1779
 1595TIP3    H226201   3.622   2.787   9.851 -2.0595 -1.6478  1.2859
 1596TIP3   OH226202   5.592   2.828   9.935  1.2517  0.1489 -0.1163
 1596TIP3    H126203   5.531   2.791   9.872 -0.4317  1.7195  0.5133
 1596TIP3    H226204   5.650   2.884   9.883  0.5834  0.5693 -0.4076
 1597TIP3   OH226205   3.445   1.927  12.615 -0.1336  0.0171 -0.5713
 1597TIP3    H126206   3.375   1.881  12.569  0.7813 -2.5354  0.5271
 1597TIP3    H226207   3.431   1.907  12.707  1.7757 -0.1386 -0.3049
 1598TIP3   OH226208   1.516   2.416  13.820 -0.1192 -0.0772 -0.0450
 1598TIP3    H126209   1.549   2.335  13.780  0.0549 -0.1853  0.3194
 1598TIP3    H226210   1.581   2.438  13.887 -0.2875  0.2370  0.0151
 1599TIP3   OH226211   3.136   6.217   0.807  0.0522 -0.1902 -0.9029
 1599TIP3    H126212   3.229   6.218   0.828 -0.1091  2.3587 -0.1557
 1599TIP3    H226213   3.093   6.193   0.889 -0.0121 -0.2323 -0.9489
 1600TIP3   OH226214   3.327   0.518  11.549  0.5800 -0.1342  0.4213
 1600TIP3    H126215   3.234   0.504  11.564  0.8214 -1.8451  0.3340
 1600TIP3    H226216   3.360   0.550  11.634 -0.1904  1.1132  0.2630
 1601TIP3   OH226217   1.548   1.575  11.361  0.3084 -0.2432 -0.4511
 1601TIP3    H126218   1.588   1.537  11.440 -1.0899  1.1386  0.9694
 1601TIP3    H226219   1.459   1.539  11.360  0.0003  0.5202 -0.8240
 1602TIP3   OH226220   6.415   4.375  10.088 -0.2333  0.2483  0.0429
 1602TIP3    H126221   6.396   4.283  10.105 -0.1473 -0.0940 -1.7024
 1602TIP3    H226222   6.482   4.374  10.020  0.3704  1.5929  0.6030
 1603TIP3   OH226223   3.091   0.127  11.144 -0.0287  0.5820 -0.2514
 1603TIP3    H126224   3.124   0.038  11.135 -3.0680 -0.9838  3.0203
 1603TIP3    H226225   3.016   0.131  11.085  0.9794  1.5619 -1.5352
 1604TIP3   OH226226   4.992   5.525  14.047 -0.4532  0.1906  0.8676
 1604TIP3    H126227   5.020   5.436  14.028 -1.3147  0.1229 -0.1196
 1604TIP3    H226228   4.899   5.517  14.069 -0.8693  0.9889 -0.5148
 1605TIP3   OH226229   4.039   1.138  10.785 -0.5318 -0.3383 -0.3100
 1605TIP3    H126230   4.115   1.155  10.730  0.0062 -1.7748 -0.0261
 1605TIP3    H226231   3.988   1.219  10.781  1.1455  0.7434 -0.2726
 1606TIP3   OH226232   5.182   2.744  11.387  0.1461  0.6213  0.0598
 1606TIP3    H126233   5.087   2.731  11.381 -0.2619  2.1386  2.5441
 1606TIP3    H226234   5.210   2.756  11.296 -1.6076 -2.3910 -0.9732
 1607TIP3   OH226235   5.173   2.499  12.506 -0.3758  0.0929 -0.4035
 1607TIP3    H126236   5.109   2.484  12.576  1.3202 -0.1049  1.1444
 1607TIP3    H226237   5.197   2.591  12.515  1.2535 -0.4020  0.5225
 1608TIP3   OH226238   4.477   2.072  15.173  0.3053  0.1123 -0.1299
 1608TIP3    H126239   4.566   2.109  15.170  0.5595 -0.4933 -0.1212
 1608TIP3    H226240   4.474   2.011  15.099  0.2772 -0.7337  0.5709
 1609TIP3   OH226241   1.832   5.186  12.563 -0.0933 -0.0538  0.2400
 1609TIP3    H126242   1.796   5.214  12.647 -0.5961  0.4340 -0.1449
 1609TIP3    H226243   1.761   5.139  12.520  0.1552 -0.2802  0.0687
 1610TIP3   OH226244   3.883   0.579  12.061 -0.4013  0.2567 -0.2391
 1610TIP3    H126245   3.838   0.500  12.030  1.4559 -0.3289 -1.5181
 1610TIP3    H226246   3.854   0.589  12.151  0.1269 -2.4856  0.2761
 1611TIP3   OH226247   5.257   2.127  10.758  0.1778 -0.1383  0.1293
 1611TIP3    H126248   5.290   2.215  10.775  2.2965 -1.1706  1.5194
 1611TIP3    H226249   5.286   2.107  10.669  2.6963 -0.6998  1.0231
 1612TIP3   OH226250   6.290   0.094  12.974 -0.4767  0.0217 -0.1123
 1612TIP3    H126251   6.277   0.180  12.932 -1.1137 -1.1329 -2.3650
 1612TIP3    H226252   6.383   0.076  12.962 -0.5197  0.0053 -0.4524
 1613TIP3   OH226253   6.301   3.435  10.878  0.3268  0.5844 -0.5705
 1613TIP3    H126254   6.256   3.440  10.962  1.5338  3.4201 -0.0483
 1613TIP3    H226255   6.231   3.424  10.814 -0.8440  1.3690  0.5576
 1614TIP3   OH226256   2.750   3.736   9.585 -0.5102  0.1293 -0.5909
 1614TIP3    H126257   2.824   3.676   9.594 -2.2351 -2.7078 -3.8012
 1614TIP3    H226258   2.686   3.707   9.650  0.0224  0.6786  0.1747
 1615TIP3   OH226259   5.749   3.677  10.593 -0.1795  0.4415 -0.0482
 1615TIP3    H126260   5.816   3.658  10.658 -0.8468 -1.0390  0.2276
 1615TIP3    H226261   5.796   3.685  10.511  0.5296  1.1395  0.4207
 1616TIP3   OH226262   5.544   1.034  11.358  0.2236  0.1952 -0.3070
 1616TIP3    H126263   5.576   0.991  11.279  0.0253  1.8812 -1.3262
 1616TIP3    H226264   5.461   1.074  11.331  0.0414  0.5851  0.8105
 1617TIP3   OH226265   4.817   1.836  11.143  0.0177 -0.1736  0.7007
 1617TIP3    H126266   4.883   1.844  11.075  1.0978 -2.7349  1.3534
 1617TIP3    H226267   4.864   1.854  11.225 -0.7032  0.5781  0.9514
 1618TIP3   OH226268   4.838   1.165  14.240 -0.5092 -0.4163  0.1097
 1618TIP3    H126269   4.754   1.211  14.235 -0.5161 -0.5637 -1.1893
 1618TIP3    H226270   4.861   1.146  14.149  2.7419  2.8734  0.1241
 1619TIP3   OH226271   1.319   0.783  13.625  0.0674  0.1391 -1.0234
 1619TIP3    H126272   1.297   0.872  13.595  0.9553  1.0053  0.7987
 1619TIP3    H226273   1.412   0.773  13.605 -0.1836 -0.6176 -1.7984
 1620TIP3   OH226274   5.414   0.669  11.882 -0.1168 -0.2905 -0.0886
 1620TIP3    H126275   5.499   0.709  11.863  0.8486 -1.0571  2.4713
 1620TIP3    H226276   5.351   0.732  11.848  1.4305  1.4285  0.1148
 1621TIP3   OH226277   0.460   2.857  11.201  0.1774 -0.1925  0.3750
 1621TIP3    H126278   0.539   2.802  11.202 -0.9061 -1.7682  0.6632
 1621TIP3    H226279   0.412   2.828  11.123 -0.4637  0.2712  0.5999
 1622TIP3   OH226280   4.142   2.512  10.743 -0.1893 -0.6680  0.0680
 1622TIP3    H126281   4.180   2.532  10.657 -1.3141 -0.3901 -0.3873
 1622TIP3    H226282   4.069   2.573  10.751  2.3871  2.1681  3.0708
 1623TIP3   OH226283   0.237   0.447  11.713  0.0560 -0.0202  0.2258
 1623TIP3    H126284   0.196   0.364  11.691  0.3741  0.0872 -0.8008
 1623TIP3    H226285   0.222   0.502  11.636  0.0902  0.7838  0.7873
 1624TIP3   OH226286   6.161   1.996   9.975 -0.6896  0.4986 -0.6303
 1624TIP3    H126287   6.118   1.988   9.890  2.1918  1.1538 -2.2101
 1624TIP3    H226288   6.254   2.002   9.954 -0.1061  3.1073  2.4094
 1625TIP3   OH226289   3.892   4.232  11.390 -0.3222 -0.1112  0.7329
 1625TIP3    H126290   3.839   4.221  11.469 -0.3394 -0.0663  0.7277
 1625TIP3    H226291   3.829   4.226  11.318  0.1557 -3.7996  0.5348
 1626TIP3   OH226292   2.436   1.945  12.036 -0.5981  0.1522 -0.5520
 1626TIP3    H126293   2.479   1.880  11.980  1.9949  1.9168 -0.6774
 1626TIP3    H226294   2.464   1.923  12.125 -1.3215 -0.0955 -0.3821
 1627TIP3   OH226295   4.910   2.551  10.594  0.3170 -0.4316  0.3739
 1627TIP3    H126296   4.856   2.584  10.522 -1.0312 -2.2393  0.5419
 1627TIP3    H226297   4.964   2.483  10.555  1.3463  0.2618  0.5606
 1628TIP3   OH226298   1.986   4.356  10.751  0.1705 -0.3389  0.5172
 1628TIP3    H126299   1.925   4.285  10.776 -0.4819 -0.3585 -1.0831
 1628TIP3    H226300   2.072   4.315  10.755  0.3323  0.1658  4.6111
 1629TIP3   OH226301   4.665   3.386  10.804  0.1772 -0.1457  0.0724
 1629TIP3    H126302   4.605   3.313  10.818  0.1471 -0.5759 -2.1075
 1629TIP3    H226303   4.625   3.460  10.850 -0.0191 -1.3650  1.9219
 1630TIP3   OH226304   5.315   6.558  11.592  0.2015 -0.4010 -0.4246
 1630TIP3    H126305   5.355   6.612  11.661 -2.0091 -0.4637  0.9331
 1630TIP3    H226306   5.337   6.604  11.510  1.0123  0.8373  0.4743
 1631TIP3   OH226307   5.190   4.343  10.589  0.0799 -0.0388  0.5814
 1631TIP3    H126308   5.102   4.323  10.620 -0.0065  1.5731  1.4437
 1631TIP3    H226309   5.178   4.368  10.497 -0.2541 -0.5588  0.4810
 1632TIP3   OH226310   5.397   2.112  10.527  0.1189  0.7174  0.3338
 1632TIP3    H126311   5.396   2.204  10.554 -1.7690  0.6402  0.5585
 1632TIP3    H226312   5.411   2.114  10.433 -1.5914  1.3053  0.0853
 1633TIP3   OH226313   7.128   0.988  11.828 -0.3416 -0.3537 -0.3237
 1633TIP3    H126314   7.097   0.901  11.801  1.9919 -1.4735  0.5030
 1633TIP3    H226315   7.055   1.024  11.879 -1.5438 -1.5806 -1.1082
 1634TIP3   OH226316   4.716   0.836  10.240  0.2580  0.3061 -0.7290
 1634TIP3    H126317   4.661   0.914  10.245  1.5497  1.2978 -1.7593
 1634TIP3    H226318   4.677   0.784  10.169 -0.0434  0.4402 -0.6654
 1635TIP3   OH226319   5.009   4.623  12.424 -0.1165 -0.0626 -0.5570
 1635TIP3    H126320   4.998   4.569  12.502  0.5575  1.1985  0.4469
 1635TIP3    H226321   5.104   4.635  12.417 -0.1595 -0.4085 -1.7389
 1636TIP3   OH226322   6.508   2.600  11.976 -0.1600  0.2490 -0.2705
 1636TIP3    H126323   6.504   2.666  12.045 -3.3849 -0.3564  0.2159
 1636TIP3    H226324   6.510   2.650  11.895  2.2525  0.9514  0.1788
 1637TIP3   OH226325   3.993   3.410  14.305 -0.0345 -0.2169  0.5277
 1637TIP3    H126326   4.035   3.426  14.390  0.1535  0.8703  0.2306
 1637TIP3    H226327   4.062   3.375  14.250  0.4339  1.3369  0.1141
 1638TIP3   OH226328   3.939   1.350  10.591  0.0897 -0.3858 -0.1118
 1638TIP3    H126329   3.865   1.361  10.531 -0.8353  0.6175  1.1891
 1638TIP3    H226330   3.986   1.434  10.587 -1.0335  0.3759  1.9452
 1639TIP3   OH226331   3.175   1.647  10.259  0.1187  0.0280 -0.0437
 1639TIP3    H126332   3.111   1.708  10.224 -1.1059  0.3678  2.6821
 1639TIP3    H226333   3.250   1.654  10.199 -2.0944  0.1065 -2.8752
 1640TIP3   OH226334   3.109   7.250  10.340 -0.1396  0.6337 -0.2670
 1640TIP3    H126335   3.099   7.311  10.413  0.9984 -0.1966  0.5991
 1640TIP3    H226336   3.170   7.293  10.280  1.3678 -0.0543  0.7781
 1641TIP3   OH226337   2.199   3.511  11.798  0.5091  0.5719  0.6739
 1641TIP3    H126338   2.280   3.468  11.769  0.4161 -0.6578  2.1796
 1641TIP3    H226339   2.194   3.493  11.892 -2.2133 -0.5804  0.3762
 1642TIP3   OH226340   5.544   1.102  13.009  0.6987  0.0252  0.3971
 1642TIP3    H126341   5.558   1.052  13.089  0.0668 -2.3488 -0.8998
 1642TIP3    H226342   5.604   1.063  12.945 -1.3664 -0.5954 -1.2513
 1643TIP3   OH226343   4.855   3.395  14.438 -0.2126 -0.1161  0.2518
 1643TIP3    H126344   4.786   3.336  14.466  0.4046 -0.1017  1.8135
 1643TIP3    H226345   4.932   3.339  14.427  0.4693  0.4528  2.1072
 1644TIP3   OH226346   5.927   6.367  10.600 -0.0493  0.8417  0.5242
 1644TIP3    H126347   5.998   6.398  10.544  0.2814 -1.3868 -0.3428
 1644TIP3    H226348   5.853   6.356  10.540  0.0597 -0.7122  0.6462
 1645TIP3   OH226349   4.367   6.611  11.371  0.1661 -0.6420  0.2718
 1645TIP3    H126350   4.421   6.532  11.377  2.9752  1.1593 -0.1882
 1645TIP3    H226351   4.344   6.617  11.278 -1.4760 -1.7961  0.5871
 1646TIP3   OH226352   3.338   1.588  12.048 -0.3854 -0.6016 -0.7124
 1646TIP3    H126353   3.320   1.500  12.016 -0.4135 -0.9478  0.2473
 1646TIP3    H226354   3.427   1.583  12.082 -0.3774 -0.2526 -0.6840
 1647TIP3   OH226355   5.386   0.801  11.633  0.0100 -0.2025 -0.3645
 1647TIP3    H126356   5.458   0.856  11.663  0.0872 -0.2229 -0.5116
 1647TIP3    H226357   5.315   0.863  11.614  0.0388 -0.1693 -0.3657
 1648TIP3   OH226358   0.013   1.767  13.702  0.1453 -0.1139 -0.0761
 1648TIP3    H126359  -0.058   1.801  13.648  0.5604  1.6741  0.4614
 1648TIP3    H226360   0.074   1.728  13.640 -0.3919  0.0334 -0.7065
 1649TIP3   OH226361   5.952   1.324  11.220  0.3831  0.1161 -0.1497
 1649TIP3    H126362   6.012   1.352  11.152  1.0190  1.8069  1.0628
 1649TIP3    H226363   5.875   1.379  11.208  0.2484 -0.0133  0.1176
 1650TIP3   OH226364   7.092   1.543  11.574  0.3980  0.1463 -0.2911
 1650TIP3    H126365   7.187   1.556  11.575  0.4346 -0.1677  1.2598
 1650TIP3    H226366   7.056   1.631  11.576  0.6535  0.2580 -0.5413
 1651TIP3   OH226367   0.534   3.599  12.862 -0.5270  0.6126 -0.1957
 1651TIP3    H126368   0.530   3.511  12.825  0.8511  1.0825 -1.5028
 1651TIP3    H226369   0.484   3.653  12.801 -1.8791  0.6549  0.9199
 1652TIP3   OH226370   3.329   5.115  10.800  0.5454  0.0432 -0.2638
 1652TIP3    H126371   3.361   5.027  10.815  2.8595  0.6065 -1.7647
 1652TIP3    H226372   3.299   5.116  10.709  0.2128  0.7041 -0.1549
 1653TIP3   OH226373   4.080   0.341  11.080  0.2948  0.1180  0.0184
 1653TIP3    H126374   4.087   0.433  11.105 -0.2829  0.4325 -0.9688
 1653TIP3    H226375   4.006   0.308  11.132  1.3325 -0.1415  1.3664
 1654TIP3   OH226376   4.574   1.085  10.259 -0.0498 -0.2168  0.4063
 1654TIP3    H126377   4.637   1.109  10.327  0.0734  0.3176  0.1074
 1654TIP3    H226378   4.548   1.168  10.219  0.5056 -0.5744 -0.7395
 1655TIP3   OH226379   4.738   1.225  10.432 -0.5432 -0.4456 -0.4065
 1655TIP3    H126380   4.829   1.207  10.456 -0.1148  1.4526 -0.5467
 1655TIP3    H226381   4.743   1.291  10.364 -2.0313 -0.5525 -0.6489
 1656TIP3   OH226382   5.600   0.882  10.154 -0.1453  0.1365 -0.2669
 1656TIP3    H126383   5.632   0.798  10.186 -1.7678  0.4593  2.4266
 1656TIP3    H226384   5.672   0.943  10.171 -0.4365  0.0122  1.5137
 1657TIP3   OH226385   3.665   1.002   9.756  0.3529  0.1876 -1.0064
 1657TIP3    H126386   3.678   0.940   9.828  3.9618  1.4188 -0.4889
 1657TIP3    H226387   3.622   1.077   9.796 -2.2430 -1.1544 -1.2249
 1658TIP3   OH226388   4.705   3.763  11.946 -0.0873  0.3526 -0.4463
 1658TIP3    H126389   4.761   3.709  12.002  1.9773  1.4073 -1.4475
 1658TIP3    H226390   4.680   3.837  12.001 -0.0216  0.1699 -0.1689
 1659TIP3   OH226391   6.582   3.468  10.812 -0.0281 -0.1294  0.1160
 1659TIP3    H126392   6.487   3.455  10.813 -0.1772  0.8333 -0.2271
 1659TIP3    H226393   6.607   3.474  10.904 -0.7894  2.7638  0.1911
 1660TIP3   OH226394   3.255   6.347  12.227  0.2044 -0.2169 -0.0282
 1660TIP3    H126395   3.318   6.335  12.155 -0.3799 -2.2161 -0.2521
 1660TIP3    H226396   3.252   6.441  12.241  2.2598  0.0035 -0.9028
 1661TIP3   OH226397   5.372   2.809  10.628 -0.3528  0.8609 -0.4361
 1661TIP3    H126398   5.306   2.750  10.594 -0.7437  1.1236 -0.1413
 1661TIP3    H226399   5.354   2.893  10.585 -0.6805  1.1244  0.2016
 1662TIP3   OH226400   4.278   0.567  10.823  0.5346 -0.1985 -0.1448
 1662TIP3    H126401   4.227   0.647  10.809  1.7177  0.7866  0.9678
 1662TIP3    H226402   4.212   0.499  10.836 -0.4944  0.5631 -1.2176
 1663TIP3   OH226403   2.695   4.569  12.473 -0.1479  0.3561  0.5021
 1663TIP3    H126404   2.686   4.515  12.395  3.7614  0.0325  0.1473
 1663TIP3    H226405   2.721   4.655  12.440 -0.9257  0.9259  1.3462
 1664TIP3   OH226406   5.577   6.026  10.154  0.4628  0.1466  0.5416
 1664TIP3    H126407   5.491   6.064  10.136  0.1350 -0.0136  1.6767
 1664TIP3    H226408   5.588   5.959  10.087 -0.0111  0.6270 -0.0182
 1665TIP3   OH226409   2.649   7.160  10.935 -0.2824 -0.1803 -0.1725
 1665TIP3    H126410   2.622   7.251  10.932 -0.8845 -0.2527  2.0542
 1665TIP3    H226411   2.568   7.110  10.943  0.0310 -0.9226 -1.5246
 1666TIP3   OH226412   1.006   5.200  11.818 -0.9235  0.3029  0.1611
 1666TIP3    H126413   0.954   5.125  11.788 -0.8898  0.9853 -1.6626
 1666TIP3    H226414   1.002   5.262  11.745  1.5004  0.8493  0.4685
 1667TIP3   OH226415   1.661   0.140  10.762  0.1169 -0.2546 -0.7614
 1667TIP3    H126416   1.585   0.177  10.718 -0.1686 -1.4463 -1.2979
 1667TIP3    H226417   1.717   0.109  10.691  0.3275 -0.8734 -0.3311
 1668TIP3   OH226418   6.235   3.132  14.754 -0.0400 -0.4852 -0.3082
 1668TIP3    H126419   6.152   3.142  14.708 -1.1319 -2.0786  1.2720
 1668TIP3    H226420   6.253   3.220  14.788 -1.3871 -0.2680 -0.1219
 1669TIP3   OH226421   5.103   3.571  10.916 -0.0492  0.8148  0.1916
 1669TIP3    H126422   5.053   3.504  10.870  1.4998 -0.2957  0.0544
 1669TIP3    H226423   5.123   3.637  10.849 -0.1696  0.5866 -0.0690
 1670TIP3   OH226424   0.116   6.390  10.595 -0.5013 -0.2911 -0.2798
 1670TIP3    H126425   0.207   6.397  10.625 -1.3971  0.0147  2.5044
 1670TIP3    H226426   0.122   6.388  10.499  2.2973  1.6375 -0.1893
 1671TIP3   OH226427   2.785   1.647  11.171 -0.3689 -0.4174  0.2011
 1671TIP3    H126428   2.702   1.614  11.205 -0.6759 -0.5915 -0.6941
 1671TIP3    H226429   2.844   1.572  11.174 -0.4979 -0.5261  0.0142
 1672TIP3   OH226430   6.964   2.169  10.078 -0.4227  0.1482  0.1559
 1672TIP3    H126431   7.022   2.232  10.121  1.0027  0.4143 -2.0370
 1672TIP3    H226432   6.905   2.224  10.025  0.5025 -0.3003 -1.3738
 1673TIP3   OH226433   6.008   4.918  10.610  0.4144 -0.3544  0.3579
 1673TIP3    H126434   5.991   4.965  10.691 -0.5720 -1.6994  0.9325
 1673TIP3    H226435   6.022   4.987  10.545  1.9859  0.7288  1.8115
 1674TIP3   OH226436   6.869   6.553  11.944  0.1386 -0.0891 -0.2359
 1674TIP3    H126437   6.829   6.533  11.859 -1.0474 -0.1997  0.3264
 1674TIP3    H226438   6.874   6.649  11.945  2.2121 -0.1529 -1.3241
 1675TIP3   OH226439   0.813   2.311  11.200 -0.3239 -0.6659 -0.2304
 1675TIP3    H126440   0.835   2.298  11.293 -0.8671 -0.1088 -0.0195
 1675TIP3    H226441   0.740   2.373  11.202  2.5936  2.9472 -1.1958
 1676TIP3   OH226442   6.877   3.383  11.793  0.1106 -0.3567 -0.3246
 1676TIP3    H126443   6.934   3.460  11.793 -0.7951  0.3471  1.8144
 1676TIP3    H226444   6.817   3.398  11.720 -0.4032  1.2431  0.4028
 1677TIP3   OH226445   6.566   2.454   9.820 -0.1677  0.0898  0.1071
 1677TIP3    H126446   6.519   2.535   9.840  0.5013  0.6577 -0.5745
 1677TIP3    H226447   6.606   2.470   9.735  0.7332 -0.6146  0.3903
 1678TIP3   OH226448   5.403   1.039  10.405 -0.3188  0.2056 -0.0806
 1678TIP3    H126449   5.404   0.956  10.358  0.3525  0.5088 -0.5983
 1678TIP3    H226450   5.475   1.090  10.367  1.5209 -0.2886  2.6024
 1679TIP3   OH226451   6.615   1.013  14.520 -0.1479 -0.4803  0.6329
 1679TIP3    H126452   6.559   0.939  14.499 -0.0567 -0.3708 -0.0012
 1679TIP3    H226453   6.677   1.018  14.447  1.2671 -1.1579  1.7796
 1680TIP3   OH226454   4.311   2.081  10.241 -0.6455 -0.1983 -0.4441
 1680TIP3    H126455   4.318   2.130  10.323 -1.2252 -0.3637 -0.2916
 1680TIP3    H226456   4.289   1.992  10.268  1.9929 -0.9565 -0.6223
 1681TIP3   OH226457   0.304   2.667  11.761 -0.6964  0.2429  0.2118
 1681TIP3    H126458   0.397   2.643  11.753 -1.1347 -1.4787  0.1024
 1681TIP3    H226459   0.297   2.708  11.848  0.0802  0.0008  0.3916
 1682TIP3   OH226460   6.861   3.090  11.480 -0.0877 -0.1976 -0.6490
 1682TIP3    H126461   6.813   3.055  11.556  0.6730 -2.0166 -1.0010
 1682TIP3    H226462   6.939   3.130  11.518  0.0301 -0.6379 -0.4302
 1683TIP3   OH226463   6.743   3.946  10.596 -0.5672  0.1112 -0.1278
 1683TIP3    H126464   6.702   3.991  10.522  0.3098  0.4335 -0.4277
 1683TIP3    H226465   6.680   3.879  10.622 -0.1209 -1.1433 -2.2660
 1684TIP3   OH226466   0.151   4.750  11.495 -0.1983 -0.5103 -0.3839
 1684TIP3    H126467   0.121   4.659  11.498 -0.0931 -0.5936 -1.4950
 1684TIP3    H226468   0.084   4.800  11.541 -2.9085 -0.4601 -4.2130
 1685TIP3   OH226469   6.136   5.149  12.755 -0.1708  0.1887 -0.1503
 1685TIP3    H126470   6.108   5.136  12.846  0.3293  0.9788  0.1287
 1685TIP3    H226471   6.195   5.224  12.760 -1.7191  1.5118 -1.4334
 1686TIP3   OH226472   6.588   0.452  12.359  0.0480 -0.5448  0.0677
 1686TIP3    H126473   6.681   0.446  12.340  0.0787 -1.3742  0.4736
 1686TIP3    H226474   6.546   0.455  12.272  0.4263 -0.5219 -0.1131
 1687TIP3   OH226475   5.430   3.434  10.820 -0.1324 -0.2704  0.1091
 1687TIP3    H126476   5.452   3.366  10.884 -0.7382  0.0448  0.6462
 1687TIP3    H226477   5.342   3.412  10.791 -1.8512  2.3822  3.0296
 1688TIP3   OH226478   3.950   1.341  12.491  0.4566 -0.6023  0.2787
 1688TIP3    H126479   3.954   1.336  12.587 -0.4305 -2.4079  0.2449
 1688TIP3    H226480   3.950   1.249  12.463  0.1256 -0.0872 -1.4231
 1689TIP3   OH226481   0.897   2.010  13.068  0.0335  0.3296  0.4257
 1689TIP3    H126482   0.865   2.088  13.113  0.6458  0.8936 -0.1199
 1689TIP3    H226483   0.971   2.040  13.015  1.4120 -0.9406  1.5761
 1690TIP3   OH226484   6.470   3.804  12.624  0.1286  0.4157 -0.1910
 1690TIP3    H126485   6.542   3.829  12.682  1.1749  2.9336 -2.4626
 1690TIP3    H226486   6.511   3.787  12.539 -1.8787  1.6412 -1.4544
 1691TIP3   OH226487   6.586   2.413  11.198 -0.5932  0.6131  0.2946
 1691TIP3    H126488   6.533   2.346  11.154 -0.3322 -0.1211  1.0852
 1691TIP3    H226489   6.533   2.492  11.194 -2.8637 -0.6750  3.2178
 1692TIP3   OH226490   6.954   1.918  11.268 -0.4705  0.1363 -0.0516
 1692TIP3    H126491   7.035   1.911  11.319  1.3357  1.2239 -2.6403
 1692TIP3    H226492   6.934   1.828  11.243 -0.1544 -0.1592  0.7356
 1693TIP3   OH226493   1.991   3.139  12.194  0.7182  0.0031  0.6984
 1693TIP3    H126494   1.910   3.132  12.243  0.5106  1.5712  0.6189
 1693TIP3    H226495   2.019   3.230  12.207  1.5429 -0.0354 -0.6687
 1694TIP3   OH226496   7.037   3.799  11.676 -0.2481  0.2099 -0.3281
 1694TIP3    H126497   7.110   3.793  11.615  0.3763  0.4108  0.3896
 1694TIP3    H226498   7.051   3.882  11.723  0.2999 -0.7975  1.3542
 1695TIP3   OH226499   6.690   3.255  11.354 -0.0064 -0.4471 -0.7350
 1695TIP3    H126500   6.732   3.181  11.398  0.0795  0.5310  0.8289
 1695TIP3    H226501   6.744   3.269  11.276  0.6132 -1.3292 -0.4814
 1696TIP3   OH226502   4.522   2.993  12.507  0.1535  0.5512  0.1220
 1696TIP3    H126503   4.482   3.050  12.572 -1.2898 -2.4933  2.0358
 1696TIP3    H226504   4.476   3.014  12.426 -1.8575  0.6143  1.2513
 1697TIP3   OH226505   5.099   7.280  10.311  0.4593 -0.1803 -0.1055
 1697TIP3    H126506   5.130   7.193  10.283  0.4270  0.3642 -1.8347
 1697TIP3    H226507   5.165   7.341  10.279 -0.5807  0.6439 -0.7080
 1698TIP3   OH226508   6.254   2.930  11.959  0.7763  0.6000  0.2886
 1698TIP3    H126509   6.291   2.998  12.015  2.6599  0.1669 -0.3902
 1698TIP3    H226510   6.253   2.852  12.015  3.9014 -0.1588 -0.6302
 1699TIP3   OH226511   3.029   1.465  12.872  0.4618  0.5396 -0.1259
 1699TIP3    H126512   3.058   1.554  12.851  0.0253  0.6028 -0.4568
 1699TIP3    H226513   2.978   1.475  12.953 -0.9909  0.8344 -1.0670
 1700TIP3   OH226514   4.330   3.069  11.670 -0.3877  0.3907 -0.1690
 1700TIP3    H126515   4.404   3.127  11.652 -0.1996  0.2340  0.1078
 1700TIP3    H226516   4.356   3.019  11.747  0.0306 -1.0363 -1.2191
 1701TIP3   OH226517   7.280   5.372  12.367  0.0932 -0.4562 -0.0521
 1701TIP3    H126518   7.245   5.302  12.311  1.0845  1.6380 -3.4438
 1701TIP3    H226519   7.371   5.381  12.339 -0.1425  2.4719  0.0114
 1702TIP3   OH226520   7.049   5.326  11.170 -0.2927  0.3139 -0.3992
 1702TIP3    H126521   6.981   5.358  11.111 -0.0034  1.9862  0.1400
 1702TIP3    H226522   7.129   5.331  11.118 -0.2333  0.5882 -0.2855
 1703TIP3   OH226523   0.657   6.563  11.876  0.4996 -0.6974  0.4323
 1703TIP3    H126524   0.751   6.550  11.882  0.3510 -3.0197 -1.3633
 1703TIP3    H226525   0.619   6.490  11.925 -0.3988  0.5804  1.7109
 1704TIP3   OH226526   5.656   2.738  11.277  0.3075  0.4785  0.4616
 1704TIP3    H126527   5.586   2.693  11.229 -0.2844  1.7961  0.0724
 1704TIP3    H226528   5.612   2.779  11.351  0.8497  0.4333  0.8137
 1705TIP3   OH226529   4.099   3.508  12.302  0.3502 -0.1859  0.1258
 1705TIP3    H126530   4.052   3.490  12.384 -1.7343  0.3025 -0.9444
 1705TIP3    H226531   4.061   3.590  12.271  2.7861  0.8818 -0.1531
 1706TIP3   OH226532   3.246   3.681  11.375  0.2144 -0.5575 -0.1778
 1706TIP3    H126533   3.280   3.718  11.294 -1.3746 -0.1935 -0.7066
 1706TIP3    H226534   3.318   3.628  11.410  0.9061 -0.7484 -1.8413
 1707TIP3   OH226535   5.867   4.023   9.874  0.4162  0.7949 -0.3243
 1707TIP3    H126536   5.881   4.101   9.927 -0.0319  0.5855  0.1105
 1707TIP3    H226537   5.802   4.050   9.809 -3.3880 -0.4506  2.7108
 1708TIP3   OH226538   5.339   3.085  10.492  0.0839 -0.0574  0.3927
 1708TIP3    H126539   5.357   3.080  10.398 -0.5142 -1.0491  0.3213
 1708TIP3    H226540   5.246   3.062  10.499  0.5896 -1.9208  1.3828
 1709TIP3   OH226541   0.247   3.935  11.977  0.2883  0.3590  0.6355
 1709TIP3    H126542   0.331   3.897  11.950  0.3087  1.8462 -1.5700
 1709TIP3    H226543   0.188   3.860  11.981  0.9101 -0.2820 -1.2143
 1710TIP3   OH226544   6.650   4.035  10.363  0.0035  0.0879  0.4475
 1710TIP3    H126545   6.573   3.996  10.322 -0.2973  1.3147 -0.1678
 1710TIP3    H226546   6.649   4.126  10.335  2.2681 -0.1267 -0.4258
 1711TIP3   OH226547   1.709   3.017  13.944 -0.0372  0.1002  0.1345
 1711TIP3    H126548   1.657   2.943  13.913 -0.7553 -0.0892  1.7182
 1711TIP3    H226549   1.779   3.026  13.879 -1.2803 -0.4755 -1.3186
 1712TIP3   OH226550   4.647   6.509  10.966  0.2172 -0.0023 -0.0070
 1712TIP3    H126551   4.601   6.570  10.909 -1.6223 -0.5976  0.8151
 1712TIP3    H226552   4.652   6.552  11.051  0.8341 -0.1101  0.0182
 1713TIP3   OH226553   6.612   1.527  10.777  0.5294 -0.1988  0.0508
 1713TIP3    H126554   6.695   1.567  10.750  1.8685 -1.8253  1.6405
 1713TIP3    H226555   6.589   1.573  10.858 -0.4738  0.6907 -0.7290
 1714TIP3   OH226556   5.559   2.100  13.047 -0.8803  0.7185 -0.2734
 1714TIP3    H126557   5.552   2.048  12.967 -1.1167  1.4473 -0.7337
 1714TIP3    H226558   5.594   2.039  13.112  1.0792  0.6095 -1.4002
 1715TIP3   OH226559   7.139   1.158  13.145  0.2613  0.0876  0.0307
 1715TIP3    H126560   7.132   1.243  13.102 -0.7516  0.9348  1.7973
 1715TIP3    H226561   7.056   1.149  13.193  0.0487 -2.2260 -0.7263
 1716TIP3   OH226562   5.639   2.908  10.337  0.1574 -0.2166 -0.2609
 1716TIP3    H126563   5.684   2.992  10.351 -0.7358  0.3759 -0.9208
 1716TIP3    H226564   5.671   2.878  10.252  0.0210 -0.2640 -0.2933
 1717TIP3   OH226565   6.896   1.643  10.071  0.1146  0.4173  0.0877
 1717TIP3    H126566   6.886   1.736  10.051 -0.6610  0.3748  0.2654
 1717TIP3    H226567   6.987   1.623  10.047  0.3930  1.2995  0.4018
 1718TIP3   OH226568   4.805   2.001  14.713 -0.5569  0.0272 -0.5860
 1718TIP3    H126569   4.813   1.926  14.654  0.3711 -2.1660  2.2083
 1718TIP3    H226570   4.883   2.053  14.697  1.7336 -2.6194  1.3581
 1719TIP3   OH226571   0.770   1.056  10.343  0.5858  0.2062 -0.4544
 1719TIP3    H126572   0.718   1.123  10.389  1.0761  1.0554 -1.1243
 1719TIP3    H226573   0.811   1.006  10.413  1.5264  1.6521  0.0626
 1720TIP3   OH226574   5.260   2.819  11.113  0.0635  0.2303  0.0658
 1720TIP3    H126575   5.326   2.884  11.089  0.5267  0.4590  1.8799
 1720TIP3    H226576   5.190   2.830  11.048  0.8646  1.4370 -0.6033
 1721TIP3   OH226577   0.018   1.192  10.514  0.2605  0.2634 -0.0189
 1721TIP3    H126578  -0.044   1.233  10.454 -0.2311 -0.9970 -0.3974
 1721TIP3    H226579  -0.023   1.109  10.537  1.2101  0.0025  0.7636
 1722TIP3   OH226580   5.491   1.296  11.830 -0.0060 -0.0365  0.8570
 1722TIP3    H126581   5.571   1.251  11.858  2.1113  1.6570 -2.2709
 1722TIP3    H226582   5.464   1.249  11.751 -1.6605 -0.0166  1.3797
 1723TIP3   OH226583   1.020   3.825  13.074  0.1269  0.6620 -0.5641
 1723TIP3    H126584   1.030   3.738  13.114 -0.9070  1.1626  0.8060
 1723TIP3    H226585   1.036   3.810  12.981  2.2063 -0.5942 -0.0527
 1724TIP3   OH226586   5.560   3.323   9.892  0.0340  0.6010  0.0504
 1724TIP3    H126587   5.640   3.288   9.853 -0.2226 -0.5387  0.5137
 1724TIP3    H226588   5.546   3.407   9.848  0.7564  0.1940 -0.9776
 1725TIP3   OH226589   3.404   0.296  15.335 -0.7207 -0.1509 -0.0453
 1725TIP3    H126590   3.463   0.371  15.328  0.0306 -0.5636  1.8788
 1725TIP3    H226591   3.398   0.262  15.245  0.9170  0.6753 -0.4778
 1726TIP3   OH226592   1.971   4.311  13.244  0.1469 -0.2857 -0.0214
 1726TIP3    H126593   2.050   4.275  13.285 -0.4668 -1.7485 -0.0787
 1726TIP3    H226594   1.946   4.384  13.299  1.5810  0.2292 -0.0305
 1727TIP3   OH226595   5.217   2.791  14.829  0.1508  0.1659 -0.0010
 1727TIP3    H126596   5.251   2.792  14.739  0.6761 -0.9116  0.1795
 1727TIP3    H226597   5.182   2.879  14.842  2.4861  1.2024 -0.3610
 1728TIP3   OH226598   3.574   1.893  11.938  0.7942 -0.9829 -0.1280
 1728TIP3    H126599   3.523   1.937  12.007  2.5641  1.0115 -0.0212
 1728TIP3    H226600   3.508   1.862  11.876 -0.5689  1.7991 -0.1543
 1729TIP3   OH226601   5.820   4.654  12.178 -0.4301  0.8843  0.2003
 1729TIP3    H126602   5.843   4.725  12.237 -0.8871  0.8078  0.4741
 1729TIP3    H226603   5.770   4.696  12.107  0.6244  1.0649 -0.4420
 1730TIP3   OH226604   6.885   2.297  11.218 -0.0549  0.1030 -0.1516
 1730TIP3    H126605   6.878   2.279  11.312  0.7417 -1.9708 -0.4744
 1730TIP3    H226606   6.795   2.295  11.186 -0.1426 -1.5472  0.1639
 1731TIP3   OH226607   6.757   5.074  10.326  0.0638  0.0953 -0.0033
 1731TIP3    H126608   6.729   4.993  10.283 -3.8913 -0.2253  2.8932
 1731TIP3    H226609   6.772   5.135  10.253 -1.5306 -1.8782 -2.0706
 1732TIP3   OH226610   5.462   1.099  10.108 -0.7501 -0.3060 -0.3434
 1732TIP3    H126611   5.523   1.156  10.061 -0.1900 -0.4496  0.2079
 1732TIP3    H226612   5.508   1.016  10.116 -0.1778  0.1904  1.8932
 1733TIP3   OH226613   6.716   1.603   9.856 -0.2415 -0.3005 -0.2864
 1733TIP3    H126614   6.656   1.672   9.827 -2.3508 -2.1548 -0.5442
 1733TIP3    H226615   6.754   1.636   9.937 -1.7499  0.8727 -0.0388
 1734TIP3   OH226616   3.803   2.987  10.658 -0.4907 -0.2174 -0.2204
 1734TIP3    H126617   3.802   3.025  10.570 -1.2133  1.9626  0.6977
 1734TIP3    H226618   3.717   3.008  10.694  0.4490  0.4911  1.6632
 1735TIP3   OH226619   5.758   6.142  11.775  0.2457  0.2435  0.4830
 1735TIP3    H126620   5.690   6.083  11.807 -0.5704  0.5168 -0.7237
 1735TIP3    H226621   5.840   6.096  11.793 -0.3453 -0.9259  0.2252
 1736TIP3   OH226622   1.173   0.800  11.172 -0.2765  0.0885  0.2790
 1736TIP3    H126623   1.098   0.758  11.129  0.5040 -1.6465  0.5650
 1736TIP3    H226624   1.214   0.853  11.104  0.9134 -2.5895 -1.1723
 1737TIP3   OH226625   7.207   3.045  12.564 -0.2183 -0.3465  0.0510
 1737TIP3    H126626   7.216   2.987  12.639  0.2764  0.7536  0.8527
 1737TIP3    H226627   7.115   3.072  12.565 -0.3587 -0.8160 -0.1016
 1738TIP3   OH226628   5.288   3.747  13.026 -0.1517  0.0998  0.0703
 1738TIP3    H126629   5.223   3.782  12.965  0.0340  0.7361  0.2350
 1738TIP3    H226630   5.371   3.783  12.996 -0.0995  0.6523  0.8859
 1739TIP3   OH226631   0.287   2.542  10.519  0.5174 -0.0494  0.0219
 1739TIP3    H126632   0.310   2.479  10.451  0.5029 -1.9812  1.7811
 1739TIP3    H226633   0.284   2.626  10.473 -2.6927 -1.7205 -3.0650
 1740TIP3   OH226634   6.237   2.260  11.492  0.1711  0.0123  0.8372
 1740TIP3    H126635   6.242   2.285  11.400  0.7550  0.5308  1.0095
 1740TIP3    H226636   6.283   2.177  11.498  1.7441  0.8862  0.9890
 1741TIP3   OH226637   6.969   1.624  12.629  0.0537 -1.0008  0.1680
 1741TIP3    H126638   6.970   1.531  12.650  0.1408 -1.0334  0.0187
 1741TIP3    H226639   7.033   1.634  12.559 -0.7330 -1.0078 -0.5724
 1742TIP3   OH226640   0.290   1.894  13.308  1.3350  0.6583 -0.4413
 1742TIP3    H126641   0.331   1.822  13.356  0.3537 -0.0973 -0.7197
 1742TIP3    H226642   0.311   1.972  13.358  0.4580 -0.1002  1.1265
 1743TIP3   OH226643   1.440   3.515  11.512  0.4817  0.4012  0.4501
 1743TIP3    H126644   1.349   3.530  11.484  0.8902  0.6932 -0.7404
 1743TIP3    H226645   1.437   3.432  11.559 -0.6580  1.0951  1.6431
 1744TIP3   OH226646   0.901   0.933  14.417  0.8849  0.3200 -0.1398
 1744TIP3    H126647   0.954   1.008  14.392  0.3063  0.8905  0.3307
 1744TIP3    H226648   0.861   0.903  14.336  0.4050  1.0760 -0.1810
 1745TIP3   OH226649   4.040   4.876  11.879 -0.0886  0.0684 -0.4484
 1745TIP3    H126650   4.036   4.787  11.843 -1.8961 -0.6012  1.2801
 1745TIP3    H226651   4.098   4.867  11.956 -1.8337 -0.0840  0.8798
 1746TIP3   OH226652   3.308   2.234  12.045 -0.5107  0.2879 -0.4438
 1746TIP3    H126653   3.370   2.161  12.047 -0.6549  0.1663 -0.4528
 1746TIP3    H226654   3.278   2.238  11.955 -0.5971  0.2795 -0.4155
 1747TIP3   OH226655   0.600   5.051  13.648 -0.3269  0.1842  0.0975
 1747TIP3    H126656   0.688   5.053  13.685 -0.9264  1.7844  1.5184
 1747TIP3    H226657   0.556   4.980  13.693 -0.1134  0.1173  0.2011
 1748TIP3   OH226658   6.239   2.144  13.383 -0.3987 -0.0477  0.2841
 1748TIP3    H126659   6.264   2.081  13.450 -0.5263  1.3272  1.6568
 1748TIP3    H226660   6.152   2.115  13.355 -1.4399  0.7504  2.5131
 1749TIP3   OH226661   5.191   3.322  10.748 -0.2187 -0.0073  0.2492
 1749TIP3    H126662   5.112   3.325  10.802 -0.7766 -0.3350 -0.5581
 1749TIP3    H226663   5.161   3.341  10.659  1.0448  3.0433  0.4050
 1750TIP3   OH226664   2.675   2.744  11.901 -0.2008  0.3780  0.0085
 1750TIP3    H126665   2.732   2.751  11.825  1.3366  0.5287  1.1503
 1750TIP3    H226666   2.735   2.732  11.975 -1.6053  1.3618  1.3371
 1751TIP3   OH226667   5.754   1.096  12.287 -0.1466  0.2572 -0.7852
 1751TIP3    H126668   5.720   1.077  12.375  0.5461  2.1007 -0.0884
 1751TIP3    H226669   5.782   1.011  12.253  2.4531 -0.0997  2.0051
 1752TIP3   OH226670   4.635   3.407  11.407  0.2700 -0.2867 -0.4039
 1752TIP3    H126671   4.660   3.499  11.403  1.7621 -0.7651 -2.9812
 1752TIP3    H226672   4.542   3.406  11.385  0.1189  0.6230  0.1613
 1753TIP3   OH226673   6.432   0.389  13.170  0.6242 -0.0144  0.4060
 1753TIP3    H126674   6.450   0.295  13.176  2.1653  0.3496  1.4647
 1753TIP3    H226675   6.478   0.417  13.091 -2.3690 -0.7085 -1.6807
 1754TIP3   OH226676   4.906   2.252  12.165  0.3529  0.9979 -0.1459
 1754TIP3    H126677   4.911   2.194  12.088 -1.5966 -0.3847  0.7324
 1754TIP3    H226678   4.997   2.264  12.192  1.0627  1.3829 -2.5728
 1755TIP3   OH226679   7.102   4.681  10.808 -0.0005  0.3133 -0.1250
 1755TIP3    H126680   7.040   4.709  10.875  0.7456  1.5183  0.0815
 1755TIP3    H226681   7.062   4.603  10.769  0.2711 -1.3871  2.7959
 1756TIP3   OH226682   5.677   3.133  11.294  0.1446 -0.0926 -0.1668
 1756TIP3    H126683   5.688   3.159  11.202  2.9847  0.3671  0.2671
 1756TIP3    H226684   5.653   3.041  11.290 -1.0471  0.2426 -1.3919
 1757TIP3   OH226685   2.015   2.900  14.144  0.1647 -0.0080  0.0939
 1757TIP3    H126686   1.978   2.972  14.093 -1.4970 -1.6612 -1.0869
 1757TIP3    H226687   2.093   2.874  14.095  0.0399  0.1322 -0.1821
 1758TIP3   OH226688   4.321   3.597  10.505  0.8121 -0.3527  0.0892
 1758TIP3    H126689   4.382   3.598  10.431 -0.9218 -0.4704 -1.3642
 1758TIP3    H226690   4.276   3.681  10.500  2.4886  0.7393  2.5751
 1759TIP3   OH226691   7.187   4.047   9.998  0.0967 -0.2478  0.5231
 1759TIP3    H126692   7.281   4.032   9.994  0.2741  0.8619  0.2440
 1759TIP3    H226693   7.175   4.136   9.964 -1.0007 -0.2009  0.9885
 1760TIP3   OH226694   0.035   3.115  12.299 -0.3001  0.3708  0.0410
 1760TIP3    H126695  -0.028   3.134  12.230 -0.1590 -0.8422 -0.4368
 1760TIP3    H226696  -0.018   3.098  12.376 -0.5671 -0.5736 -0.3410
 1761TIP3   OH226697   4.766   3.099  12.422 -0.0130  0.3804 -0.0938
 1761TIP3    H126698   4.680   3.062  12.442  0.4467  0.1901  1.5571
 1761TIP3    H226699   4.827   3.026  12.434  0.1591 -0.1722 -3.6554
 1762TIP3   OH226700   1.097   0.486  12.122  0.2980  0.0508  0.3796
 1762TIP3    H126701   1.181   0.462  12.161  0.9408 -0.7426 -1.4578
 1762TIP3    H226702   1.033   0.435  12.171  1.0275 -0.4885  0.7896
 1763TIP3   OH226703   6.311   4.692  10.801  0.1034  0.3773 -0.2926
 1763TIP3    H126704   6.316   4.597  10.810 -1.3191  0.4544  1.4818
 1763TIP3    H226705   6.391   4.725  10.843  0.3027  0.0061 -0.3819
 1764TIP3   OH226706   5.897   2.210  12.395 -0.0032  0.2995 -0.6658
 1764TIP3    H126707   5.973   2.221  12.452  0.2744 -0.0787 -0.9595
 1764TIP3    H226708   5.889   2.293  12.349  1.0475 -0.1255 -1.6270
 1765TIP3   OH226709   6.205   2.979   9.558  0.2115  0.6956 -0.1872
 1765TIP3    H126710   6.262   2.968   9.482  2.4369  0.5928  1.4504
 1765TIP3    H226711   6.264   2.981   9.633 -1.9520  0.4307  1.6015
 1766TIP3   OH226712   2.867   2.713  12.449 -0.5525  0.2575 -0.2190
 1766TIP3    H126713   2.954   2.739  12.420 -0.0836 -0.6907  0.3015
 1766TIP3    H226714   2.813   2.715  12.370  0.2691 -0.4801 -0.8106
 1767TIP3   OH226715   6.666   1.990  12.806  0.3194  0.3744 -0.6364
 1767TIP3    H126716   6.642   1.956  12.719  0.5538 -3.6873  0.7672
 1767TIP3    H226717   6.762   1.988  12.806  0.3154  0.2412 -0.2404
 1768TIP3   OH226718   0.112   4.192  12.536 -0.6314 -0.1652  0.3307
 1768TIP3    H126719   0.105   4.101  12.509 -0.9244 -0.4216  1.2725
 1768TIP3    H226720   0.203   4.203  12.563 -1.3084 -0.9690  3.0392
 1769TIP3   OH226721   6.209   2.500  12.915 -0.9692  0.0343  0.3123
 1769TIP3    H126722   6.291   2.532  12.879 -0.6472 -0.1865  0.8406
 1769TIP3    H226723   6.226   2.408  12.936 -2.1502 -0.7539 -2.0237
 1770TIP3   OH226724   5.132   1.939  10.612  0.3787  0.2250 -0.0807
 1770TIP3    H126725   5.179   1.932  10.696 -0.0513 -2.7904 -0.0373
 1770TIP3    H226726   5.176   1.877  10.555 -0.1411  1.3436 -1.7332
 1771TIP3   OH226727   1.650   3.670  14.262  0.3203 -0.0058  0.3140
 1771TIP3    H126728   1.641   3.761  14.234 -1.4915 -0.6023 -1.2145
 1771TIP3    H226729   1.675   3.623  14.182  1.4957 -0.8142  1.1443
 1772TIP3   OH226730   3.008   4.751  11.328 -0.0509  0.0140 -0.1330
 1772TIP3    H126731   2.985   4.818  11.392 -2.1583  0.0315 -0.8769
 1772TIP3    H226732   3.074   4.697  11.373  0.1829  1.3550  1.1994
 1773TIP3   OH226733   6.574   5.400  11.589  0.1562 -0.7033  0.1544
 1773TIP3    H126734   6.497   5.456  11.591  0.6187 -0.0866  0.9976
 1773TIP3    H226735   6.612   5.407  11.677  0.2697 -2.2649  0.2515
 1774TIP3   OH226736   5.234   2.827  11.646 -0.0854  0.2533 -0.4671
 1774TIP3    H126737   5.198   2.781  11.570 -0.5799 -0.0550 -0.0543
 1774TIP3    H226738   5.265   2.757  11.703 -0.9582  0.4108  0.2254
 1775TIP3   OH226739   0.292   6.558  15.012  0.1848 -0.1528 -0.2295
 1775TIP3    H126740   0.221   6.500  14.984  0.9346 -2.4860  2.4885
 1775TIP3    H226741   0.247   6.637  15.042 -1.3457 -1.7227  1.7571
 1776TIP3   OH226742   5.542   3.118  10.858 -1.0027  0.0433 -0.0433
 1776TIP3    H126743   5.534   3.165  10.940  0.4348 -0.6272  0.4938
 1776TIP3    H226744   5.524   3.183  10.790 -1.0058  0.8741  0.7589
 1777TIP3   OH226745   2.009   1.198  13.729 -0.4312 -0.1817 -0.3557
 1777TIP3    H126746   2.049   1.235  13.807  2.2844 -0.8211 -1.3890
 1777TIP3    H226747   1.989   1.275  13.674  3.0244 -0.0302 -1.4893
 1778TIP3   OH226748   0.926   1.140  12.816  0.1290 -0.0487  0.0032
 1778TIP3    H126749   0.937   1.061  12.763 -0.1809  0.8472 -1.4037
 1778TIP3    H226750   0.831   1.146  12.831  0.1740 -0.0626  0.3058
 1779TIP3   OH226751   0.343   2.300  11.628  0.1933 -0.4595 -0.0662
 1779TIP3    H126752   0.257   2.286  11.668  0.6925 -1.4868  0.6639
 1779TIP3    H226753   0.335   2.262  11.540 -0.1149 -0.4713 -0.0327
 1780TIP3   OH226754   0.095   4.470  11.543  0.9777  0.2194 -0.6601
 1780TIP3    H126755   0.044   4.417  11.482  0.1032  2.1756 -1.6837
 1780TIP3    H226756   0.141   4.406  11.598 -2.6689 -1.6572  0.3966
 1781TIP3   OH226757   6.117   1.197  11.723  0.1422 -0.0716 -0.1457
 1781TIP3    H126758   6.158   1.206  11.809 -0.6040  0.6450  0.1343
 1781TIP3    H226759   6.102   1.287  11.694 -0.1466 -0.3191 -0.7684
 1782TIP3   OH226760   7.139   3.389  10.923 -0.0550 -0.2630 -0.5112
 1782TIP3    H126761   7.059   3.394  10.872  0.1988 -2.5943 -1.1781
 1782TIP3    H226762   7.209   3.376  10.859  0.5750 -0.6334  0.2305
 1783TIP3   OH226763   5.932   3.669  10.382  0.7264  0.2998 -0.0425
 1783TIP3    H126764   5.879   3.601  10.341 -0.5565 -0.5396  2.8581
 1783TIP3    H226765   5.987   3.621  10.444  2.0763  1.5996 -0.2212
 1784TIP3   OH226766   6.423   2.258  11.933 -0.2524  0.1523 -0.5590
 1784TIP3    H126767   6.357   2.267  11.864  0.2630  1.7650 -0.8642
 1784TIP3    H226768   6.465   2.344  11.937 -2.1075  0.9966  3.6236
 1785TIP3   OH226769   1.605   5.071  10.840 -0.5292  0.0016 -0.9459
 1785TIP3    H126770   1.650   4.986  10.847  0.7230  0.7500  0.4009
 1785TIP3    H226771   1.629   5.117  10.921 -0.1474  2.1554 -2.2499
 1786TIP3   OH226772   0.827   0.350  11.868  0.0189  0.6845 -0.5684
 1786TIP3    H126773   0.828   0.256  11.848  1.9804  0.6657 -0.4464
 1786TIP3    H226774   0.882   0.389  11.800 -0.5609  1.7097 -0.4425
 1787TIP3   OH226775   0.532   4.290  10.388  0.1557 -0.1410  0.4389
 1787TIP3    H126776   0.617   4.312  10.425  0.2476 -1.0639  0.7988
 1787TIP3    H226777   0.508   4.366  10.335  1.0207  0.2858  0.6527
 1788TIP3   OH226778   2.296   5.328  11.733  0.2685  0.0787  0.1060
 1788TIP3    H126779   2.288   5.233  11.744 -0.0237 -0.1421 -1.7964
 1788TIP3    H226780   2.362   5.339  11.665  0.5155  1.2500  0.5316
 1789TIP3   OH226781   6.545   5.328  11.174  0.3451  0.0706 -0.4372
 1789TIP3    H126782   6.615   5.375  11.219  0.4405  0.4609 -0.9833
 1789TIP3    H226783   6.528   5.380  11.095  0.0011 -0.4575 -0.7151
 1790TIP3   OH226784   6.478   5.882  11.269 -0.2537  0.1329 -0.3872
 1790TIP3    H126785   6.569   5.857  11.256 -0.2504  0.7704 -1.6790
 1790TIP3    H226786   6.430   5.799  11.267  0.3729 -0.2704  1.0543
 1791TIP3   OH226787   1.286   7.237  13.104 -0.0993  0.0820 -0.5733
 1791TIP3    H126788   1.244   7.173  13.047 -0.2503 -2.4229  2.1988
 1791TIP3    H226789   1.220   7.258  13.170  0.7999  1.2063  0.0040
 1792TIP3   OH226790   7.232   7.277  12.725 -0.0972 -0.1290  0.0503
 1792TIP3    H126791   7.221   7.184  12.744  1.0896  0.1256  2.1324
 1792TIP3    H226792   7.261   7.280  12.634  1.6366 -1.9188  0.5084
 1793TIP3   OH226793   4.875   3.589  11.236 -0.1544  0.3316  0.2304
 1793TIP3    H126794   4.811   3.621  11.172  0.0073 -0.8155 -0.5133
 1793TIP3    H226795   4.838   3.614  11.321  0.0008  2.5462 -0.3215
 1794TIP3   OH226796   5.377   1.923  11.228  0.3816 -0.3338  0.0290
 1794TIP3    H126797   5.288   1.892  11.212 -0.3259  2.4952 -1.8405
 1794TIP3    H226798   5.369   1.986  11.299  0.6518  0.9458 -1.0522
 1795TIP3   OH226799   0.658   3.060  10.341  0.3506 -0.4430  0.0995
 1795TIP3    H126800   0.606   2.988  10.307 -0.8879 -0.2777  1.6018
 1795TIP3    H226801   0.721   3.019  10.401  0.8921 -0.4747 -0.4910
 1796TIP3   OH226802   1.498   2.621  14.124  0.3443  0.0217  1.0757
 1796TIP3    H126803   1.457   2.540  14.154  0.7273 -0.0314  1.4560
 1796TIP3    H226804   1.424   2.678  14.102  0.0708 -0.3087  1.1295
 1797TIP3   OH226805   6.932   1.140  11.962  0.3948  0.1911  0.0354
 1797TIP3    H126806   6.847   1.133  11.919  0.5631 -3.5506  0.1654
 1797TIP3    H226807   6.912   1.181  12.046 -1.1459  0.1139 -0.2673
 1798TIP3   OH226808   7.066   1.338  12.661  0.0689 -0.4356  0.6260
 1798TIP3    H126809   7.160   1.342  12.646 -0.1017  3.2196  0.0343
 1798TIP3    H226810   7.056   1.354  12.755  0.0473 -0.9296  0.7067
 1799TIP3   OH226811   4.501   3.788  10.310  0.5318  0.0220 -0.3800
 1799TIP3    H126812   4.533   3.699  10.326  0.5369  0.2023  0.6219
 1799TIP3    H226813   4.533   3.809  10.223  3.7664  0.4563  0.8398
 1800TIP3   OH226814   1.761   0.184  14.535 -0.9102 -0.1842 -0.1662
 1800TIP3    H126815   1.685   0.222  14.491  0.3649  2.6459  0.0054
 1800TIP3    H226816   1.744   0.196  14.628 -0.9305 -0.9296 -0.0675
 1801TIP3   OH226817   6.139   3.538  11.094 -0.2556  0.0767 -0.4517
 1801TIP3    H126818   6.056   3.507  11.129 -0.5347  1.4810  0.1652
 1801TIP3    H226819   6.120   3.625  11.059  1.0127  0.5515 -0.0061
 1802TIP3   OH226820   6.226   4.095   9.911  0.4430  0.2674  0.5891
 1802TIP3    H126821   6.318   4.075   9.898  0.4531  0.3453  0.5474
 1802TIP3    H226822   6.211   4.175   9.861 -0.5687 -1.9006 -2.7665
 1803TIP3   OH226823   5.713   7.125  14.315 -0.2336 -0.0429 -0.2134
 1803TIP3    H126824   5.718   7.219  14.327  1.2435 -0.1200 -0.1023
 1803TIP3    H226825   5.796   7.101  14.273 -1.7838 -0.9136 -2.9227
 1804TIP3   OH226826   6.603   0.827  12.716  0.6619  0.1435 -0.2380
 1804TIP3    H126827   6.578   0.777  12.639  1.5740  0.1156 -0.5229
 1804TIP3    H226828   6.569   0.915  12.701  0.1104 -0.0776 -0.2875
 1805TIP3   OH226829   6.196   3.753  12.636 -0.2110  0.4265 -0.0394
 1805TIP3    H126830   6.151   3.837  12.651 -0.0501  0.5488 -0.2269
 1805TIP3    H226831   6.289   3.777  12.629 -0.5122  0.8063 -4.1383
 1806TIP3   OH226832   2.690   3.000  13.030 -0.3110 -0.1254 -0.0831
 1806TIP3    H126833   2.659   2.992  13.120  1.2686 -0.2025  0.4739
 1806TIP3    H226834   2.631   2.944  12.980 -1.3023  0.0430  0.8734
 1807TIP3   OH226835   5.297   4.564  10.337 -0.1359  0.0882 -0.8409
 1807TIP3    H126836   5.331   4.619  10.268  1.7704  1.8229  1.4100
 1807TIP3    H226837   5.323   4.608  10.418 -1.0284 -2.6300  0.9930
 1808TIP3   OH226838   0.402   2.292  11.358  0.0661 -0.0093 -0.4514
 1808TIP3    H126839   0.418   2.210  11.312  1.6575  1.3103 -2.3053
 1808TIP3    H226840   0.325   2.330  11.314 -0.2898 -0.1899  0.0023
 1809TIP3   OH226841   7.132   2.646  11.356 -0.4125  0.1812  1.0274
 1809TIP3    H126842   7.222   2.622  11.335 -1.0758 -2.4304  0.9763
 1809TIP3    H226843   7.139   2.728  11.406  1.9414  0.2117  0.6717
 1810TIP3   OH226844   0.840   4.415  10.136  0.1059  0.0224 -0.0717
 1810TIP3    H126845   0.863   4.426  10.044 -2.6775 -1.1843 -0.9551
 1810TIP3    H226846   0.779   4.487  10.154  0.4060  0.0746  0.7525
 1811TIP3   OH226847   1.304   6.808  13.036  0.0533 -1.1341  0.5078
 1811TIP3    H126848   1.208   6.803  13.040  0.0495 -1.2405  0.3071
 1811TIP3    H226849   1.326   6.772  12.950  0.3692 -2.5873  1.1828
 1812TIP3   OH226850   6.157   2.153  11.033  0.5413  0.0414  0.0451
 1812TIP3    H126851   6.156   2.063  10.999 -1.2307 -0.0612  0.2773
 1812TIP3    H226852   6.084   2.196  10.988  0.1073  0.7841  1.4172
 1813TIP3   OH226853   3.856   3.893  10.921  0.1167 -0.3910  0.5360
 1813TIP3    H126854   3.771   3.926  10.890  0.1262  0.4887  1.3977
 1813TIP3    H226855   3.873   3.944  11.000  0.6241 -1.7872  1.3450
 1814TIP3   OH226856   5.417   2.736  10.241 -0.1446  0.0091  0.0022
 1814TIP3    H126857   5.473   2.806  10.275  1.2685 -0.5231 -1.2245
 1814TIP3    H226858   5.474   2.682  10.188 -0.8955 -2.9655  2.0788
 1815TIP3   OH226859   5.933   1.073  11.340  0.0725  0.1842 -0.5908
 1815TIP3    H126860   5.932   1.158  11.297 -1.4378 -0.0309 -1.0129
 1815TIP3    H226861   5.961   1.012  11.272  2.1042  0.4475 -0.0353
 1816TIP3   OH226862   0.290   2.284  12.686  0.3919 -0.3252 -0.1065
 1816TIP3    H126863   0.205   2.291  12.643 -0.0985 -1.7476  0.5689
 1816TIP3    H226864   0.344   2.352  12.647 -0.2685 -1.0906 -2.4097
 1817TIP3   OH226865   0.727   3.691  11.466  0.0559 -0.2036 -0.2913
 1817TIP3    H126866   0.686   3.610  11.496  2.8033 -1.5313  0.0095
 1817TIP3    H226867   0.661   3.732  11.410 -2.2815 -1.4312  1.4875
 1818TIP3   OH226868   1.620   6.325   9.814 -0.1934  0.0229  0.0596
 1818TIP3    H126869   1.635   6.419   9.812  0.6795 -0.1261 -0.8696
 1818TIP3    H226870   1.694   6.289   9.862  0.0212 -0.2795 -0.4867
 1819TIP3   OH226871   0.882   3.974  12.236  0.4124 -0.2762 -0.1707
 1819TIP3    H126872   0.830   3.894  12.245  1.1115 -1.1583 -3.3257
 1819TIP3    H226873   0.958   3.947  12.185  0.9172  2.3137 -0.8415
 1820TIP3   OH226874   1.600   1.723  10.121  0.1470 -0.3081 -0.2875
 1820TIP3    H126875   1.679   1.768  10.148  2.0531 -2.1769 -2.5737
 1820TIP3    H226876   1.573   1.767  10.040 -0.2886 -0.6646 -0.3400
 1821TIP3   OH226877   1.036   3.073  11.382  0.0172  0.4106 -0.3365
 1821TIP3    H126878   1.003   2.987  11.404 -0.9215  0.5763 -1.0832
 1821TIP3    H226879   1.019   3.127  11.459 -2.7511  0.8498 -1.2195
 1822TIP3   OH226880   5.940   5.126  10.446  0.4552 -0.0358 -0.1093
 1822TIP3    H126881   5.996   5.198  10.417  0.3322  0.1442  0.0909
 1822TIP3    H226882   5.935   5.067  10.372  0.6638  0.1001 -0.2316
 1823TIP3   OH226883   6.929   4.996  10.548 -0.2515  0.4033 -0.7480
 1823TIP3    H126884   6.913   4.947  10.629  1.3420  0.8825 -0.1405
 1823TIP3    H226885   6.860   4.965  10.489  0.1391 -1.8758 -0.0752
 1824TIP3   OH226886   1.298   6.035  12.617 -0.4788 -0.2962  0.5132
 1824TIP3    H126887   1.250   6.116  12.637 -0.0259  0.1941 -0.3575
 1824TIP3    H226888   1.358   6.024  12.691  1.1832  1.5095 -0.5059
 1825TIP3   OH226889   7.209   4.828  10.204 -0.4269  0.1832 -0.6557
 1825TIP3    H126890   7.120   4.827  10.171 -0.0393  1.4912 -1.7522
 1825TIP3    H226891   7.211   4.902  10.265  0.3938  1.3565 -2.0653
 1826TIP3   OH226892   1.362   4.569   9.825 -0.0059 -0.6988 -0.1471
 1826TIP3    H126893   1.381   4.479   9.800 -0.0541 -0.7057 -0.1583
 1826TIP3    H226894   1.417   4.623   9.768  0.2128 -0.7280  0.0334
 1827TIP3   OH226895   6.909   3.990  12.438  0.2087  0.1808 -0.0338
 1827TIP3    H126896   6.847   4.048  12.394  0.5460  0.8655  0.3802
 1827TIP3    H226897   6.987   3.991  12.383  0.0542 -0.2220 -0.2566
 1828TIP3   OH226898   6.925   3.995  11.019  0.3768  0.2232 -0.4235
 1828TIP3    H126899   6.919   3.900  11.034  1.1877  0.6154  2.8077
 1828TIP3    H226900   7.002   4.005  10.962 -0.1344 -1.1048 -1.3681
 1829TIP3   OH226901   3.148   4.005  11.120 -0.7831  0.3297  0.1851
 1829TIP3    H126902   3.090   3.946  11.072 -0.7297  0.0134  0.5038
 1829TIP3    H226903   3.234   3.963  11.117 -0.9551 -0.1242  1.2833
 1830TIP3   OH226904   2.415   4.298  11.380 -0.1507 -0.2413  0.3903
 1830TIP3    H126905   2.424   4.205  11.359  0.2308 -0.1375  0.0663
 1830TIP3    H226906   2.488   4.340  11.333 -0.8427  0.3287 -0.1955
 1831TIP3   OH226907   1.054   4.536  10.293 -0.3422  0.2685 -0.3322
 1831TIP3    H126908   0.991   4.496  10.233  1.5001 -0.2249 -2.0087
 1831TIP3    H226909   1.089   4.462  10.343  0.2531  0.2879 -0.7174
 1832TIP3   OH226910   1.822   2.819  10.098  0.3837 -0.3242  0.0888
 1832TIP3    H126911   1.903   2.844  10.053  1.5503  0.1638  2.4109
 1832TIP3    H226912   1.851   2.760  10.168 -1.4895 -1.7109 -0.2710
 1833TIP3   OH226913   0.996   3.408  12.300 -0.1899  0.1887  0.2465
 1833TIP3    H126914   1.037   3.334  12.345 -0.7596  0.4952  1.3035
 1833TIP3    H226915   1.068   3.467  12.279  0.1530 -0.2284  0.2414
 1834TIP3   OH226916   0.411   3.112  11.300 -0.0024 -0.0407 -0.0672
 1834TIP3    H126917   0.378   3.099  11.389 -2.1876 -0.2867 -0.8649
 1834TIP3    H226918   0.439   3.025  11.272  0.4846 -0.0027  0.2961
 1835TIP3   OH226919   0.565   3.274  10.612  0.0471 -0.6706  0.0747
 1835TIP3    H126920   0.483   3.292  10.658  0.0931  0.1113 -0.1536
 1835TIP3    H226921   0.632   3.279  10.680 -0.0540 -1.0395  0.2083
 1836TIP3   OH226922   6.295   3.365  11.877 -0.4388  0.1431 -0.3704
 1836TIP3    H126923   6.313   3.431  11.945 -1.1500 -0.5250  0.4819
 1836TIP3    H226924   6.219   3.400  11.830 -0.4771  0.1932 -0.2726
 1837TIP3   OH226925   4.363   0.560  11.983  0.4589  0.8362  0.0139
 1837TIP3    H126926   4.395   0.573  11.894 -2.0073  0.4692 -0.9509
 1837TIP3    H226927   4.414   0.622  12.036  2.4223  0.5677 -1.5092
 1838TIP3   OH226928   0.308   1.801  11.050 -0.2007 -0.2739  0.1363
 1838TIP3    H126929   0.257   1.773  10.974  0.7971 -0.2793 -0.5477
 1838TIP3    H226930   0.374   1.733  11.061  1.1667  0.9214 -0.4836
 1839TIP3   OH226931   6.835   4.150  12.213 -0.1508 -0.0375  0.0955
 1839TIP3    H126932   6.922   4.188  12.199 -0.4471  0.8710  0.6767
 1839TIP3    H226933   6.835   4.070  12.161  0.7250  0.4087 -0.5964
 1840TIP3   OH226934   4.377   2.591  11.800 -0.1911  0.0522 -0.2495
 1840TIP3    H126935   4.290   2.553  11.789  0.1489 -1.0244  0.6775
 1840TIP3    H226936   4.388   2.601  11.894  0.7227  0.1174 -0.3535
 1841TIP3   OH226937   1.226   3.806  10.527  0.2077 -0.0667  0.6851
 1841TIP3    H126938   1.133   3.794  10.507  0.5686 -1.1599 -0.4055
 1841TIP3    H226939   1.227   3.845  10.614 -1.2781  0.1709  0.6106
 1842TIP3   OH226940   1.999   4.811  11.307 -0.1601  0.1979  0.2420
 1842TIP3    H126941   1.972   4.811  11.215  0.2166  2.6977  0.0935
 1842TIP3    H226942   1.917   4.803  11.356 -0.5509  0.7646 -0.3045
 1843TIP3   OH226943   5.996   1.333  12.344  0.2719 -0.0223 -0.4079
 1843TIP3    H126944   5.933   1.278  12.390 -0.2252  1.1660  0.3417
 1843TIP3    H226945   6.074   1.278  12.335 -0.0290 -0.6552  0.8205
 1844TIP3   OH226946   1.421   5.992  10.963 -0.1219  0.2532  0.0173
 1844TIP3    H126947   1.410   6.044  11.042 -1.5959  1.7593 -1.1450
 1844TIP3    H226948   1.333   5.981  10.928  0.6568  1.0235 -2.2982
 1845TIP3   OH226949   2.786   3.166  10.391  0.2722  0.3383 -0.0545
 1845TIP3    H126950   2.722   3.237  10.378  2.0950  2.3620  1.6352
 1845TIP3    H226951   2.854   3.183  10.326  0.9010  0.3808  0.6090
 1846TIP3   OH226952   2.010   3.085  11.129 -0.4539 -0.1376  0.2002
 1846TIP3    H126953   1.974   3.137  11.201 -0.1972 -0.1857  0.3603
 1846TIP3    H226954   1.934   3.070  11.072 -0.8097 -0.6902  0.8074
 1847TIP3   OH226955   2.575   4.891  11.385 -0.3386 -0.2037  0.3681
 1847TIP3    H126956   2.511   4.821  11.368 -2.0363  1.0444  1.4077
 1847TIP3    H226957   2.622   4.860  11.463  0.0014 -0.9174 -0.1181
 1848TIP3   OH226958   4.372   1.873  11.605 -0.4576 -0.0478  0.6184
 1848TIP3    H126959   4.305   1.828  11.553  1.0328 -1.3082 -0.2487
 1848TIP3    H226960   4.450   1.817  11.597  0.3741  0.8108  2.5411
 1849TIP3   OH226961   3.280   3.586  13.290 -0.2604 -0.1410  0.5822
 1849TIP3    H126962   3.247   3.647  13.355  0.7309 -0.5017  1.4328
 1849TIP3    H226963   3.212   3.519  13.284 -0.2931 -0.1808  1.3526
 1850TIP3   OH226964   5.298   3.598  12.702 -0.2314 -0.0722  0.0129
 1850TIP3    H126965   5.274   3.657  12.774  0.5454  0.3929 -0.1095
 1850TIP3    H226966   5.368   3.544  12.737  0.7519  0.7370 -0.6593
 1851TIP3   OH226967   4.064   4.005  12.362 -0.4125 -0.4595  0.1747
 1851TIP3    H126968   4.010   4.070  12.316  0.4848 -0.0973 -0.3815
 1851TIP3    H226969   4.053   4.027  12.454 -1.1096 -0.3047  0.0609
 1852TIP3   OH226970   6.466   0.434  12.103 -0.1847 -0.6464 -0.4333
 1852TIP3    H126971   6.444   0.497  12.036  1.7999  0.2073 -0.3184
 1852TIP3    H226972   6.490   0.354  12.055  0.2495 -0.3514 -0.7118
 1853TIP3   OH226973   2.741   5.701  12.114  0.1594 -0.3504  0.4598
 1853TIP3    H126974   2.692   5.721  12.194  1.4734  0.1804  1.1482
 1853TIP3    H226975   2.802   5.774  12.104  2.1978 -1.9779  0.7480
 1854TIP3   OH226976   6.644   4.811  10.351 -0.1741  0.5248  0.0491
 1854TIP3    H126977   6.561   4.805  10.305  0.0724 -0.7179 -0.2620
 1854TIP3    H226978   6.661   4.722  10.382  0.8439  0.8460  0.4605
 1855TIP3   OH226979   1.112   6.077  12.107  0.1480 -0.1070  0.2112
 1855TIP3    H126980   1.163   6.000  12.133  0.6063  0.3956  0.7923
 1855TIP3    H226981   1.172   6.130  12.055  0.3077  0.6164  1.1220
 1856TIP3   OH226982   0.477   4.417  11.430  0.3977  0.0571  0.3629
 1856TIP3    H126983   0.470   4.342  11.489 -0.3137 -0.6511 -0.6114
 1856TIP3    H226984   0.569   4.419  11.404  1.2614  1.7717  3.2891
 1857TIP3   OH226985   0.734   5.491  10.885  0.3271  0.2616 -0.8003
 1857TIP3    H126986   0.771   5.469  10.799  2.8750  0.8522  0.0949
 1857TIP3    H226987   0.755   5.583  10.897 -0.0542  0.1903  0.4406
 1858TIP3   OH226988   0.574   5.822  11.519 -0.4309 -0.0589  0.0475
 1858TIP3    H126989   0.655   5.853  11.479  0.5110 -1.5895  0.6984
 1858TIP3    H226990   0.587   5.728  11.529 -1.8308 -0.1513  1.2131
 1859TIP3   OH226991   0.448   4.294  10.028 -0.1055 -0.7245 -0.0097
 1859TIP3    H126992   0.368   4.245  10.008 -0.1436  0.1252 -2.0793
 1859TIP3    H226993   0.519   4.236  10.001 -0.0824 -0.7250  0.0537
 1860TIP3   OH226994   6.607   1.678  13.147  0.0545 -0.5361  0.3047
 1860TIP3    H126995   6.681   1.739  13.138  0.7045 -1.3535  0.0608
 1860TIP3    H226996   6.623   1.633  13.230 -0.2631 -0.5853  0.3391
 1861TIP3   OH226997   6.719   1.063  11.832 -0.0802  0.2079  0.1204
 1861TIP3    H126998   6.678   1.060  11.746  0.3471 -0.3848 -0.0672
 1861TIP3    H226999   6.672   0.998  11.884 -0.6434  0.8948  0.4724
 1862TIP3   OH227000   1.599   5.416   9.577 -0.3827 -0.3008  0.2403
 1862TIP3    H127001   1.520   5.470   9.572  0.1806  0.4224 -0.9307
 1862TIP3    H227002   1.615   5.406   9.671 -1.0078  0.8086  0.4679
 1863TIP3   OH227003   0.070   4.136  12.057  0.5229 -0.0465 -0.5561
 1863TIP3    H127004   0.137   4.072  12.032  1.7464  0.9061  0.2217
 1863TIP3    H227005   0.113   4.192  12.121 -0.9756  0.6984 -0.1701
 1864TIP3   OH227006   2.144   1.781  11.478 -0.6385  0.5987  0.1458
 1864TIP3    H127007   2.054   1.767  11.448 -0.6889  1.5344 -0.1479
 1864TIP3    H227008   2.135   1.812  11.568 -0.6602  1.5438 -0.1710
 1865TIP3   OH227009   2.003   3.926  10.610  0.4477 -0.7650 -0.0624
 1865TIP3    H127010   2.073   3.975  10.652  0.3533  0.2861 -1.0754
 1865TIP3    H227011   2.007   3.839  10.648  1.0075 -0.1353  1.3561
 1866TIP3   OH227012   6.994   0.121  12.813  0.2035 -0.1820  0.9149
 1866TIP3    H127013   6.932   0.120  12.739  0.4232  0.3781  0.7161
 1866TIP3    H227014   7.060   0.056  12.790  1.1194  1.0790 -0.1379
 1867TIP3   OH227015   6.036   4.342  10.467 -0.3164  0.9899 -0.1332
 1867TIP3    H127016   6.121   4.383  10.485  0.0978 -0.1623  0.5866
 1867TIP3    H227017   6.050   4.249  10.486 -2.3407  1.1063  2.0934
 1868TIP3   OH227018   6.549   0.480  12.934  0.0404 -0.5482 -0.9347
 1868TIP3    H127019   6.615   0.427  12.889  0.9110  0.8475 -1.3223
 1868TIP3    H227020   6.595   0.560  12.960 -0.6161 -0.9977  1.8122
 1869TIP3   OH227021   6.949   3.121  10.265  0.0877  0.0652  0.2932
 1869TIP3    H127022   6.965   3.114  10.359 -0.4115  2.3659  0.5671
 1869TIP3    H227023   7.024   3.170  10.232 -0.4393  0.4881 -0.2795
 1870TIP3   OH227024   0.633   2.679  11.034 -0.5530  0.3776  0.3531
 1870TIP3    H127025   0.587   2.663  10.952  0.2565 -1.4270  0.2253
 1870TIP3    H227026   0.626   2.596  11.082 -0.6689  1.2760  1.9406
 1871TIP3   OH227027   4.538   3.320  10.241 -0.0131 -0.4443 -0.0431
 1871TIP3    H127028   4.487   3.318  10.322  0.8931  2.7438  0.6880
 1871TIP3    H227029   4.488   3.267  10.180 -1.8931 -1.0219  1.9302
 1872TIP3   OH227030   3.537   6.160  13.178  0.0451 -0.3940 -0.0678
 1872TIP3    H127031   3.557   6.069  13.200 -0.0945 -0.5085 -0.4086
 1872TIP3    H227032   3.514   6.200  13.262 -2.5645 -1.3677 -0.2512
 1873TIP3   OH227033   0.943   3.688  11.249  0.6507  0.8015 -0.0271
 1873TIP3    H127034   0.975   3.778  11.246  0.1751  1.0363  1.2003
 1873TIP3    H227035   0.893   3.684  11.331  2.2835 -1.1236  0.9100
 1874TIP3   OH227036   0.869   4.887  10.024 -0.1007  0.9183  0.3389
 1874TIP3    H127037   0.824   4.911   9.943  0.3753  0.0044 -0.1979
 1874TIP3    H227038   0.960   4.913  10.009  0.4166 -1.1181 -0.2275
 1875TIP3   OH227039   0.440   2.070  11.113  0.1735  0.1208 -0.0802
 1875TIP3    H127040   0.397   1.987  11.094 -0.6802  0.9631 -1.9783
 1875TIP3    H227041   0.507   2.078  11.046  1.4936  0.1056  1.2165
 1876TIP3   OH227042   7.130   5.752  10.849 -0.1442  0.1129 -0.1825
 1876TIP3    H127043   7.075   5.723  10.921  0.2075 -0.7123 -0.2426
 1876TIP3    H227044   7.072   5.804  10.793 -0.7203 -0.2951  0.0342
 1877TIP3   OH227045   0.952   4.758  10.838  0.0111 -0.1930 -0.1976
 1877TIP3    H127046   1.037   4.777  10.799  0.6886 -0.6032  1.0331
 1877TIP3    H227047   0.924   4.841  10.877 -1.1239  0.4688 -2.3720
 1878TIP3   OH227048   5.537   2.340  14.472 -0.7902  0.8074 -0.4054
 1878TIP3    H127049   5.577   2.377  14.393  2.0791  0.9701  1.0415
 1878TIP3    H227050   5.491   2.262  14.441  2.5882 -0.6871 -1.8891
 1879TIP3   OH227051   5.557   0.848  11.158 -0.5824 -0.7687  0.2147
 1879TIP3    H127052   5.619   0.829  11.087  0.5625 -0.0634  1.0238
 1879TIP3    H227053   5.476   0.869  11.112  0.1861 -0.1725 -0.9121
 1880TIP3   OH227054   6.616   3.494  11.086 -0.1349 -0.6020 -0.2622
 1880TIP3    H127055   6.564   3.435  11.141 -0.8678  1.0684  0.8789
 1880TIP3    H227056   6.584   3.582  11.108  1.6238  0.3023 -1.1892
 1881TIP3   OH227057   5.763   5.456  10.465  0.2054  0.5607  0.2704
 1881TIP3    H127058   5.847   5.417  10.441 -0.4063 -0.7447  0.1851
 1881TIP3    H227059   5.737   5.506  10.388 -0.4668 -1.4204 -0.8375
 1882TIP3   OH227060   0.034   5.359   9.333  0.3070  0.1887 -0.2127
 1882TIP3    H127061   0.090   5.314   9.398  0.8576  2.5233  0.9934
 1882TIP3    H227062  -0.031   5.293   9.309  0.0845 -0.7833  2.7266
 1883TIP3   OH227063   0.702   1.549  10.365  0.1916 -0.4803 -0.4521
 1883TIP3    H127064   0.643   1.566  10.292  0.0709  0.8856 -0.0440
 1883TIP3    H227065   0.727   1.635  10.396  0.0994 -1.0521  1.2476
 1884TIP3   OH227066   6.839   7.033  13.383  0.0181  0.4793  0.8251
 1884TIP3    H127067   6.761   6.988  13.413 -0.2089  1.1102  1.1883
 1884TIP3    H227068   6.839   7.116  13.431  1.0763  0.3504  1.0649
 1885TIP3   OH227069   7.125   4.623  11.775 -0.2427  0.5111 -0.2934
 1885TIP3    H127070   7.191   4.578  11.828  0.1172  1.7050  0.2723
 1885TIP3    H227071   7.046   4.620  11.829 -0.2347  0.5169 -0.2821
 1886TIP3   OH227072   5.107   3.114  11.464  0.1980  0.1365 -0.0073
 1886TIP3    H127073   5.150   3.131  11.380 -1.1084  0.1539 -0.6721
 1886TIP3    H227074   5.014   3.120  11.446 -0.1026  0.2764  1.4799
 1887TIP3   OH227075   0.232   0.339  10.395 -0.1299  0.1461  0.0827
 1887TIP3    H127076   0.297   0.270  10.409  0.1409 -0.0684 -2.0445
 1887TIP3    H227077   0.204   0.328  10.304 -0.5997  2.3917 -0.0806
 1888TIP3   OH227078   4.767   4.906  12.102  0.2491  0.1365 -0.7046
 1888TIP3    H127079   4.809   4.972  12.048  1.2105  0.6366  0.6421
 1888TIP3    H227080   4.675   4.908  12.075  0.1913  2.3020 -0.3995
 1889TIP3   OH227081   3.980   3.359  11.532  0.2705  0.4681 -0.3706
 1889TIP3    H127082   4.022   3.281  11.496  1.2819  0.4336  0.8734
 1889TIP3    H227083   4.022   3.432  11.486  0.3641  0.3548 -0.4630
 1890TIP3   OH227084   0.263   0.722  10.630 -0.7069 -0.1026 -0.5200
 1890TIP3    H127085   0.311   0.701  10.710 -2.2068 -1.8826 -0.0654
 1890TIP3    H227086   0.221   0.806  10.649 -1.0302 -0.4989  0.5329
 1891TIP3   OH227087   0.344   3.606  10.853  0.1331  0.4625 -0.2126
 1891TIP3    H127088   0.428   3.636  10.818  0.0499  0.0002 -0.8110
 1891TIP3    H227089   0.322   3.670  10.921  0.4813  1.1409 -0.7416
 1892TIP3   OH227090   0.862   2.281  11.508 -0.4304 -0.8698 -0.0321
 1892TIP3    H127091   0.935   2.342  11.520 -0.1681 -1.3225  0.7376
 1892TIP3    H227092   0.784   2.335  11.513 -0.2211 -0.6527  1.1712
 1893TIP3   OH227093   1.610   4.702  10.361 -0.6647 -0.0087  0.2596
 1893TIP3    H127094   1.697   4.666  10.341 -1.6263 -1.8605 -0.7524
 1893TIP3    H227095   1.569   4.712  10.276 -1.4718  0.8216  0.7459
 1894TIP3   OH227096   6.536   3.746  11.127  0.3581  0.2958  0.2203
 1894TIP3    H127097   6.508   3.816  11.068 -1.3670  0.1028  0.7828
 1894TIP3    H227098   6.485   3.760  11.207  0.7676 -0.9868  0.7184
 1895TIP3   OH227099   6.884   3.445  10.804 -0.1095 -0.0575  0.9654
 1895TIP3    H127100   6.790   3.456  10.810 -0.2922 -1.2419  0.3901
 1895TIP3    H227101   6.911   3.505  10.735 -0.8277 -1.6777 -0.7817
 1896TIP3   OH227102   7.235   1.653  10.638  0.0577 -0.1885 -0.5508
 1896TIP3    H127103   7.260   1.658  10.546 -0.1416 -3.0756 -0.8191
 1896TIP3    H227104   7.296   1.589  10.675 -0.6585  0.0343  1.0290
 1897TIP3   OH227105   4.662   3.224   9.952  0.1435  0.6915  0.3784
 1897TIP3    H127106   4.679   3.318   9.957  1.4953  0.4093  1.5637
 1897TIP3    H227107   4.606   3.213   9.875  0.9486  2.3291 -0.4638
 1898TIP3   OH227108   3.973   6.086  11.256  0.0809  0.0491 -0.1991
 1898TIP3    H127109   3.945   5.998  11.284  1.0840 -0.5753 -1.1275
 1898TIP3    H227110   3.946   6.091  11.165  2.0206 -0.1494 -0.7861
 1899TIP3   OH227111   0.903   5.307  10.461  0.1273 -0.2303 -0.3005
 1899TIP3    H127112   0.887   5.226  10.413 -1.4048  0.4706 -1.0045
 1899TIP3    H227113   0.978   5.287  10.516  0.7175 -1.6540 -1.5721
 1900TIP3   OH227114   2.975   2.210  10.823 -0.5431 -0.1096 -0.5918
 1900TIP3    H127115   2.904   2.145  10.817 -1.3234  0.6592  0.0318
 1900TIP3    H227116   3.003   2.206  10.915 -0.2377  0.0582 -0.6766
 1901TIP3   OH227117   1.745   3.300  11.027  0.0741 -0.4903 -0.5682
 1901TIP3    H127118   1.769   3.309  11.119 -1.0638  0.1637 -0.3258
 1901TIP3    H227119   1.766   3.209  11.005  0.1996 -0.6885  0.3812
 1902TIP3   OH227120   1.817   5.488  10.144 -0.5151 -0.1878 -0.2602
 1902TIP3    H127121   1.789   5.534  10.065  0.6239  0.3551 -0.3605
 1902TIP3    H227122   1.890   5.433  10.115 -0.5423 -0.5053  0.2757
 1903TIP3   OH227123   5.645   2.256  10.835  0.2229  0.7382  0.0567
 1903TIP3    H127124   5.551   2.257  10.850  0.2974  1.4660  0.4717
 1903TIP3    H227125   5.654   2.244  10.740 -0.2891  0.9921 -0.0245
 1904TIP3   OH227126   1.761   4.565   9.777 -0.0522  0.5183  0.3289
 1904TIP3    H127127   1.796   4.496   9.834 -0.5798  0.1295  0.1848
 1904TIP3    H227128   1.794   4.646   9.816 -0.1308  0.2398  1.0007
 1905TIP3   OH227129   0.306   4.892  10.417 -0.1668 -0.1177  0.2344
 1905TIP3    H127130   0.241   4.848  10.471 -1.0498  0.3214 -0.4474
 1905TIP3    H227131   0.353   4.821  10.373 -2.3540 -0.4086 -1.7581
 1906TIP3   OH227132   1.150   1.818  11.860  0.0912 -0.1252 -0.0641
 1906TIP3    H127133   1.178   1.870  11.935  0.5174 -0.0460 -0.2807
 1906TIP3    H227134   1.076   1.866  11.824  0.7186  0.5199 -0.4861
 1907TIP3   OH227135   1.315   5.047  10.712  0.0932 -0.2952 -0.0039
 1907TIP3    H127136   1.404   5.045  10.748  0.6025 -1.3014 -1.2759
 1907TIP3    H227137   1.264   4.992  10.770  0.9478 -2.0471 -0.8782
 1908TIP3   OH227138   3.033   4.309  11.909 -0.0173 -0.2437 -0.3517
 1908TIP3    H127139   2.948   4.309  11.865  0.2033  1.5655 -0.8383
 1908TIP3    H227140   3.094   4.276  11.843 -0.1300 -0.2015 -0.4780
 1909TIP3   OH227141   6.086   4.838  10.049 -0.3551  0.0439  0.8606
 1909TIP3    H127142   6.023   4.801   9.987 -0.3842 -0.0671  0.9589
 1909TIP3    H227143   6.158   4.775  10.051  0.3230  0.7612 -0.1863
 1910TIP3   OH227144   0.176   3.647  14.109  0.0895 -0.1142 -0.5080
 1910TIP3    H127145   0.214   3.694  14.034  0.3057 -0.2584 -0.4899
 1910TIP3    H227146   0.105   3.595  14.071  0.6504 -0.7354 -0.7338
 1911TIP3   OH227147   5.436   3.287  11.045 -0.5667 -0.2039 -0.5817
 1911TIP3    H127148   5.501   3.300  11.114 -0.2694 -0.8434 -0.7362
 1911TIP3    H227149   5.352   3.293  11.090 -0.3649 -1.0399 -0.0873
 1912TIP3   OH227150   2.196   2.958  10.187  0.2160 -0.0539  0.1923
 1912TIP3    H127151   2.255   3.034  10.196 -0.4005  0.7119 -1.9757
 1912TIP3    H227152   2.113   2.988  10.223  0.8108 -0.7788  2.2536
 1913TIP3   OH227153   0.760   4.063  10.216 -0.2767  0.6275  0.7793
 1913TIP3    H127154   0.718   4.112  10.145 -0.8347  1.5781  1.7523
 1913TIP3    H227155   0.854   4.076  10.202 -0.3505  0.2594 -0.1546
 1914TIP3   OH227156   0.988   1.749  11.454 -0.6873 -0.1524 -0.6756
 1914TIP3    H127157   0.993   1.845  11.460 -1.0688 -0.1937  0.6407
 1914TIP3    H227158   0.903   1.728  11.494 -0.4226 -1.0624 -0.5977
 1915TIP3   OH227159   2.783   3.010  14.757 -0.0242 -0.5350 -0.6100
 1915TIP3    H127160   2.773   2.917  14.778  0.0175 -0.4679 -0.2758
 1915TIP3    H227161   2.825   3.047  14.835  0.3807 -0.3242 -0.9269
 1916TIP3   OH227162   1.447   3.308  11.684  0.3753 -0.2714 -0.3237
 1916TIP3    H127163   1.418   3.221  11.711 -0.5624 -0.4877 -1.9199
 1916TIP3    H227164   1.534   3.295  11.648 -0.3559 -0.8317 -1.9461
 1917TIP3   OH227165   6.985   4.976   9.860  0.0087 -0.6173 -0.2330
 1917TIP3    H127166   6.982   4.888   9.897 -1.1692 -0.9086 -0.9978
 1917TIP3    H227167   6.906   5.019   9.893  0.6718  0.2231  0.2883
 1918TIP3   OH227168   0.328   6.614  15.375 -0.0919  0.7186  0.1031
 1918TIP3    H127169   0.353   6.626  15.283  2.3923 -0.2599  0.6266
 1918TIP3    H227170   0.381   6.677  15.423  1.4129 -1.3593  1.2362
 1919TIP3   OH227171   5.702   4.614   9.745 -0.0026  0.4955 -0.4418
 1919TIP3    H127172   5.631   4.678   9.743  0.4841  1.1613  1.9611
 1919TIP3    H227173   5.668   4.540   9.795  0.3229 -0.0336 -0.9873
 1920TIP3   OH227174   6.028   3.662  10.661 -0.1031  0.0083  0.1475
 1920TIP3    H127175   6.047   3.659  10.754 -0.7496  3.3932  0.4742
 1920TIP3    H227176   6.110   3.638  10.618  1.4494  2.5468  1.5881
 1921TIP3   OH227177   0.464   3.292  12.499  0.2987  0.0014  0.2116
 1921TIP3    H127178   0.546   3.258  12.464 -0.0525  0.0017 -0.6070
 1921TIP3    H227179   0.489   3.332  12.583  1.1831  0.2915 -0.1870
 1922TIP3   OH227180   6.491   4.962  12.643 -0.2699  0.0670 -0.1054
 1922TIP3    H127181   6.433   4.922  12.577 -1.6008 -1.3146  1.8264
 1922TIP3    H227182   6.536   5.033  12.596 -0.6597 -1.3059 -2.6613
 1923TIP3   OH227183   7.261   1.015  12.658 -0.2506  0.3603 -0.7516
 1923TIP3    H127184   7.343   1.023  12.705 -0.9786  0.4841  0.5249
 1923TIP3    H227185   7.270   0.934  12.607 -0.5802 -1.4431  1.9490
 1924TIP3   OH227186   0.604   3.487  11.603  0.5884  0.7376 -0.5112
 1924TIP3    H127187   0.608   3.423  11.532 -0.0847 -0.1000  0.1887
 1924TIP3    H227188   0.586   3.435  11.682  0.6438  1.7206  0.1665
 1925TIP3   OH227189   0.791   5.879  12.220 -0.2028  0.0377  0.3571
 1925TIP3    H127190   0.856   5.832  12.168  0.9210  1.2638  0.6253
 1925TIP3    H227191   0.709   5.868  12.173  0.8752  1.4962 -1.9216
 1926TIP3   OH227192   5.731   3.191  11.043 -0.8168  0.5351 -0.4172
 1926TIP3    H127193   5.721   3.132  10.969  2.8052 -2.1131  1.0862
 1926TIP3    H227194   5.793   3.257  11.013 -0.6763  0.4519 -0.3088
 1927TIP3   OH227195   6.359   5.745  14.355  0.1267 -0.2301 -0.2976
 1927TIP3    H127196   6.389   5.769  14.267 -1.6419  1.1767 -0.5324
 1927TIP3    H227197   6.361   5.649  14.355 -0.8647 -0.2659 -2.2248
 1928TIP3   OH227198   7.114   6.897  11.765 -0.3619 -0.4367  0.0903
 1928TIP3    H127199   7.203   6.878  11.795  0.0850  0.2386 -0.7654
 1928TIP3    H227200   7.094   6.828  11.702  0.4100  0.6303 -1.3576
 1929TIP3   OH227201   0.482   6.786  10.668  0.2291  0.5422  0.4703
 1929TIP3    H127202   0.473   6.703  10.715  1.1826  0.0738 -0.1554
 1929TIP3    H227203   0.573   6.787  10.637 -0.4132  0.7508 -1.5236
 1930TIP3   OH227204   1.559   6.077   9.943 -0.4333  0.4778 -0.2785
 1930TIP3    H127205   1.563   6.069   9.847  1.2039  0.7662 -0.2323
 1930TIP3    H227206   1.518   5.995   9.972  0.8644 -0.4823 -1.0839
 1931TIP3   OH227207   6.843   3.870  10.096  0.1252  0.1261  0.2478
 1931TIP3    H127208   6.767   3.860  10.039  0.3037  0.3579 -0.0321
 1931TIP3    H227209   6.830   3.805  10.166 -1.2887  1.4288  1.2370
 1932TIP3   OH227210   5.129   0.717  12.709  0.3548 -0.7552 -0.4152
 1932TIP3    H127211   5.047   0.698  12.755 -0.7027 -0.6339 -2.1666
 1932TIP3    H227212   5.104   0.780  12.641  1.7979 -1.0859 -1.2785
 1933TIP3   OH227213   1.334   2.468  13.194 -0.1078  0.2435  0.1689
 1933TIP3    H127214   1.370   2.383  13.168 -1.9546 -0.4031 -0.3776
 1933TIP3    H227215   1.303   2.507  13.112  0.4992  1.3207  0.4586
 1934TIP3   OH227216   0.595   4.586  10.274 -0.1511 -0.2630 -0.6518
 1934TIP3    H127217   0.620   4.678  10.262 -0.8100 -0.0472 -0.3886
 1934TIP3    H227218   0.536   4.568  10.201 -0.7772 -0.1976 -0.1631
 1935TIP3   OH227219   1.484   4.180  13.102 -0.2297  0.3156 -0.5641
 1935TIP3    H127220   1.491   4.188  13.198  0.5775 -2.1099 -0.4088
 1935TIP3    H227221   1.533   4.255  13.069  1.5040 -0.1213  0.9153
 1936TIP3   OH227222   1.181   2.514  10.486  0.1657 -0.8992  0.3224
 1936TIP3    H127223   1.090   2.531  10.509  0.1785 -2.6978  1.7442
 1936TIP3    H227224   1.221   2.601  10.480 -1.6548 -0.0960 -0.4597
 1937TIP3   OH227225   1.149   5.624  11.143 -0.1298 -0.6618  0.1033
 1937TIP3    H127226   1.198   5.542  11.132  0.5054 -0.2883  0.1338
 1937TIP3    H227227   1.059   5.596  11.161  0.2070 -1.3664  0.7236
 1938TIP3   OH227228   6.560   6.997  11.229 -0.1967 -0.1298  0.4292
 1938TIP3    H127229   6.491   7.061  11.215  0.0605  0.5599  2.1615
 1938TIP3    H227230   6.515   6.913  11.230 -1.1495  0.3777  2.3051
 1939TIP3   OH227231   0.238   2.199  12.037 -0.4575  0.6432 -0.6810
 1939TIP3    H127232   0.252   2.106  12.018  0.0332  0.3387  1.0552
 1939TIP3    H227233   0.317   2.241  12.004  0.5762  0.0668  0.9490
 1940TIP3   OH227234   3.373   5.516  10.433  0.1146 -1.1560 -0.0278
 1940TIP3    H127235   3.407   5.586  10.377  1.4426 -1.5329  0.3080
 1940TIP3    H227236   3.382   5.436  10.380  1.2929 -1.5023  0.6870
 1941TIP3   OH227237   5.688   3.347  11.631 -0.3621 -0.1141 -0.5129
 1941TIP3    H127238   5.718   3.396  11.554 -0.0923  0.2960 -0.1469
 1941TIP3    H227239   5.764   3.298  11.660 -0.3751 -0.0186 -0.3160
 1942TIP3   OH227240   2.183   2.176  11.038 -0.2848  0.1251 -0.5174
 1942TIP3    H127241   2.265   2.221  11.057  0.5407 -1.8064  0.6299
 1942TIP3    H227242   2.125   2.244  11.005  0.7945  2.0998  1.5999
 1943TIP3   OH227243   5.534   4.526  15.399 -0.2603  0.1042 -0.1781
 1943TIP3    H127244   5.604   4.495  15.456  0.4130 -0.8294 -1.4748
 1943TIP3    H227245   5.571   4.600  15.352  0.1169 -0.8298 -1.3828
 1944TIP3   OH227246   1.706   1.943  11.626 -0.1593 -0.0261  0.3370
 1944TIP3    H127247   1.625   1.979  11.590  0.0418 -0.0453 -0.1317
 1944TIP3    H227248   1.773   2.007  11.605  0.0185 -0.1970  0.3829
 1945TIP3   OH227249   0.056   3.973  10.728 -0.3882 -0.0148  0.5196
 1945TIP3    H127250   0.119   4.001  10.662 -0.5882 -0.0670  0.3031
 1945TIP3    H227251   0.076   4.026  10.805 -0.0149 -0.1050  0.4868
 1946TIP3   OH227252   7.149   2.103  12.619  0.0477  0.6062 -0.4272
 1946TIP3    H127253   7.241   2.123  12.637  0.0403  0.2217  0.0527
 1946TIP3    H227254   7.126   2.161  12.547  1.0148 -0.1505 -1.3526
 1947TIP3   OH227255   6.423   3.422  10.367  0.2601 -0.8594  0.5710
 1947TIP3    H127256   6.444   3.344  10.418  1.1319 -1.0812 -0.1241
 1947TIP3    H227257   6.435   3.396  10.276  2.2379  0.5497  0.3839
 1948TIP3   OH227258   4.589   3.489  13.277  0.2498 -0.2469 -0.4397
 1948TIP3    H127259   4.602   3.569  13.327  2.4220 -0.2681 -0.8744
 1948TIP3    H227260   4.519   3.510  13.215 -0.2831  0.7911  0.5059
 1949TIP3   OH227261   1.778   3.209  11.992  0.0548 -0.2497 -0.9264
 1949TIP3    H127262   1.732   3.132  11.958 -0.3030  0.1138 -1.2656
 1949TIP3    H227263   1.847   3.172  12.048 -0.3115 -0.8080 -0.8361
 1950TIP3   OH227264   0.975   6.571  10.776 -0.0523  0.7070  0.9816
 1950TIP3    H127265   0.984   6.517  10.697  2.1464  0.6205  1.2536
 1950TIP3    H227266   0.962   6.660  10.742  2.7720  0.9798  0.4339
 1951TIP3   OH227267   0.838   0.931  10.592 -0.4732  0.2470 -0.8369
 1951TIP3    H127268   0.784   0.852  10.596  0.8019 -0.7807 -2.7788
 1951TIP3    H227269   0.897   0.923  10.667 -0.7306 -0.3698 -0.6909
 1952TIP3   OH227270   1.831   5.339  10.778  0.0360 -0.9054  0.0043
 1952TIP3    H127271   1.874   5.279  10.717  1.9171 -0.3711  0.7678
 1952TIP3    H227272   1.793   5.407  10.723  0.4804 -1.1924 -0.6629
 1953TIP3   OH227273   1.275   2.781  10.715  0.0737 -0.0688 -0.4362
 1953TIP3    H127274   1.250   2.845  10.782 -1.4685  0.6665 -1.6887
 1953TIP3    H227275   1.280   2.698  10.762  1.5876  0.8682  1.1050
 1954TIP3   OH227276   4.314   6.480  12.271  0.0358  0.3139 -0.1580
 1954TIP3    H127277   4.220   6.488  12.256  0.2726 -0.2200 -1.9980
 1954TIP3    H227278   4.324   6.391  12.306 -0.2946  0.9057  1.5162
 1955TIP3   OH227279   3.296   3.369  11.296 -0.2449  0.3058 -0.3625
 1955TIP3    H127280   3.282   3.284  11.254  0.2918  0.6966 -1.3477
 1955TIP3    H227281   3.208   3.407  11.300 -0.1873  0.6791 -2.0584
 1956TIP3   OH227282   1.575   4.755  13.402 -0.1008  0.3759  0.2614
 1956TIP3    H127283   1.497   4.703  13.381 -1.1278  1.8075  0.4839
 1956TIP3    H227284   1.645   4.715  13.350 -1.5392  0.7230 -2.0034
 1957TIP3   OH227285   2.896   7.152  11.725  0.3709  0.4529 -0.3781
 1957TIP3    H127286   2.922   7.193  11.808  0.7545 -1.8489  0.6726
 1957TIP3    H227287   2.862   7.066  11.750  1.4930 -0.7231 -2.6919
 1958TIP3   OH227288   0.692   6.149  11.593 -0.6369 -0.3636 -0.2644
 1958TIP3    H127289   0.764   6.208  11.615 -1.0124 -0.0836  0.2418
 1958TIP3    H227290   0.734   6.076  11.547  0.0642 -0.5397  0.6299
 1959TIP3   OH227291   0.786   3.596  11.760 -0.1882  0.5022  0.5966
 1959TIP3    H127292   0.787   3.679  11.808  1.1375  0.5493  0.5054
 1959TIP3    H227293   0.700   3.594  11.718  0.2658  2.4394 -0.4548
 1960TIP3   OH227294   3.201   2.169  10.657  0.1333 -0.1321 -0.1639
 1960TIP3    H127295   3.174   2.103  10.593 -1.7138  0.2421  0.1868
 1960TIP3    H227296   3.130   2.169  10.722  0.8194  1.1701  0.5998
 1961TIP3   OH227297   5.202   4.284  10.128 -0.0812 -0.1893 -0.8653
 1961TIP3    H127298   5.224   4.306  10.218 -0.1252 -0.1225 -0.8715
 1961TIP3    H227299   5.171   4.366  10.089 -0.5521 -0.3342 -0.7959
 1962TIP3   OH227300   0.972   2.802  10.880 -1.2895  0.4959 -0.5010
 1962TIP3    H127301   0.913   2.829  10.950 -3.6455 -1.7555 -1.5287
 1962TIP3    H227302   1.000   2.884  10.838 -1.0093  1.7713  2.0802
 1963TIP3   OH227303   4.661   4.562  12.770 -0.1950  0.3128 -0.0282
 1963TIP3    H127304   4.687   4.636  12.716  1.5762  0.0583  0.4588
 1963TIP3    H227305   4.684   4.587  12.859 -1.7579  0.1300  0.4417
 1964TIP3   OH227306   2.125   2.073  11.737 -0.6907  0.2357  0.5677
 1964TIP3    H127307   2.208   2.088  11.691 -0.0499 -0.0151  1.6361
 1964TIP3    H227308   2.113   1.978  11.737 -1.2820  0.3041 -0.1046
 1965TIP3   OH227309   1.109   5.781  12.409  0.2459  0.1536  0.2467
 1965TIP3    H127310   1.177   5.823  12.461  0.8061 -0.0947 -0.2723
 1965TIP3    H227311   1.033   5.838  12.418  0.2921  0.0432  1.4358
 1966TIP3   OH227312   1.827   2.591  13.698 -0.7067 -0.5792 -0.3577
 1966TIP3    H127313   1.888   2.617  13.629 -0.4921  1.1573  0.4801
 1966TIP3    H227314   1.761   2.538  13.653 -0.5085  0.4527 -1.8737
 1967TIP3   OH227315   5.646   1.578  10.410 -0.7707  0.4293  0.0939
 1967TIP3    H127316   5.563   1.625  10.422  0.5380  2.4188  1.6677
 1967TIP3    H227317   5.699   1.637  10.355  0.0107 -0.3189  0.0291
 1968TIP3   OH227318   3.194   6.145  10.047  0.4088 -0.0215  0.2584
 1968TIP3    H127319   3.213   6.061  10.004  1.6914  0.3932  0.0039
 1968TIP3    H227320   3.165   6.202   9.976  0.6861  0.1068  0.2513
 1969TIP3   OH227321   1.643   4.092  11.109 -0.0831  0.1866 -0.0793
 1969TIP3    H127322   1.733   4.101  11.077  0.3324 -1.4296  0.5446
 1969TIP3    H227323   1.648   4.119  11.201  0.0094 -0.9169  0.2512
 1970TIP3   OH227324   1.935   1.192  11.174 -0.6362 -0.2000 -0.3429
 1970TIP3    H127325   1.885   1.273  11.169 -1.1518 -0.5749 -1.2939
 1970TIP3    H227326   2.017   1.217  11.217 -0.8131  0.8064 -0.5856
 1971TIP3   OH227327   4.402   4.475  13.406  0.1452  0.2935 -0.2380
 1971TIP3    H127328   4.444   4.560  13.396  1.1054 -0.2635 -0.9956
 1971TIP3    H227329   4.472   4.417  13.437 -0.6657 -0.0646  0.9515
 1972TIP3   OH227330   4.473   2.558  10.700  0.0179  0.2195  0.0352
 1972TIP3    H127331   4.398   2.509  10.665 -0.2775  0.5849  0.1516
 1972TIP3    H227332   4.435   2.640  10.733  0.0910 -0.6043  2.2873
 1973TIP3   OH227333   0.859   3.271  10.448  0.6067  0.2437  0.2898
 1973TIP3    H127334   0.882   3.295  10.358 -0.5616  0.5699  0.0719
 1973TIP3    H227335   0.771   3.234  10.441  0.0977  1.2249  1.4586
 1974TIP3   OH227336   5.769   6.081  10.754 -0.2593 -0.4122  0.6883
 1974TIP3    H127337   5.689   6.130  10.772 -0.0940 -0.5089  1.7403
 1974TIP3    H227338   5.820   6.088  10.835  0.6443 -0.6314  0.1454
 1975TIP3   OH227339   6.936   5.722  11.340 -0.4970 -0.9407 -0.3463
 1975TIP3    H127340   6.924   5.737  11.246 -0.9030 -1.6150 -0.4095
 1975TIP3    H227341   7.027   5.744  11.357 -0.5304 -0.4321 -0.8239
 1976TIP3   OH227342   1.884   4.674  11.594 -0.3101 -0.2020  0.2418
 1976TIP3    H127343   1.881   4.750  11.653  0.4490 -0.0122  0.0382
 1976TIP3    H227344   1.954   4.619  11.629 -1.3285 -1.1611  0.8066
 1977TIP3   OH227345   3.351   6.325  10.541  0.1726  0.0982 -0.3810
 1977TIP3    H127346   3.443   6.349  10.547  0.2801 -0.6737  1.6466
 1977TIP3    H227347   3.347   6.237  10.578 -1.3543  0.1015 -0.4986
 1978TIP3   OH227348   6.382   4.781  10.244  0.0331 -0.6408  0.5147
 1978TIP3    H127349   6.325   4.852  10.273  0.6790  0.2814 -0.4612
 1978TIP3    H227350   6.323   4.706  10.235 -0.6540 -0.2456  1.5527
 1979TIP3   OH227351   0.005   5.778  13.777  0.0807 -0.5446 -0.1185
 1979TIP3    H127352   0.064   5.823  13.716  0.2684  0.1618  0.5782
 1979TIP3    H227353   0.028   5.814  13.863 -1.6417  0.0354  0.1191
 1980TIP3   OH227354   0.626   4.523  11.139  0.3847 -0.0449 -0.3286
 1980TIP3    H127355   0.679   4.579  11.196 -2.7567  2.8817 -0.1499
 1980TIP3    H227356   0.637   4.561  11.052  0.0210 -0.5719 -0.6075
 1981TIP3   OH227357   1.072   3.761  12.801  0.1683  0.3372  0.0004
 1981TIP3    H127358   1.066   3.815  12.722  0.0298  3.2591  1.9582
 1981TIP3    H227359   1.005   3.694  12.789 -2.4512  2.9690 -0.7134
 1982TIP3   OH227360   0.058   0.599  11.241  0.0635 -0.1811 -0.1241
 1982TIP3    H127361  -0.027   0.565  11.216  0.3190 -1.4955  0.7373
 1982TIP3    H227362   0.058   0.594  11.337  1.3096 -0.7103 -0.1442
 1983TIP3   OH227363   1.774   5.591  11.002 -0.2184 -0.0369  0.5996
 1983TIP3    H127364   1.838   5.634  10.945 -2.1045  1.2973 -0.5572
 1983TIP3    H227365   1.727   5.663  11.044 -1.8295 -0.9675  0.4338
 1984TIP3   OH227366   0.365   7.060  12.283  0.5231  0.3651  0.3341
 1984TIP3    H127367   0.406   7.123  12.223  0.7906  1.9732  2.1689
 1984TIP3    H227368   0.435   7.036  12.344 -0.6609  1.4847  2.1782
 1985TIP3   OH227369   1.195   4.705  11.189 -0.2243 -0.0674  0.4128
 1985TIP3    H127370   1.194   4.616  11.152  0.1143 -0.5411  1.5088
 1985TIP3    H227371   1.230   4.693  11.277 -0.9435  1.0482  0.8562
 1986TIP3   OH227372   2.647   7.205  13.044  0.3155  0.0024 -0.0259
 1986TIP3    H127373   2.607   7.238  12.963 -0.6504  1.0959  0.8672
 1986TIP3    H227374   2.575   7.161  13.090  0.6972 -0.0329  0.5396
 1987TIP3   OH227375   3.223   2.652  11.511  0.2352 -0.0568 -0.3745
 1987TIP3    H127376   3.254   2.562  11.524  0.0652  0.1895  1.7885
 1987TIP3    H227377   3.303   2.702  11.494  0.5243 -0.2733  0.3494
 1988TIP3   OH227378   6.170   1.688  12.062  0.1925  0.4355 -0.0783
 1988TIP3    H127379   6.177   1.595  12.041 -0.8710  0.3035  0.0988
 1988TIP3    H227380   6.148   1.730  11.979 -1.8596  0.1912  0.3150
 1989TIP3   OH227381   0.309   3.279  10.018  0.1430  0.6872  0.2032
 1989TIP3    H127382   0.381   3.340  10.003  0.9256  0.1531  1.6315
 1989TIP3    H227383   0.317   3.215   9.947 -0.2786  1.8572 -0.9101
 1990TIP3   OH227384   4.635   4.442  10.028  0.0672 -0.3293 -0.2891
 1990TIP3    H127385   4.570   4.448   9.957 -0.4525 -0.4068  0.1771
 1990TIP3    H227386   4.632   4.351  10.054  2.5446 -1.0272 -2.2922
 1991TIP3   OH227387   0.846   2.637  11.895 -0.5445  0.2553 -0.3716
 1991TIP3    H127388   0.907   2.564  11.892 -0.5915  0.2795 -2.6062
 1991TIP3    H227389   0.892   2.709  11.853  0.1808  2.0858  3.3638
 1992TIP3   OH227390   2.421   3.934  13.305  0.3160  0.0827 -0.1176
 1992TIP3    H127391   2.475   3.855  13.313  0.7291  0.3729 -0.0161
 1992TIP3    H227392   2.425   3.957  13.212  1.4093  0.8328  0.1129
 1993TIP3   OH227393   0.314   3.396  11.639 -0.2499 -0.5870 -0.3793
 1993TIP3    H127394   0.293   3.375  11.730  0.8942  2.4587  0.6568
 1993TIP3    H227395   0.240   3.447  11.609 -0.5536 -1.4593 -1.1108
 1994TIP3   OH227396   2.881   1.151   9.978  0.0388 -0.3527  0.0392
 1994TIP3    H127397   2.880   1.225  10.039 -3.2489  1.0217 -1.5912
 1994TIP3    H227398   2.924   1.186   9.899  0.5888 -0.9126  0.0823
 1995TIP3   OH227399   2.645   4.057  11.445 -0.1566 -0.0512 -0.3007
 1995TIP3    H127400   2.613   4.018  11.364 -0.7046  1.5924 -0.8950
 1995TIP3    H227401   2.740   4.051  11.440 -0.2136 -0.5749 -0.7427
 1996TIP3   OH227402   1.481   6.241  14.018  0.0158 -0.8476  0.3072
 1996TIP3    H127403   1.396   6.236  13.973  0.0155 -0.2076  0.2330
 1996TIP3    H227404   1.472   6.315  14.078  0.7826 -0.2961 -0.2514
 1997TIP3   OH227405   2.341   2.302  14.202 -0.6571  0.0752 -0.3527
 1997TIP3    H127406   2.285   2.376  14.225 -0.0250  0.5684 -0.4210
 1997TIP3    H227407   2.409   2.302  14.269 -1.2236 -1.0559  0.2434
 1998TIP3   OH227408   1.559   5.398  10.878 -0.8379  0.1220  0.1304
 1998TIP3    H127409   1.615   5.321  10.870 -0.8840  0.2035 -0.9435
 1998TIP3    H227410   1.616   5.465  10.916  0.4801  0.9071 -3.0943
 1999TIP3   OH227411   1.832   4.418  11.279 -0.4442  0.7806  0.2105
 1999TIP3    H127412   1.906   4.377  11.234 -0.8486 -0.2345  0.4526
 1999TIP3    H227413   1.848   4.401  11.372 -1.9305 -1.0914  0.1486
 2000TIP3   OH227414   3.761   5.373  10.228 -0.0859 -0.0026 -0.0788
 2000TIP3    H127415   3.746   5.304  10.292 -1.5295 -0.3531 -0.7694
 2000TIP3    H227416   3.758   5.454  10.278  1.6507 -0.4141  0.7425
 2001TIP3   OH227417   2.313   5.593  12.721 -0.0437  0.1165 -0.2509
 2001TIP3    H127418   2.335   5.682  12.696 -0.0797  0.1549 -0.1449
 2001TIP3    H227419   2.319   5.542  12.640 -0.7386  0.3509 -0.4528
 2002TIP3   OH227420   4.057   2.241  10.737 -0.0378 -0.4296  0.0126
 2002TIP3    H127421   3.977   2.262  10.787  0.8928 -0.0479  1.3685
 2002TIP3    H227422   4.117   2.312  10.757  0.6015 -0.6411 -1.1327
 2003TIP3   OH227423   2.522   2.883  11.172 -0.3049 -0.0595 -0.5417
 2003TIP3    H127424   2.450   2.944  11.153 -0.3107  0.5567  1.3546
 2003TIP3    H227425   2.479   2.810  11.218  0.2313  0.2100  0.4026
 2004TIP3   OH227426   2.918   4.438  11.076 -0.9261 -0.8878 -0.2988
 2004TIP3    H127427   2.891   4.359  11.029 -1.2918 -0.2004 -1.2843
 2004TIP3    H227428   2.987   4.476  11.022 -2.6920  0.9540 -1.3531
 2005TIP3   OH227429   2.507   3.222  13.600 -0.4810 -0.0763  0.6072
 2005TIP3    H127430   2.574   3.201  13.665  1.2537 -0.7475 -1.3468
 2005TIP3    H227431   2.460   3.140  13.587 -1.0641  0.1499  1.2695
 2006TIP3   OH227432   3.427   1.289  13.416  0.2364  0.1230  0.1350
 2006TIP3    H127433   3.495   1.222  13.414 -0.2082 -0.4307  2.3731
 2006TIP3    H227434   3.399   1.292  13.507 -1.0558  2.0518 -0.2995
 2007TIP3   OH227435   3.784   6.360  12.724 -0.9451 -0.4593 -0.6646
 2007TIP3    H127436   3.710   6.336  12.780  0.2477  0.0657  1.1986
 2007TIP3    H227437   3.847   6.289  12.735 -0.3942  0.0071 -0.7648
 2008TIP3   OH227438   3.750   5.178  10.398  0.0089 -0.2793 -0.0045
 2008TIP3    H127439   3.678   5.147  10.343  0.1732 -0.3238 -0.1938
 2008TIP3    H227440   3.803   5.100  10.414 -0.0477 -0.2699  0.2327
 2009TIP3   OH227441   4.513   2.818  11.305 -0.5056  0.0310 -0.5621
 2009TIP3    H127442   4.496   2.881  11.235 -1.4014  1.4687  0.9129
 2009TIP3    H227443   4.431   2.814  11.354 -0.5315 -2.4714 -0.7488
 2010TIP3   OH227444   3.708   3.586  10.717  0.1256  0.0275 -0.0595
 2010TIP3    H127445   3.783   3.608  10.772  0.4090 -0.2904 -0.3125
 2010TIP3    H227446   3.665   3.514  10.764  0.2449 -0.0999 -0.1440
 2011TIP3   OH227447   2.214   3.662  11.342 -0.5272  0.3265 -0.3096
 2011TIP3    H127448   2.178   3.735  11.290 -0.6930 -0.3598 -1.1787
 2011TIP3    H227449   2.188   3.681  11.432 -1.8580  0.5781 -0.7362
 2012TIP3   OH227450   1.729   5.622  11.769 -0.0190 -0.1810  0.5137
 2012TIP3    H127451   1.802   5.668  11.810  0.4695  1.7187 -2.3511
 2012TIP3    H227452   1.736   5.532  11.802  3.9187 -0.1766 -0.0782
 2013TIP3   OH227453   0.589   4.163  12.633  0.2361  0.4340 -0.4796
 2013TIP3    H127454   0.551   4.175  12.720 -1.1006 -0.3568 -0.9412
 2013TIP3    H227455   0.664   4.224  12.631 -0.1509  0.9782  0.9530
 2014TIP3   OH227456   3.830   2.956   9.631 -0.0021 -0.0574 -0.1152
 2014TIP3    H127457   3.848   3.038   9.585 -0.9740  0.3372  0.1873
 2014TIP3    H227458   3.817   2.982   9.723  3.1419 -0.9859  0.6451
 2015TIP3   OH227459   3.356   0.232  11.934 -0.5530 -0.3125  0.2213
 2015TIP3    H127460   3.336   0.213  11.842  0.3051 -0.5219  0.0774
 2015TIP3    H227461   3.289   0.296  11.960 -1.5188 -1.1456 -0.1990
 2016TIP3   OH227462   1.584   5.688  10.075 -0.1741 -0.1881  0.5644
 2016TIP3    H127463   1.565   5.594  10.075  1.5290 -0.5459  0.7590
 2016TIP3    H227464   1.552   5.718   9.990  0.9846 -1.3239 -0.2966
 2017TIP3   OH227465   4.034   0.746  12.247 -0.4809 -0.6890  0.0835
 2017TIP3    H127466   4.018   0.731  12.153  1.3398 -1.5222 -0.1124
 2017TIP3    H227467   3.975   0.818  12.270  1.8126  2.1949 -2.6222
 2018TIP3   OH227468   4.643   2.476  13.557  0.0217  1.0501 -0.1846
 2018TIP3    H127469   4.642   2.540  13.486 -1.7730  0.8485 -0.3678
 2018TIP3    H227470   4.553   2.474  13.589  0.4802  0.0356  1.1027
 2019TIP3   OH227471   2.758   5.031  11.234  0.0680  0.0410 -0.1361
 2019TIP3    H127472   2.688   5.003  11.293 -0.4404  1.9227  0.2011
 2019TIP3    H227473   2.830   4.971  11.251 -1.4738 -2.0070 -0.5603
 2020TIP3   OH227474   2.465   6.253  12.447 -0.2010  0.1352 -0.3940
 2020TIP3    H127475   2.493   6.187  12.384  3.2529 -0.3954  1.5805
 2020TIP3    H227476   2.501   6.335  12.414 -1.3070  0.4289 -0.8867
 2021TIP3   OH227477   2.735   4.339  13.345 -0.5642  0.0041  0.4607
 2021TIP3    H127478   2.642   4.318  13.345 -0.7505  0.8331  0.6490
 2021TIP3    H227479   2.773   4.282  13.279 -1.3240  0.2058 -0.1454
 2022TIP3   OH227480   2.607   3.723  12.572  0.3201 -0.0805 -0.1938
 2022TIP3    H127481   2.608   3.628  12.587 -2.6313  0.0717  1.3615
 2022TIP3    H227482   2.531   3.754  12.621  1.3411  3.1414 -0.5342
 2023TIP3   OH227483   2.363   4.274  10.575  0.2411  0.2219  0.1426
 2023TIP3    H127484   2.329   4.364  10.576 -0.6064 -0.0861 -0.6225
 2023TIP3    H227485   2.444   4.280  10.524 -0.1615  0.4243 -0.4759
 2024TIP3   OH227486   1.228   4.707  12.745 -1.0211  0.2784  0.0790
 2024TIP3    H127487   1.164   4.673  12.808 -2.1786  0.8130 -0.7999
 2024TIP3    H227488   1.237   4.800  12.767 -1.0527  0.3534 -0.2213
 2025TIP3   OH227489   4.821   5.779  12.788  0.1312 -0.5587  0.0596
 2025TIP3    H127490   4.860   5.759  12.873  0.1799 -0.8016 -0.0189
 2025TIP3    H227491   4.864   5.718  12.728  0.3961 -0.1116 -0.2109
 2026TIP3   OH227492   4.557   5.020  11.241  0.0261  0.2577 -0.0845
 2026TIP3    H127493   4.469   5.029  11.204 -0.0360 -2.0402 -0.5558
 2026TIP3    H227494   4.613   5.068  11.179 -0.4621 -1.1166 -1.6250
 2027TIP3   OH227495   1.386   4.551  12.139 -0.3808 -0.0598  0.1993
 2027TIP3    H127496   1.377   4.527  12.232  1.3251 -0.2986  0.3080
 2027TIP3    H227497   1.465   4.507  12.110  0.9149  2.6424 -0.5265
 2028TIP3   OH227498   4.651   5.299  12.266  0.0531  0.4081  0.0719
 2028TIP3    H127499   4.600   5.379  12.275  0.5605  0.9587 -1.7570
 2028TIP3    H227500   4.623   5.262  12.181  2.0539  0.2740 -0.5501
 2029TIP3   OH227501   3.848   3.360  10.256 -0.0638  0.1257  0.0874
 2029TIP3    H127502   3.821   3.434  10.310 -0.4716 -0.8661  1.2832
 2029TIP3    H227503   3.767   3.314  10.235  0.3303 -0.8617  0.6808
 2030TIP3   OH227504   3.073   3.980  10.289  0.7057 -0.0418 -0.4369
 2030TIP3    H127505   3.155   3.956  10.246  0.5131  1.5413 -1.7746
 2030TIP3    H227506   3.007   3.970  10.220 -0.4242 -2.4606  0.9608
 2031TIP3   OH227507   3.578   3.072  10.815  0.4088 -0.6986 -0.7500
 2031TIP3    H127508   3.562   3.050  10.906 -2.3692  0.7353 -0.8354
 2031TIP3    H227509   3.492   3.091  10.779  1.6921  1.0962 -3.0505
 2032TIP3   OH227510   3.302   4.528  10.482  0.0466 -0.2931  0.1759
 2032TIP3    H127511   3.224   4.473  10.472  1.1489 -1.6618 -1.0830
 2032TIP3    H227512   3.374   4.466  10.492  1.3354  0.9021 -1.4697
 2033TIP3   OH227513   1.654   6.074  13.915  0.4534 -0.3396  0.2889
 2033TIP3    H127514   1.593   6.138  13.951  2.3470  0.2616  2.5860
 2033TIP3    H227515   1.603   5.994  13.908 -1.2747  0.7641 -0.2477
 2034TIP3   OH227516   0.561   6.516  12.764  0.1621  0.1036  0.3331
 2034TIP3    H127517   0.536   6.472  12.845 -0.8064  0.5673  0.2905
 2034TIP3    H227518   0.495   6.489  12.700  0.2108  0.7175  0.0185
 2035TIP3   OH227519   2.225   4.429  10.134  0.3933  0.1666  0.7481
 2035TIP3    H127520   2.159   4.367  10.102 -1.7106  1.9381  1.5637
 2035TIP3    H227521   2.281   4.445  10.058 -1.1594 -0.0163 -0.4690
 2036TIP3   OH227522   2.908   2.983  11.354  0.5946 -0.6974  0.0478
 2036TIP3    H127523   2.924   2.960  11.263 -0.4555 -0.6522 -0.1561
 2036TIP3    H227524   2.995   2.993  11.392  1.0613  0.5056 -1.2661
 2037TIP3   OH227525   4.490   4.113  11.590 -0.2052  0.3108  0.0779
 2037TIP3    H127526   4.565   4.158  11.630 -0.2042 -1.2692  1.8783
 2037TIP3    H227527   4.427   4.103  11.661 -0.9482 -0.9330 -0.7486
 2038TIP3   OH227528   1.990   3.855   9.781  0.0219 -0.3373 -0.5212
 2038TIP3    H127529   1.907   3.811   9.800  0.3504 -0.8189 -0.1826
 2038TIP3    H227530   2.057   3.793   9.809  0.4996  0.7763  0.8458
 2039TIP3   OH227531   2.107   4.501  10.388  0.0809 -0.7057 -0.4253
 2039TIP3    H127532   2.017   4.468  10.388  0.1258 -0.8393 -1.1810
 2039TIP3    H227533   2.140   4.481  10.301  0.2429  0.9856 -0.7770
 2040TIP3   OH227534   4.511   5.863  12.663 -1.1107 -0.0769  0.0523
 2040TIP3    H127535   4.462   5.813  12.729 -1.8535  1.2747  0.5474
 2040TIP3    H227536   4.576   5.912  12.713 -0.6435 -0.2396 -0.3896
 2041TIP3   OH227537   1.781   5.216  12.086  0.0463 -0.1662  0.4308
 2041TIP3    H127538   1.707   5.165  12.121 -0.3494  0.2894  0.2511
 2041TIP3    H227539   1.830   5.243  12.163 -0.6579  0.5787  0.6113
 2042TIP3   OH227540   3.477   0.093  15.816 -0.3998 -0.0387 -0.4309
 2042TIP3    H127541   3.508   0.003  15.813  0.9160  0.3334  1.4645
 2042TIP3    H227542   3.468   0.119  15.724  0.6240 -1.6156 -0.9830
 2043TIP3   OH227543   2.712   5.288  13.540  0.4638  0.2706  0.0834
 2043TIP3    H127544   2.676   5.346  13.607  1.4735  0.2938  0.6068
 2043TIP3    H227545   2.807   5.291  13.553  0.6846  0.3508 -1.4033
 2044TIP3   OH227546   3.264   5.960  10.472 -0.1243 -0.1770  0.5443
 2044TIP3    H127547   3.187   5.915  10.505  0.7271 -0.6893  1.8892
 2044TIP3    H227548   3.277   5.925  10.384 -1.9387  0.5928 -0.0401
 2045TIP3   OH227549   3.082   5.316   9.980 -0.4114  0.6393 -0.0478
 2045TIP3    H127550   3.057   5.259  10.052  0.0203  1.6553  0.9250
 2045TIP3    H227551   3.012   5.307   9.916 -1.9738  1.4805  1.5020
 2046TIP3   OH227552   4.032   5.292  10.078  0.2722 -0.1830  0.2295
 2046TIP3    H127553   4.057   5.329  10.163 -0.1476  2.4233 -0.7323
 2046TIP3    H227554   3.974   5.358  10.039 -0.7200 -1.9962 -1.4712
 2047TIP3   OH227555   3.924   1.085  10.470 -0.4586  0.0372  0.2660
 2047TIP3    H127556   3.972   1.063  10.390  0.4065  0.7056  0.6003
 2047TIP3    H227557   3.985   1.138  10.521 -1.6546  1.1553  0.5603
 2048TIP3   OH227558   6.730   3.432  11.585 -0.0048 -0.2660  0.3269
 2048TIP3    H127559   6.641   3.466  11.576 -0.5320 -1.2018  1.7324
 2048TIP3    H227560   6.739   3.369  11.514 -0.4068 -0.0339  0.0682
 2049TIP3   OH227561   3.761   5.489  10.836 -0.3524 -0.4644 -0.4646
 2049TIP3    H127562   3.729   5.471  10.748 -3.2549  2.7260 -0.1731
 2049TIP3    H227563   3.687   5.468  10.893  1.5147 -2.5579  1.2931
 2050TIP3   OH227564   5.354   2.653  13.209  0.4899 -0.2924  0.0033
 2050TIP3    H127565   5.359   2.619  13.120  1.4297 -0.4406  0.1016
 2050TIP3    H227566   5.340   2.575  13.263 -1.3516 -0.0635 -0.1156
 2051TIP3   OH227567   3.890   4.379  10.775  0.1785 -0.4182 -0.4923
 2051TIP3    H127568   3.943   4.303  10.748  0.6340 -0.5512  0.7383
 2051TIP3    H227569   3.893   4.377  10.871 -0.2695  0.8444 -0.4512
 2052TIP3   OH227570   3.795   4.034  10.051  0.2877 -0.0671 -0.1642
 2052TIP3    H127571   3.755   4.002   9.970 -0.4913  0.9134 -0.1693
 2052TIP3    H227572   3.749   4.115  10.071  0.3221 -0.4192  1.3942
 2053TIP3   OH227573   5.224   6.295  13.091 -0.2984  0.3874  0.4936
 2053TIP3    H127574   5.301   6.329  13.136  0.1225 -1.2090  1.0092
 2053TIP3    H227575   5.258   6.255  13.011 -0.8356  1.5424 -0.3235
 2054TIP3   OH227576   2.407   4.456   9.915  0.6792  0.1866 -0.4276
 2054TIP3    H127577   2.500   4.432   9.917  0.3926 -0.8413  0.7642
 2054TIP3    H227578   2.366   4.386   9.864  0.5004  0.4586 -0.6600
 2055TIP3   OH227579   3.294   0.384  11.324  0.2074 -0.1339  0.3537
 2055TIP3    H127580   3.305   0.433  11.406 -1.1585  2.0465 -0.7261
 2055TIP3    H227581   3.256   0.300  11.351 -1.2797  0.9947  1.8834
 2056TIP3   OH227582   5.839   1.309  13.176  0.0995 -0.4089 -0.2438
 2056TIP3    H127583   5.881   1.349  13.252  0.7797 -2.1221  0.3078
 2056TIP3    H227584   5.911   1.277  13.122 -0.4223 -1.0345 -0.5830
 2057TIP3   OH227585   4.190   2.862  12.452 -0.1499  0.2970 -0.5636
 2057TIP3    H127586   4.265   2.869  12.509  0.4893  0.0589 -1.3653
 2057TIP3    H227587   4.185   2.769  12.429 -1.9992 -0.0825  1.2190
 2058TIP3   OH227588   3.940   6.112  12.657 -0.1188  0.3483  0.2334
 2058TIP3    H127589   3.958   6.094  12.749  0.1737 -0.8024 -0.0495
 2058TIP3    H227590   4.025   6.109  12.614 -0.5596 -1.8571 -0.5433
 2059TIP3   OH227591   1.510   3.569  11.041 -0.2393  0.3141  0.3366
 2059TIP3    H127592   1.493   3.514  11.117  1.2215  0.8259  1.0411
 2059TIP3    H227593   1.502   3.659  11.074 -3.3596  0.6070 -0.9633
 2060TIP3   OH227594   4.767   2.652  10.385 -0.0641  0.2987  0.1207
 2060TIP3    H127595   4.735   2.647  10.295  1.7683 -0.2769 -0.5213
 2060TIP3    H227596   4.740   2.739  10.416 -3.8466 -0.8151  0.2758
 2061TIP3   OH227597   4.488   3.249  13.957  0.5536  0.4841 -0.3839
 2061TIP3    H127598   4.563   3.190  13.951 -0.1714 -0.4276 -0.7650
 2061TIP3    H227599   4.490   3.282  14.047 -0.4291 -2.0633  0.6420
 2062TIP3   OH227600   1.552   5.001  11.474  0.2658  0.1328 -0.4934
 2062TIP3    H127601   1.579   5.004  11.382 -0.3729 -2.4630 -0.7883
 2062TIP3    H227602   1.550   4.908  11.496  1.1729  0.7367  2.3903
 2063TIP3   OH227603   2.683   3.589  11.500  0.4460  0.6837 -0.0824
 2063TIP3    H127604   2.684   3.576  11.595  1.9835 -1.3281 -0.3592
 2063TIP3    H227605   2.668   3.502  11.463 -1.4374  1.6313 -1.6915
 2064TIP3   OH227606   4.368   3.138  10.107  0.4150 -0.1088  0.1063
 2064TIP3    H127607   4.286   3.127  10.059  0.2893 -1.1779  0.5401
 2064TIP3    H227608   4.359   3.081  10.184  1.9763 -1.0822 -0.3918
 2065TIP3   OH227609   2.975   2.849  12.742 -0.0002 -0.3929  0.2549
 2065TIP3    H127610   2.984   2.757  12.716  1.1429 -0.0797 -0.5107
 2065TIP3    H227611   3.064   2.877  12.762 -0.0667  1.0343 -1.2748
 2066TIP3   OH227612   1.849   6.471  13.177 -1.1240 -0.2776  0.1490
 2066TIP3    H127613   1.892   6.393  13.142  0.3575 -0.1682  1.6452
 2066TIP3    H227614   1.760   6.442  13.198 -1.1531 -1.0747 -1.0439
 2067TIP3   OH227615   2.507   0.592  12.675  0.2005  0.0574  0.4183
 2067TIP3    H127616   2.463   0.667  12.713  0.3084 -1.2011  3.1218
 2067TIP3    H227617   2.600   0.606  12.695  0.5646  0.6135 -1.5797
 2068TIP3   OH227618   3.321   2.870  11.217  0.0194 -0.1787  0.0333
 2068TIP3    H127619   3.276   2.816  11.153  0.1652 -0.9883  0.6024
 2068TIP3    H227620   3.410   2.836  11.219  0.2007  0.3065  0.1371
 2069TIP3   OH227621   2.053   3.565  10.416 -0.6514  0.4299 -0.2413
 2069TIP3    H127622   2.149   3.572  10.419 -0.4749 -0.9041 -1.6374
 2069TIP3    H227623   2.025   3.574  10.507  1.0621 -2.2342  0.6345
 2070TIP3   OH227624   2.340   4.667  11.662 -0.4445  0.5492  0.3001
 2070TIP3    H127625   2.309   4.757  11.675 -0.0013  0.5259  1.5758
 2070TIP3    H227626   2.353   4.660  11.567 -0.6637  1.7721  0.1682
 2071TIP3   OH227627   2.842   3.880  10.048  0.2348 -0.6558  0.4047
 2071TIP3    H127628   2.755   3.917  10.063  1.1115  1.2716  0.8959
 2071TIP3    H227629   2.867   3.911   9.961  0.0058 -2.0749 -0.1705
 2072TIP3   OH227630   4.639   3.547  10.350 -0.6679  0.1255  0.1188
 2072TIP3    H127631   4.731   3.554  10.322 -0.2209  0.6745  1.6676
 2072TIP3    H227632   4.605   3.474  10.300  1.4832 -2.0624  1.6917
 2073TIP3   OH227633   1.063   5.548  10.754  0.4421  0.3759 -0.4122
 2073TIP3    H127634   1.140   5.583  10.798  0.8537 -0.7766 -0.2036
 2073TIP3    H227635   1.089   5.461  10.725 -0.3816  0.4502 -1.4317
 2074TIP3   OH227636   0.453   5.284  13.610  0.0695  0.1484  0.1487
 2074TIP3    H127637   0.435   5.239  13.527 -0.0901  0.9726 -0.2745
 2074TIP3    H227638   0.515   5.228  13.655  1.2991  0.4246 -1.1790
 2075TIP3   OH227639   0.232   2.054  11.475 -0.3048 -0.8231 -0.4666
 2075TIP3    H127640   0.217   1.990  11.406 -0.8863 -0.8805 -0.2850
 2075TIP3    H227641   0.215   2.007  11.556  1.6137 -1.1194 -0.2099
 2076TIP3   OH227642   2.725   6.057   9.883  0.4072 -0.2986  0.6674
 2076TIP3    H127643   2.741   5.976   9.835  1.4211 -0.9765  2.1209
 2076TIP3    H227644   2.641   6.043   9.926  0.6340 -0.6340  1.0078
 2077TIP3   OH227645   4.709   6.145  11.100 -0.1652 -0.1212 -0.5733
 2077TIP3    H127646   4.804   6.135  11.100 -0.2367 -0.9310 -1.5031
 2077TIP3    H227647   4.687   6.164  11.008 -0.9021 -0.0176 -0.3801
 2078TIP3   OH227648   1.761   3.596  11.176 -0.2850 -0.4548 -0.0256
 2078TIP3    H127649   1.707   3.621  11.250  0.7504  0.5475  0.4062
 2078TIP3    H227650   1.705   3.538  11.123 -1.3309 -0.4319  1.0462
 2079TIP3   OH227651   1.287   3.816  11.701 -0.0350 -0.1818 -0.2379
 2079TIP3    H127652   1.255   3.842  11.787 -0.0753  0.3204 -0.4036
 2079TIP3    H227653   1.290   3.720  11.705 -2.5482 -0.3111 -0.5647
 2080TIP3   OH227654   2.412   0.210  11.730  0.7645 -0.3955 -0.1056
 2080TIP3    H127655   2.498   0.171  11.749  0.6933  0.0552  1.2112
 2080TIP3    H227656   2.429   0.270  11.657  1.1380 -1.8772 -1.2578
 2081TIP3   OH227657   2.397   3.830  10.195  0.5699  0.3382 -0.2580
 2081TIP3    H127658   2.444   3.812  10.277 -1.6326  0.8259  1.1593
 2081TIP3    H227659   2.435   3.769  10.132  1.3972 -0.9774  1.4542
 2082TIP3   OH227660   3.594   5.486  10.587  0.1668  0.3054  0.0757
 2082TIP3    H127661   3.652   5.546  10.539  1.0568 -1.6594 -1.3871
 2082TIP3    H227662   3.506   5.517  10.567  0.6199  1.3527 -0.3500
 2083TIP3   OH227663   5.291   6.982  12.654  0.1781  0.4751  0.0091
 2083TIP3    H127664   5.382   6.986  12.683 -0.3084 -0.7954  1.7480
 2083TIP3    H227665   5.248   7.055  12.699  0.3053  1.0090 -0.7268
 2084TIP3   OH227666   5.183   3.283  11.726  0.6646  0.0581 -0.2087
 2084TIP3    H127667   5.123   3.338  11.677  1.2341  0.5863 -0.3146
 2084TIP3    H227668   5.270   3.320  11.710  0.9208 -0.1098  0.7164
 2085TIP3   OH227669   0.642   3.363  12.731  0.3571  0.1807  0.3294
 2085TIP3    H127670   0.732   3.373  12.763 -0.0570 -0.7980  1.8389
 2085TIP3    H227671   0.603   3.299  12.790 -1.0655 -0.0806 -0.8913
 2086TIP3   OH227672   2.018   5.324  10.965 -0.0454 -0.4197  0.5382
 2086TIP3    H127673   1.948   5.342  10.902  0.8243 -0.9938 -0.6061
 2086TIP3    H227674   2.099   5.338  10.916  0.6657 -3.8579  0.6277
 2087TIP3   OH227675   3.106   1.643  11.320  0.0735  0.3369  0.0438
 2087TIP3    H127676   3.029   1.592  11.296 -0.9173  2.2928 -1.0563
 2087TIP3    H227677   3.091   1.729  11.281  1.2070  1.8075  2.6885
 2088TIP3   OH227678   7.119   4.455  10.178 -0.3951  0.0922 -0.0653
 2088TIP3    H127679   7.156   4.499  10.255 -0.2739  0.2873 -0.2350
 2088TIP3    H227680   7.027   4.482  10.177  0.1143  1.8697 -1.2491
 2089TIP3   OH227681   1.260   6.323  10.777 -0.0332  0.4432  0.0225
 2089TIP3    H127682   1.180   6.313  10.830  0.1736 -0.7437  0.1296
 2089TIP3    H227683   1.327   6.349  10.840 -0.1929  0.8151  0.0395
 2090TIP3   OH227684   4.542   2.198  12.212 -0.4320  0.2129  0.2660
 2090TIP3    H127685   4.461   2.164  12.249 -0.4343 -2.0272 -1.6440
 2090TIP3    H227686   4.603   2.124  12.217  1.4307  1.7890  1.4389
 2091TIP3   OH227687   3.420   4.444  10.148 -0.4414 -0.0298 -0.7424
 2091TIP3    H127688   3.506   4.455  10.189  0.0062 -0.1626 -1.6383
 2091TIP3    H227689   3.387   4.362  10.185  0.2287 -0.4783 -1.1186
 2092TIP3   OH227690   2.233   5.062  11.741  0.0756  1.3176  0.0457
 2092TIP3    H127691   2.250   5.008  11.819  1.4646 -0.2957 -1.3155
 2092TIP3    H227692   2.154   5.024  11.703  1.1698  0.0487 -1.0273
 2093TIP3   OH227693   4.484   1.739  12.638  0.1602 -0.2909  0.0208
 2093TIP3    H127694   4.508   1.830  12.620 -0.5240  0.0190  0.6266
 2093TIP3    H227695   4.449   1.707  12.555 -1.7314  0.7147  0.4035
 2094TIP3   OH227696   2.890   0.427  11.820  0.0171 -0.3177  0.3092
 2094TIP3    H127697   2.838   0.495  11.865 -0.0882  0.7245 -1.3386
 2094TIP3    H227698   2.915   0.366  11.890  1.9111  2.5240  2.2520
 2095TIP3   OH227699   4.092   1.824  13.941  0.5018 -0.1276  0.2456
 2095TIP3    H127700   4.145   1.821  13.861  2.0461  0.2280  1.2407
 2095TIP3    H227701   4.124   1.750  13.993 -2.4410 -2.1014 -0.6352
 2096TIP3   OH227702   2.118   6.012  10.451  0.1650 -0.2530  0.3951
 2096TIP3    H127703   2.052   6.082  10.453 -0.9774 -1.2835 -0.4380
 2096TIP3    H227704   2.200   6.058  10.436 -0.1624  1.1746  2.6425
 2097TIP3   OH227705   3.098   4.312  13.338 -0.1499  0.5791 -0.4956
 2097TIP3    H127706   3.053   4.396  13.343 -2.1472 -0.5375  0.6066
 2097TIP3    H227707   3.165   4.316  13.406 -0.3366  1.2304 -0.3528
 2098TIP3   OH227708   3.956   4.578  11.784 -0.2014 -0.2550  0.0527
 2098TIP3    H127709   4.036   4.567  11.835 -1.4829 -0.8352  1.9543
 2098TIP3    H227710   3.885   4.553  11.843 -2.1537  4.1053 -0.1905
 2099TIP3   OH227711   2.089   2.425  12.430 -0.2147 -0.4106  0.0738
 2099TIP3    H127712   2.035   2.500  12.405 -0.9489 -0.8161  0.4059
 2099TIP3    H227713   2.077   2.418  12.525  0.5794 -0.3909  0.1780
 2100TIP3   OH227714   4.721   5.079  11.652 -0.0593  0.1704  0.4999
 2100TIP3    H127715   4.689   4.994  11.622 -1.5466  0.2733  1.7055
 2100TIP3    H227716   4.762   5.118  11.575 -3.1645  0.1644 -1.2790
 2101TIP3   OH227717   3.293   4.455  11.742  0.1325 -0.0872 -0.2149
 2101TIP3    H127718   3.359   4.521  11.763 -0.6398  0.5274  0.3259
 2101TIP3    H227719   3.212   4.489  11.782  0.0152 -2.0031  1.2185
 2102TIP3   OH227720   2.999   6.590  12.158 -0.1806 -0.0798  1.1201
 2102TIP3    H127721   3.031   6.544  12.081  1.9424 -0.9787  2.4990
 2102TIP3    H227722   3.052   6.669  12.163 -1.3049  0.7034  0.8609
 2103TIP3   OH227723   5.529   6.501  13.609  0.2708  0.1429  0.6793
 2103TIP3    H127724   5.476   6.559  13.555  0.1785 -0.7800 -0.2287
 2103TIP3    H227725   5.570   6.440  13.547  0.9179 -0.3230  1.5464
 2104TIP3   OH227726   0.154   3.707  13.404 -0.0161 -0.2545  0.0599
 2104TIP3    H127727   0.063   3.677  13.405  0.7437 -2.9283 -2.3382
 2104TIP3    H227728   0.181   3.707  13.496 -2.6940  1.5299  0.8940
 2105TIP3   OH227729   5.076   5.226  12.942  0.3095  0.1714 -0.2145
 2105TIP3    H127730   5.153   5.195  12.991 -1.8652 -0.5867  2.8898
 2105TIP3    H227731   5.040   5.146  12.903 -0.2425  0.1796  0.2892
 2106TIP3   OH227732   1.897   5.489  12.724  0.2322 -0.0916 -0.2788
 2106TIP3    H127733   1.858   5.576  12.725  0.0353 -0.1749  1.8247
 2106TIP3    H227734   1.823   5.430  12.711  0.1776 -0.0181 -0.3010
 2107TIP3   OH227735   5.002   3.262  12.174 -0.5193  0.3175  0.0461
 2107TIP3    H127736   5.059   3.185  12.169 -1.3571 -0.4508  1.9314
 2107TIP3    H227737   4.971   3.275  12.084  2.0516  0.3442 -0.8918
 2108TIP3   OH227738   4.146   6.226  10.976  0.3006  0.0049  0.4392
 2108TIP3    H127739   4.117   6.300  10.923 -0.2493 -0.8831 -0.5338
 2108TIP3    H227740   4.076   6.162  10.969  0.7838 -0.6286  1.2355
 2109TIP3   OH227741   3.049   4.937  11.541  0.9884 -0.3926  0.4513
 2109TIP3    H127742   3.127   4.951  11.594  0.2653  0.2843  1.3546
 2109TIP3    H227743   2.977   4.968  11.596  0.3449  1.7483 -1.5208
 2110TIP3   OH227744   2.189   4.853  10.574 -0.6114 -0.2572 -0.3284
 2110TIP3    H127745   2.137   4.782  10.612  0.9126 -0.5174  1.3436
 2110TIP3    H227746   2.192   4.920  10.642 -0.8595  0.8184 -1.3649
 2111TIP3   OH227747   3.512   2.393  11.263 -0.1970  0.4008  0.0961
 2111TIP3    H127748   3.503   2.391  11.358  1.0135 -0.4474  0.2078
 2111TIP3    H227749   3.446   2.456  11.234 -0.2325  1.0518  1.5344
 2112TIP3   OH227750   5.826   0.886  12.510 -0.3352  0.2330 -0.4064
 2112TIP3    H127751   5.873   0.874  12.592  1.3294 -0.9500 -1.5040
 2112TIP3    H227752   5.741   0.922  12.536  0.4738  0.6454  1.7490
 2113TIP3   OH227753   3.965   2.435  11.390  0.5008 -0.2909  0.6039
 2113TIP3    H127754   4.008   2.365  11.440 -0.6526 -1.8551 -0.5349
 2113TIP3    H227755   4.033   2.466  11.330  0.8807 -0.7661  0.7788
 2114TIP3   OH227756   7.148   0.021  10.972  0.0571  0.4839 -0.2452
 2114TIP3    H127757   7.170   0.085  11.041 -2.4021  1.9497 -0.7666
 2114TIP3    H227758   7.055   0.035  10.956 -0.3516 -2.7633 -0.9208
 2115TIP3   OH227759   4.896   4.316  13.375  0.0530  0.0037  0.0195
 2115TIP3    H127760   4.861   4.269  13.300  0.7794 -0.6739  0.0981
 2115TIP3    H227761   4.964   4.258  13.411 -0.6509  0.0691  1.5157
 2116TIP3   OH227762   0.440   5.177  13.300  0.3603  0.2524 -0.7160
 2116TIP3    H127763   0.346   5.158  13.298  0.3495  0.0637  1.0748
 2116TIP3    H227764   0.447   5.265  13.263 -0.5855  0.5628 -0.1743
 2117TIP3   OH227765   3.509   1.449  12.480 -0.1380  0.0312  0.5416
 2117TIP3    H127766   3.419   1.433  12.510  0.5336 -1.0481  2.0571
 2117TIP3    H227767   3.539   1.364  12.450 -0.4372  0.8944 -2.3351
 2118TIP3   OH227768   2.269   3.208  11.540  0.2243 -0.0505  0.2988
 2118TIP3    H127769   2.279   3.143  11.471  0.6688  1.3272 -0.9545
 2118TIP3    H227770   2.281   3.293  11.496 -0.5964  0.8982  1.8461
 2119TIP3   OH227771   3.561   2.922  10.191  0.4758  0.1251  0.0776
 2119TIP3    H127772   3.534   2.990  10.130  1.0288 -0.5051 -0.8644
 2119TIP3    H227773   3.652   2.903  10.169 -0.0307 -1.8020 -0.5036
 2120TIP3   OH227774   1.412   0.563  12.395  0.3882 -0.1697 -0.5086
 2120TIP3    H127775   1.330   0.612  12.402 -0.1135 -0.8697 -1.4136
 2120TIP3    H227776   1.388   0.473  12.417  1.0218 -0.2786 -0.2661
 2121TIP3   OH227777   2.889   4.025  13.972 -0.6204 -0.2461  0.1129
 2121TIP3    H127778   2.840   3.944  13.961  0.6829 -0.8490 -1.5383
 2121TIP3    H227779   2.935   4.015  14.055 -0.6589 -1.0930  0.0346
 2122TIP3   OH227780   6.367   3.924  11.248 -0.3719  0.1633  0.0399
 2122TIP3    H127781   6.395   3.977  11.322 -1.9898  0.4285  0.4853
 2122TIP3    H227782   6.313   3.984  11.196  1.8629  0.3967 -2.0954
 2123TIP3   OH227783   0.602   4.552  10.555 -0.3611  0.1554  0.1837
 2123TIP3    H127784   0.602   4.562  10.459  1.2131 -0.7804  0.0790
 2123TIP3    H227785   0.688   4.582  10.582 -0.4646 -0.4910  1.2224
 2124TIP3   OH227786   7.238   3.605  11.069 -0.0282 -0.4267 -0.2584
 2124TIP3    H127787   7.246   3.674  11.002  0.5701 -0.5099 -0.2723
 2124TIP3    H227788   7.213   3.527  11.020 -0.6975 -0.2261 -0.2442
 2125TIP3   OH227789   2.343   6.995  10.510  0.1010 -0.0818  0.5315
 2125TIP3    H127790   2.386   6.926  10.561 -0.8421 -1.2472 -0.2195
 2125TIP3    H227791   2.352   6.967  10.419 -1.3223  0.1680  0.2943
 2126TIP3   OH227792   2.575   5.750  10.610  0.5723 -0.4305 -0.1415
 2126TIP3    H127793   2.524   5.745  10.530 -1.1403  0.6592  0.8369
 2126TIP3    H227794   2.566   5.663  10.650 -1.7478  0.1571  0.7101
 2127TIP3   OH227795   2.006   2.136  12.369 -0.2274  0.4319 -0.1873
 2127TIP3    H127796   2.064   2.119  12.296 -0.1163  0.1470 -0.0329
 2127TIP3    H227797   2.018   2.229  12.389  1.8241 -0.1136  1.2692
 2128TIP3   OH227798   3.794   6.750  12.971 -0.3466  0.5680 -0.4531
 2128TIP3    H127799   3.755   6.693  13.037  0.3483 -0.0257 -0.5400
 2128TIP3    H227800   3.748   6.833  12.980  1.3961  1.3186  2.5327
 2129TIP3   OH227801   4.321   4.041  11.223  0.3332  0.2920 -0.3347
 2129TIP3    H127802   4.235   4.045  11.264  0.5462 -1.7764  0.3867
 2129TIP3    H227803   4.303   4.026  11.130 -0.0969  1.4632 -0.4490
 2130TIP3   OH227804   0.996   4.459  11.714  0.7367  0.5337 -0.2092
 2130TIP3    H127805   0.915   4.434  11.759  1.2993  0.8701  1.0049
 2130TIP3    H227806   1.057   4.388  11.734  1.3512  1.2635  0.5799
 2131TIP3   OH227807   2.173   3.201  12.842  0.0084  0.0855  0.2238
 2131TIP3    H127808   2.114   3.174  12.772  0.3177 -0.9192  0.3504
 2131TIP3    H227809   2.239   3.133  12.847  0.6647  0.7394  0.7102
 2132TIP3   OH227810   5.605   4.899  10.350 -0.5382  0.3133 -0.2870
 2132TIP3    H127811   5.602   4.919  10.256 -0.3291  1.3598 -0.0740
 2132TIP3    H227812   5.624   4.983  10.392  1.5654 -0.5644  0.5401
 2133TIP3   OH227813   3.365   0.856  13.014 -0.3631 -0.4751 -0.1263
 2133TIP3    H127814   3.450   0.876  12.975 -0.6711  1.0360 -0.0570
 2133TIP3    H227815   3.313   0.822  12.941  0.1727 -1.0271 -0.2549
 2134TIP3   OH227816   3.797   3.709  10.007 -0.2959 -0.2844  0.2865
 2134TIP3    H127817   3.788   3.764   9.929  0.0807 -2.6281 -1.4744
 2134TIP3    H227818   3.891   3.691  10.012 -0.3698 -0.4551  1.0634
 2135TIP3   OH227819   2.175   0.284  14.592 -0.1087 -0.6954 -0.1140
 2135TIP3    H127820   2.115   0.251  14.525 -1.1978  0.2100  0.4084
 2135TIP3    H227821   2.260   0.247  14.568 -0.4032 -0.0152 -2.2593
 2136TIP3   OH227822   1.016   2.198  11.003 -0.2217 -0.1792 -0.0074
 2136TIP3    H127823   1.002   2.156  10.918 -2.0161  2.0159 -0.8447
 2136TIP3    H227824   0.928   2.222  11.032  0.6736  2.1668  0.8594
 2137TIP3   OH227825   3.301   5.018  12.901  0.2634  0.0786 -0.3259
 2137TIP3    H127826   3.338   4.948  12.847  3.6202  1.7065 -0.2195
 2137TIP3    H227827   3.371   5.082  12.910 -1.0804  1.1136  3.7993
 2138TIP3   OH227828   4.168   4.361  13.329  0.1740  0.2034  0.1763
 2138TIP3    H127829   4.220   4.419  13.385 -0.4756  0.4383  0.5515
 2138TIP3    H227830   4.222   4.345  13.253  1.9574 -1.8099  1.8115
 2139TIP3   OH227831   4.638   1.930  10.133 -0.3178 -0.5958  0.1294
 2139TIP3    H127832   4.665   1.885  10.213  0.5298 -1.1666 -0.4674
 2139TIP3    H227833   4.686   1.886  10.063 -2.8525 -1.6987 -0.9944
 2140TIP3   OH227834   2.763   4.495  10.334  0.0609 -0.2765  0.1444
 2140TIP3    H127835   2.774   4.574  10.281  1.1585 -0.0022  0.7674
 2140TIP3    H227836   2.800   4.425  10.280 -1.1391 -0.4328 -0.5157
 2141TIP3   OH227837   2.601   1.686  11.707  0.3079 -0.7117 -0.0134
 2141TIP3    H127838   2.524   1.633  11.683  0.1561  0.3155 -1.9322
 2141TIP3    H227839   2.672   1.647  11.656  0.6279 -0.3902  0.1957
 2142TIP3   OH227840   4.361   4.820  12.230  0.0144 -0.0242 -0.0555
 2142TIP3    H127841   4.442   4.842  12.184  0.2453 -0.8187 -0.0402
 2142TIP3    H227842   4.378   4.733  12.266  0.1029  0.8711  2.1359
 2143TIP3   OH227843   4.230   3.215  13.228  0.2998  0.1369 -0.2411
 2143TIP3    H127844   4.229   3.119  13.226 -0.9206 -0.0898  4.3946
 2143TIP3    H227845   4.314   3.237  13.270 -0.8949  0.8597  1.8700
 2144TIP3   OH227846   1.973   5.136  10.591  0.0714  0.2713  0.0325
 2144TIP3    H127847   1.963   5.123  10.497 -0.2740 -0.2711  0.1443
 2144TIP3    H227848   2.057   5.182  10.600  1.6737 -2.5116 -0.3136
 2145TIP3   OH227849   0.998   2.233  13.188  0.1693  0.4616  0.5180
 2145TIP3    H127850   1.005   2.308  13.129  0.1606  1.3824  1.6711
 2145TIP3    H227851   1.089   2.212  13.211  0.2009 -0.1822 -0.1520
 2146TIP3   OH227852   1.484   0.015  15.167  0.3655  0.4520 -0.0172
 2146TIP3    H127853   1.557   0.043  15.112  0.9953  0.7832  0.9678
 2146TIP3    H227854   1.524  -0.002  15.253 -0.7056  0.6104  0.5246
 2147TIP3   OH227855   2.434   3.014  12.095  0.1301 -0.0479  0.4125
 2147TIP3    H127856   2.355   3.008  12.041 -1.2275  0.2885  2.3271
 2147TIP3    H227857   2.436   3.105  12.124 -0.4849 -0.7935  2.8836
 2148TIP3   OH227858   2.724   3.291  10.790  0.3288 -0.1663  0.4350
 2148TIP3    H127859   2.644   3.292  10.843  0.1797  0.1474  0.2113
 2148TIP3    H227860   2.752   3.383  10.787  0.4867 -0.2211  0.1993
 2149TIP3   OH227861   4.571   4.724  10.414 -0.1079  0.4704 -0.2596
 2149TIP3    H127862   4.605   4.646  10.369 -1.5408 -0.3000 -0.0288
 2149TIP3    H227863   4.512   4.765  10.350 -2.0435 -0.5490  0.8390
 2150TIP3   OH227864   0.197   4.443  10.392 -0.2711  0.0605  0.0373
 2150TIP3    H127865   0.186   4.526  10.345  2.1557 -0.0933 -0.8594
 2150TIP3    H227866   0.217   4.469  10.482 -1.4497  0.3932  0.2183
 2151TIP3   OH227867   6.280   5.986  13.456 -0.1759  0.3808  0.3731
 2151TIP3    H127868   6.338   5.943  13.394  0.2069  0.8486  0.4051
 2151TIP3    H227869   6.217   5.918  13.481  0.3596 -0.1290  0.3463
 2152TIP3   OH227870   3.457   4.077  12.854  0.1573 -0.1059 -0.3998
 2152TIP3    H127871   3.469   4.171  12.845 -0.5841  0.0475  0.2010
 2152TIP3    H227872   3.468   4.043  12.766  0.8815  0.4931 -0.5429
 2153TIP3   OH227873   6.697   0.803  12.252  0.0853 -0.0862  0.2179
 2153TIP3    H127874   6.790   0.792  12.233 -0.1166 -0.7546 -0.3930
 2153TIP3    H227875   6.664   0.713  12.263 -0.5171  0.1424  0.2982
 2154TIP3   OH227876   4.788   3.199  11.551 -0.2743 -0.3338 -0.0695
 2154TIP3    H127877   4.756   3.236  11.469 -0.9537 -0.6474  0.0520
 2154TIP3    H227878   4.710   3.169  11.596  0.2007 -1.2283  0.1723
 2155TIP3   OH227879   4.681   4.041  11.016  0.5638 -0.0988 -0.6751
 2155TIP3    H127880   4.624   4.089  10.955 -2.8298 -0.8142  1.7467
 2155TIP3    H227881   4.686   4.098  11.093 -1.3242 -2.3806  1.1939
 2156TIP3   OH227882   3.281   5.838  10.217  0.2184  0.2417  0.1014
 2156TIP3    H127883   3.262   5.844  10.123  0.3778  1.3447  0.1358
 2156TIP3    H227884   3.348   5.769  10.224  0.3668  0.3114 -0.6120
 2157TIP3   OH227885   4.966   6.849  12.119  0.2679 -0.0298  0.3175
 2157TIP3    H127886   4.965   6.775  12.179 -0.2260  1.1319  1.7800
 2157TIP3    H227887   4.915   6.917  12.163 -1.6743  0.2515 -2.2428
 2158TIP3   OH227888   2.064   7.063  10.575 -0.6236  0.3977  0.2658
 2158TIP3    H127889   2.155   7.047  10.550 -0.1727  1.9151  0.8706
 2158TIP3    H227890   2.013   7.014  10.511  0.5770  1.4222 -1.5025
 2159TIP3   OH227891   0.512   6.987  11.827 -0.5635  0.0940 -0.4611
 2159TIP3    H127892   0.418   6.972  11.812 -0.4795 -0.8698 -0.0408
 2159TIP3    H227893   0.535   7.055  11.764 -1.7397  0.9587  0.0210
 2160TIP3   OH227894   2.097   5.220   9.822  0.6198  0.5296 -0.2924
 2160TIP3    H127895   2.068   5.162   9.751  1.7864 -0.7043  0.2198
 2160TIP3    H227896   2.189   5.238   9.802  0.3515  1.9664 -0.2720
 2161TIP3   OH227897   2.713   4.079  11.120  0.1921  0.7633 -0.4641
 2161TIP3    H127898   2.782   4.071  11.186  1.2356 -1.8222 -1.8089
 2161TIP3    H227899   2.637   4.110  11.170  1.4034  0.5079  1.6355
 2162TIP3   OH227900   1.818   4.614  10.216  0.0086  0.3737  0.3488
 2162TIP3    H127901   1.830   4.703  10.183 -1.8650  1.0577  1.3888
 2162TIP3    H227902   1.824   4.558  10.138  3.6524  1.1244  0.0130
 2163TIP3   OH227903   1.223   4.922  11.005 -0.3042  0.1363  0.1994
 2163TIP3    H127904   1.207   4.828  11.004  0.9256 -0.1387  2.2327
 2163TIP3    H227905   1.141   4.961  11.036  0.2211 -0.5709  2.6059
 2164TIP3   OH227906   2.047   0.461  11.430  0.2374  0.2032  0.3473
 2164TIP3    H127907   1.983   0.390  11.433  0.8060 -0.2825  1.5212
 2164TIP3    H227908   1.995   0.541  11.438 -0.4263 -0.0597 -1.2388
 2165TIP3   OH227909   4.417   7.269  10.057  0.1834 -0.1316 -0.8275
 2165TIP3    H127910   4.473   7.192  10.041  1.2510  0.7316 -1.3193
 2165TIP3    H227911   4.439   7.329   9.986 -0.1962  0.8795 -0.0924
 2166TIP3   OH227912   6.267   4.738  12.460  0.8911  0.4235 -0.1458
 2166TIP3    H127913   6.277   4.800  12.388 -0.4819  0.4804 -0.2969
 2166TIP3    H227914   6.239   4.792  12.534 -1.1334 -0.0986 -0.4922
 2167TIP3   OH227915   3.592   2.690  10.336 -0.3663  0.5688 -0.0060
 2167TIP3    H127916   3.558   2.772  10.298  0.5253  0.6240 -0.7024
 2167TIP3    H227917   3.626   2.642  10.261 -0.6084 -0.3165  0.4483
 2168TIP3   OH227918   2.596   4.011  10.011  0.1477  0.0600 -0.6710
 2168TIP3    H127919   2.589   4.089   9.956  1.0559  0.2511 -0.5259
 2168TIP3    H227920   2.558   3.940   9.958 -2.8501  1.0205  0.1213
 2169TIP3   OH227921   5.331   7.047  10.915 -0.6156  0.1190 -0.6010
 2169TIP3    H127922   5.292   6.962  10.896 -2.5008  0.6293  0.7591
 2169TIP3    H227923   5.256   7.103  10.937  0.6221  2.0337 -1.1260
 2170TIP3   OH227924   4.701   3.127  11.282  0.2660  0.0199 -0.7484
 2170TIP3    H127925   4.780   3.074  11.270 -0.7401 -1.5241 -0.5592
 2170TIP3    H227926   4.676   3.155  11.194  0.7192  0.0846 -0.8563
 2171TIP3   OH227927   6.099   3.976  11.951  0.1188  0.0771 -0.0856
 2171TIP3    H127928   6.113   3.893  11.905  1.0595 -0.0735  0.4718
 2171TIP3    H227929   6.074   4.038  11.882 -1.6176 -0.9005 -0.3770
 2172TIP3   OH227930   4.435   4.073  10.787  0.5385  0.1406 -0.6615
 2172TIP3    H127931   4.434   4.158  10.743 -4.3424  0.5406 -0.0261
 2172TIP3    H227932   4.458   4.011  10.717  2.0858  1.7140 -1.5960
 2173TIP3   OH227933   2.033   3.406  12.289  0.2694  0.0244 -0.0997
 2173TIP3    H127934   2.046   3.417  12.383 -2.0487  2.2589  0.0152
 2173TIP3    H227935   2.108   3.451  12.249  0.0250  1.1202  0.6667
 2174TIP3   OH227936   0.199   2.909  12.495 -0.4999 -0.2693 -0.0131
 2174TIP3    H127937   0.186   2.815  12.508 -1.1904 -0.0613  0.8572
 2174TIP3    H227938   0.178   2.923  12.403 -0.2703 -0.9850 -0.1803
 2175TIP3   OH227939   1.297   4.601  10.904 -0.3991 -0.6112 -0.3135
 2175TIP3    H127940   1.211   4.562  10.887 -0.1303 -0.6335 -1.6530
 2175TIP3    H227941   1.336   4.611  10.818  1.5977 -2.0495  0.3874
 2176TIP3   OH227942   6.508   6.247  10.646  0.0172 -0.2784  0.4570
 2176TIP3    H127943   6.429   6.271  10.598  0.0343  0.2272  0.6796
 2176TIP3    H227944   6.499   6.153  10.663 -0.5596 -0.2064  0.5387
 2177TIP3   OH227945   1.953   2.167  13.044  0.0699 -0.0611  0.2892
 2177TIP3    H127946   2.012   2.096  13.018  0.3898  0.7140 -1.1696
 2177TIP3    H227947   1.988   2.244  13.000  0.9429  1.4639  3.4781
 2178TIP3   OH227948   4.307   4.173  12.349 -0.7495  0.2844 -0.0048
 2178TIP3    H127949   4.397   4.141  12.361 -0.1661  1.7817 -0.3401
 2178TIP3    H227950   4.287   4.221  12.429 -1.7528 -1.1570  0.6394
 2179TIP3   OH227951   6.216   4.096  11.082 -0.0782  0.2071 -0.0099
 2179TIP3    H127952   6.217   4.175  11.135 -0.1228  1.0887 -1.3020
 2179TIP3    H227953   6.131   4.098  11.037  0.1990 -0.2109 -0.5650
 2180TIP3   OH227954   5.006   6.014  10.759  0.1308 -0.7487 -0.3698
 2180TIP3    H127955   5.059   5.938  10.780 -1.0583 -1.6046 -0.4404
 2180TIP3    H227956   4.916   5.980  10.751 -0.6993  0.9222  1.3061
 2181TIP3   OH227957   3.574   4.794   9.901  0.4845  0.2130  0.1122
 2181TIP3    H127958   3.591   4.855   9.973  2.2304  1.1941 -1.1103
 2181TIP3    H227959   3.597   4.842   9.822 -0.0685 -1.3377 -1.0163
 2182TIP3   OH227960   2.925   5.287  10.639 -0.0182 -0.1375 -0.7325
 2182TIP3    H127961   2.947   5.304  10.547  0.4830 -3.1506 -1.2427
 2182TIP3    H227962   3.007   5.302  10.686  0.6821 -1.9517 -1.3060
 2183TIP3   OH227963   5.398   4.717  10.079 -0.1672  0.0441  0.4767
 2183TIP3    H127964   5.482   4.756  10.054 -0.7400  1.4217  0.6350
 2183TIP3    H227965   5.370   4.668  10.003  0.6187 -0.1431  0.3014
 2184TIP3   OH227966   4.403   3.998  12.137  0.1189  0.6206  0.1118
 2184TIP3    H127967   4.365   3.910  12.146 -1.9044  1.2903 -1.5165
 2184TIP3    H227968   4.355   4.051  12.201  1.3324  0.5767  1.0838
 2185TIP3   OH227969   0.215   2.891  15.005 -0.2864  0.2000 -0.1058
 2185TIP3    H127970   0.250   2.902  15.094 -0.5714  1.7273 -0.1711
 2185TIP3    H227971   0.275   2.828  14.964  1.9796  2.1708  0.0441
 2186TIP3   OH227972   6.526   1.116  11.174  0.0998 -0.5143  0.1596
 2186TIP3    H127973   6.549   1.041  11.120  2.0762 -0.9137  1.5236
 2186TIP3    H227974   6.538   1.086  11.264 -0.9642  0.8347  0.7793
 2187TIP3   OH227975   5.336   1.879  11.729 -0.1347 -0.0699  0.1372
 2187TIP3    H127976   5.335   1.811  11.663  0.5451 -0.0906  0.1507
 2187TIP3    H227977   5.417   1.927  11.714  0.8049 -1.0221  1.9131
 2188TIP3   OH227978   4.185   4.603  10.812 -0.5299  0.0134 -0.0985
 2188TIP3    H127979   4.168   4.603  10.718 -1.5101  1.0147  0.0682
 2188TIP3    H227980   4.225   4.688  10.830  1.1767 -0.8131  0.1394
 2189TIP3   OH227981   1.526   0.914  11.271 -0.0852  0.0682  0.5619
 2189TIP3    H127982   1.499   0.828  11.302  0.9484 -0.0614  1.1306
 2189TIP3    H227983   1.618   0.922  11.299 -0.6789  2.0586  2.0648
 2190TIP3   OH227984   5.036   5.266  12.197  0.4691  0.3755  0.7635
 2190TIP3    H127985   5.067   5.176  12.186  0.0080  0.3223 -0.2392
 2190TIP3    H227986   5.109   5.313  12.236  1.5460  0.0861 -0.8612
 2191TIP3   OH227987   6.739   3.867  13.482  0.2105 -0.4235  0.0121
 2191TIP3    H127988   6.739   3.942  13.422  1.4875  0.5216  1.1559
 2191TIP3    H227989   6.825   3.871  13.525 -0.1544 -1.8839  0.8977
 2192TIP3   OH227990   3.253   5.676  12.695  0.2726 -0.3705  0.2122
 2192TIP3    H127991   3.288   5.759  12.662 -0.6668 -0.3784 -0.8361
 2192TIP3    H227992   3.258   5.683  12.790  0.9056  0.5826  0.1084
 2193TIP3   OH227993   4.133   4.532  12.396 -0.2432  0.3560 -0.7896
 2193TIP3    H127994   4.168   4.476  12.465  0.1449 -0.7192 -1.8307
 2193TIP3    H227995   4.069   4.476  12.351 -0.9385  1.2436 -0.9246
 2194TIP3   OH227996   6.777   3.236  10.532  0.8457  0.2328  0.1206
 2194TIP3    H127997   6.831   3.284  10.469  2.5965  0.6242  1.8598
 2194TIP3    H227998   6.690   3.233  10.492  1.8295  0.7757 -2.1313
 2195TIP3   OH227999   1.951   4.580  12.668 -0.2315  0.1368  0.5717
 2195TIP3    H128000   1.908   4.530  12.599  0.7907  0.9349 -0.6732
 2195TIP3    H228001   1.906   4.665  12.668  0.9219  0.7655 -0.3371
 2196TIP3   OH228002   3.139   4.611  10.985  0.3523  0.4544  0.3454
 2196TIP3    H128003   3.162   4.546  10.919  1.1742  0.4250  0.6526
 2196TIP3    H228004   3.222   4.632  11.028 -0.2987 -0.1277  1.9125
 2197TIP3   OH228005   5.440   5.877  11.863  0.4781  0.1799  0.0974
 2197TIP3    H128006   5.460   5.895  11.955  0.3804 -0.8251  0.3225
 2197TIP3    H228007   5.479   5.791  11.846  0.6430  0.4336 -0.8506
 2198TIP3   OH228008   5.160   4.068  12.651  0.0025 -0.1665  0.0659
 2198TIP3    H128009   5.201   4.111  12.726  1.6754 -0.0793 -0.8614
 2198TIP3    H228010   5.230   4.061  12.586 -1.2194 -0.9041 -1.2163
 2199TIP3   OH228011   4.618   0.190  10.182 -0.2840  0.0361 -0.6191
 2199TIP3    H128012   4.610   0.282  10.156  1.0055 -0.2071 -1.9652
 2199TIP3    H228013   4.652   0.146  10.104 -3.3777 -2.0879 -0.8670
 2200TIP3   OH228014   0.077   3.718  12.054 -0.1498 -0.1111 -0.0118
 2200TIP3    H128015   0.013   3.658  12.015 -0.8439  1.1766 -0.8839
 2200TIP3    H228016   0.072   3.699  12.148 -0.1836 -1.5763 -0.2991
 2201TIP3   OH228017   6.996   0.980  12.722  0.1448 -0.4748  0.1414
 2201TIP3    H128018   6.987   0.982  12.817 -0.5221  1.4805  0.0739
 2201TIP3    H228019   7.090   0.973  12.707  0.1692 -1.9978  0.9299
 2202TIP3   OH228020   3.745   4.546   9.933 -0.0365  0.2501 -0.3630
 2202TIP3    H128021   3.674   4.608   9.915  0.2814  1.1687  1.4329
 2202TIP3    H228022   3.822   4.585   9.892  0.1956  1.1405  0.8955
 2203TIP3   OH228023   1.035   5.981  10.696 -0.4947  0.1228  0.7625
 2203TIP3    H128024   0.963   5.998  10.636 -0.7648 -0.5367  0.9018
 2203TIP3    H228025   1.113   5.986  10.641 -0.6118  1.1686  0.6742
 2204TIP3   OH228026   6.141   6.511  10.465  0.0074  0.1621  0.3605
 2204TIP3    H128027   6.099   6.581  10.415  1.0419  1.0533  0.7339
 2204TIP3    H228028   6.205   6.555  10.521  1.9235 -1.2123 -0.6732
 2205TIP3   OH228029   2.847   4.280  11.305 -0.4166  0.0053  0.3412
 2205TIP3    H128030   2.858   4.341  11.232  0.7448 -1.5752 -0.8478
 2205TIP3    H228031   2.797   4.330  11.370 -1.0704  1.6088 -1.3192
 2206TIP3   OH228032   0.577   2.806  10.267 -0.4113  0.0700 -0.2335
 2206TIP3    H128033   0.509   2.783  10.204 -1.6152  1.2286  0.6020
 2206TIP3    H228034   0.537   2.789  10.352  0.0404  1.5403  0.2862
 2207TIP3   OH228035   2.483   5.155  11.570 -0.5024  0.0073  0.2655
 2207TIP3    H128036   2.515   5.082  11.517 -0.7538  1.1778 -1.5387
 2207TIP3    H228037   2.393   5.131  11.592 -1.2786  0.6747 -2.0619
 2208TIP3   OH228038   2.724   6.874  14.393  0.3947 -0.3398  0.3949
 2208TIP3    H128039   2.763   6.822  14.323 -0.7390  0.4329 -0.8244
 2208TIP3    H228040   2.793   6.881  14.459  1.6667 -0.5979 -0.8877
 2209TIP3   OH228041   1.804   3.077  10.863 -0.1091  0.0414  0.2443
 2209TIP3    H128042   1.891   3.060  10.826  0.3944  0.2704  1.2994
 2209TIP3    H228043   1.748   3.009  10.826  1.0300 -1.5423  1.3641
 2210TIP3   OH228044   5.070   6.044  13.838  0.2253  0.0406 -0.2395
 2210TIP3    H128045   5.033   5.975  13.894  0.9961  1.6355  2.3094
 2210TIP3    H228046   5.148   6.073  13.884  0.0821  2.4226 -1.4464
 2211TIP3   OH228047   0.848   4.044  11.353 -0.2615  0.0522 -0.0411
 2211TIP3    H128048   0.910   4.070  11.286 -0.4009 -0.2005 -0.2725
 2211TIP3    H228049   0.773   4.009  11.304 -0.6621  0.5314  0.2277
 2212TIP3   OH228050   4.690   4.157  11.296  0.2478  0.3794  0.4864
 2212TIP3    H128051   4.684   4.219  11.368  0.5928 -0.0603  0.8954
 2212TIP3    H228052   4.600   4.136  11.274  0.0888  1.9203 -0.4324
 2213TIP3   OH228053   2.823   5.011  11.859 -0.0278 -0.0874  0.4752
 2213TIP3    H128054   2.894   5.065  11.824  0.1622 -1.2156 -0.9035
 2213TIP3    H228055   2.748   5.071  11.863  0.0150  0.1501 -1.6394
 2214TIP3   OH228056   3.825   1.901  14.159  0.0440  0.3003  0.7339
 2214TIP3    H128057   3.875   1.982  14.163 -0.1994  0.4882  0.0412
 2214TIP3    H228058   3.836   1.870  14.069  0.1892 -0.4704  1.0101
 2215TIP3   OH228059   4.273   3.255  10.754 -0.0285  0.1038 -0.3413
 2215TIP3    H128060   4.189   3.210  10.752 -0.1237  0.2660  0.0598
 2215TIP3    H228061   4.262   3.325  10.817  0.7455 -0.5690  0.5677
 2216TIP3   OH228062   4.948   2.194  13.342 -0.0785  0.4694 -0.4610
 2216TIP3    H128063   4.949   2.256  13.415 -2.1052 -0.3128  0.2665
 2216TIP3    H228064   4.994   2.239  13.271  4.4721  0.1762  2.1030
 2217TIP3   OH228065   2.041   0.523  11.881  0.1743 -0.2084  1.0299
 2217TIP3    H128066   2.078   0.463  11.815  0.1566 -1.0669  1.7844
 2217TIP3    H228067   2.000   0.465  11.945  0.6266  0.6010  2.0601
 2218TIP3   OH228068   3.814   1.326  14.644  0.2096  0.0757 -0.0395
 2218TIP3    H128069   3.804   1.232  14.657  1.9018  0.0287  1.0709
 2218TIP3    H228070   3.862   1.356  14.721  0.3478  1.7224 -0.7483
 2219TIP3   OH228071   4.305   4.535  10.332  0.0030 -0.0190 -0.3857
 2219TIP3    H128072   4.308   4.556  10.426  0.2523 -2.1165  0.0951
 2219TIP3    H228073   4.316   4.619  10.288  2.4891  0.6512  1.4584
 2220TIP3   OH228074   4.665   5.276   9.657 -0.2702 -0.6201  0.0304
 2220TIP3    H128075   4.614   5.275   9.575 -1.6872 -0.7037  0.8966
 2220TIP3    H228076   4.614   5.332   9.716  0.7433 -0.5725  0.8709
 2221TIP3   OH228077   4.781   4.280  11.831 -0.0018  0.3775 -0.2042
 2221TIP3    H128078   4.827   4.342  11.775 -0.1118 -0.0221 -0.7457
 2221TIP3    H228079   4.771   4.325  11.914 -2.4920  2.1378 -1.4080
 2222TIP3   OH228080   1.616   5.495  10.340 -0.2769 -0.5332  0.4229
 2222TIP3    H128081   1.698   5.526  10.301 -0.3156 -2.6830 -1.4833
 2222TIP3    H228082   1.558   5.480  10.265 -2.0939  0.0806  1.6953
 2223TIP3   OH228083   3.264   4.454  12.240  0.2669  0.2591  0.1182
 2223TIP3    H128084   3.254   4.378  12.182  0.9498  0.0575  0.2635
 2223TIP3    H228085   3.184   4.453  12.293 -0.7387  0.9045 -1.3308
 2224TIP3   OH228086   4.682   1.323  12.378  0.0831  0.3167  0.1495
 2224TIP3    H128087   4.706   1.329  12.470  0.2582  0.6081  0.0850
 2224TIP3    H228088   4.753   1.368  12.332 -0.1354  0.3949 -0.1088
 2225TIP3   OH228089   5.307   3.973  10.082 -0.4077 -0.3359 -0.1131
 2225TIP3    H128090   5.394   4.001  10.054 -1.6712  3.2142 -0.7918
 2225TIP3    H228091   5.263   4.054  10.108 -4.3098 -1.6968 -2.1103
 2226TIP3   OH228092   4.823   1.028  11.137  0.3813  0.4288 -0.2142
 2226TIP3    H128093   4.844   0.947  11.090 -0.1900 -1.2104  2.2571
 2226TIP3    H228094   4.746   1.062  11.092  0.9403 -0.1078 -1.6168
 2227TIP3   OH228095   7.221   3.132  10.778  0.2163 -0.0616  0.2791
 2227TIP3    H128096   7.212   3.123  10.683 -0.3418 -0.3017  0.3491
 2227TIP3    H228097   7.148   3.081  10.813  1.0208 -0.8157  0.8652
 2228TIP3   OH228098   3.797   4.208   9.791 -0.3742 -0.0480  0.1714
 2228TIP3    H128099   3.730   4.231   9.855 -1.1705  1.4864 -1.1660
 2228TIP3    H228100   3.880   4.232   9.832 -0.7592 -0.6123  1.2747
 2229TIP3   OH228101   4.288   6.159  11.792  0.1626 -0.4058  0.6343
 2229TIP3    H128102   4.193   6.152  11.806  0.0272  2.6296  1.4285
 2229TIP3    H228103   4.315   6.236  11.841  3.0214 -1.0338  0.1530
 2230TIP3   OH228104   3.399   5.796  10.906  0.1162 -0.2554 -0.1864
 2230TIP3    H128105   3.407   5.759  10.818 -0.7247 -1.8404  0.3950
 2230TIP3    H228106   3.305   5.807  10.919  0.3651  2.8367 -0.6333
 2231TIP3   OH228107   2.171   3.041  11.971  0.3784  0.1543 -0.4785
 2231TIP3    H128108   2.177   2.946  11.982  1.3523  0.1945 -0.5887
 2231TIP3    H228109   2.107   3.069  12.036  1.5217 -0.3497  0.8782
 2232TIP3   OH228110   5.747   5.405  10.831 -0.4913  0.1209  0.6152
 2232TIP3    H128111   5.697   5.462  10.772 -0.5596  0.6283  1.1584
 2232TIP3    H228112   5.768   5.461  10.906 -0.4512 -0.5324  1.0946
 2233TIP3   OH228113   0.909   3.351  11.037 -0.0130  0.4278  0.4648
 2233TIP3    H128114   0.895   3.443  11.015  0.3156  0.1160 -1.0873
 2233TIP3    H228115   1.003   3.338  11.025 -0.1312 -0.2219  0.2173
 2234TIP3   OH228116   4.060   2.964  10.442  0.5748  0.1454 -0.4031
 2234TIP3    H128117   3.968   2.986  10.461  0.4187 -1.5718  0.9867
 2234TIP3    H228118   4.101   2.958  10.528  1.7724 -0.0901 -0.9811
 2235TIP3   OH228119   4.724   5.758  10.674 -0.0170 -0.3375  0.7054
 2235TIP3    H128120   4.727   5.852  10.692 -0.8492  0.3485 -2.4219
 2235TIP3    H228121   4.778   5.747  10.596  0.1025 -2.4918  1.0585
 2236TIP3   OH228122   0.814   5.405   0.171  0.4981 -0.4359  0.5261
 2236TIP3    H128123   0.883   5.423   0.107 -0.1800 -0.2499 -0.1499
 2236TIP3    H228124   0.781   5.318   0.147 -0.1300 -0.1313  0.2964
 2237TIP3   OH228125   5.220   3.077  12.222 -0.3380 -0.6893  0.1442
 2237TIP3    H128126   5.292   3.123  12.266  0.3660 -0.1751 -1.5247
 2237TIP3    H228127   5.234   2.985  12.245  1.0694 -0.6375 -0.4276
 2238TIP3   OH228128   4.660   5.139   9.890 -0.3077  0.4358  0.2139
 2238TIP3    H128129   4.621   5.058   9.859  0.0608  0.1991  0.3581
 2238TIP3    H228130   4.696   5.180   9.811  0.5145 -0.1019  0.2949
 2239TIP3   OH228131   6.022   3.885  10.119  0.2149 -0.1786  0.2504
 2239TIP3    H128132   6.081   3.826  10.166  0.7874 -0.6385 -1.0248
 2239TIP3    H228133   5.979   3.937  10.188  1.9630  0.0362  1.1967
 2240TIP3   OH228134   5.152   5.394  12.422 -0.2017  0.2334 -0.3587
 2240TIP3    H128135   5.227   5.353  12.465 -1.2163 -1.1860  0.0644
 2240TIP3    H228136   5.082   5.392  12.487 -1.3185 -0.6260 -1.5734
 2241TIP3   OH228137   3.091   4.991  10.669  0.1970 -0.4668  0.0510
 2241TIP3    H128138   3.008   4.958  10.704 -0.8866 -0.5217 -2.4480
 2241TIP3    H228139   3.140   4.912  10.644  1.5940 -0.4972  2.6866
 2242TIP3   OH228140   6.727   0.227  10.518  0.4610 -0.3545 -0.3368
 2242TIP3    H128141   6.731   0.177  10.437 -2.5220  0.8651 -1.2976
 2242TIP3    H228142   6.649   0.282  10.509  0.2342  0.0374  3.2243
 2243TIP3   OH228143   3.469   2.533   9.851  0.5031  0.3146  0.4901
 2243TIP3    H128144   3.487   2.593   9.779  0.0882 -1.1254 -0.8288
 2243TIP3    H228145   3.373   2.527   9.854  0.5616 -1.7210 -0.6315
 2244TIP3   OH228146   5.077   3.360  10.504 -0.2454  0.2281 -0.0718
 2244TIP3    H128147   5.100   3.346  10.412 -1.6165 -0.5576 -0.3066
 2244TIP3    H228148   4.982   3.348  10.507 -0.5155  2.4711  1.0421
 2245TIP3   OH228149   5.728   6.166  11.504 -0.2894  0.3045 -0.3599
 2245TIP3    H128150   5.772   6.176  11.588 -1.2353  3.0267 -0.1297
 2245TIP3    H228151   5.635   6.177  11.523 -0.5611  0.4047 -1.6522
 2246TIP3   OH228152   5.391   4.282  11.027  0.1324  0.0834  0.7600
 2246TIP3    H128153   5.300   4.252  11.037  0.3076 -0.2962  1.2367
 2246TIP3    H228154   5.442   4.201  11.024  0.3962  0.2843 -0.1170
 2247TIP3   OH228155   2.966   2.253  13.490  0.3056 -0.1959  0.2762
 2247TIP3    H128156   2.979   2.293  13.405 -0.3227 -0.1999  0.1777
 2247TIP3    H228157   3.053   2.256  13.532  0.6542 -0.3833 -0.4363
 2248TIP3   OH228158   7.030   1.473  12.905 -0.5676  0.7958 -0.2154
 2248TIP3    H128159   6.948   1.501  12.946 -0.0821  0.7370  0.8291
 2248TIP3    H228160   7.093   1.472  12.978  0.1802  0.1278 -0.8712
 2249TIP3   OH228161   2.573   6.855  11.240 -0.6479 -0.0351 -0.2519
 2249TIP3    H128162   2.576   6.949  11.219 -0.8980 -0.0502 -0.3483
 2249TIP3    H228163   2.543   6.852  11.331  0.3834  0.0268  0.0982
 2250TIP3   OH228164   2.924   4.643  11.610  0.0961  0.1436 -0.4121
 2250TIP3    H128165   3.002   4.690  11.641  0.9667 -0.0079 -2.3222
 2250TIP3    H228166   2.951   4.551  11.606 -0.9788 -0.2823  1.3202
 2251TIP3   OH228167   4.125   4.195  10.399  0.5853  0.3016 -0.5953
 2251TIP3    H128168   4.212   4.185  10.361  0.5194 -0.5346 -0.5340
 2251TIP3    H228169   4.072   4.127  10.358 -0.3497  1.5603 -1.5086
 2252TIP3   OH228170   1.406   4.022  11.524 -0.1312 -0.4353  0.9683
 2252TIP3    H128171   1.378   3.945  11.574  0.2815 -2.0128 -1.1494
 2252TIP3    H228172   1.498   4.005  11.503 -0.2411  0.2986 -0.1379
 2253TIP3   OH228173   5.792   6.261   9.534  0.0558 -0.2283 -0.3073
 2253TIP3    H128174   5.816   6.223   9.449  3.7499  0.2444  0.4389
 2253TIP3    H228175   5.823   6.197   9.598  0.4765  1.0418  0.7735
 2254TIP3   OH228176   4.849   4.616   9.965 -0.1305 -0.0523 -0.0684
 2254TIP3    H128177   4.807   4.692  10.006  0.0539  0.1099 -0.1810
 2254TIP3    H228178   4.782   4.548   9.967 -0.7891  0.5445 -1.2547
 2255TIP3   OH228179   4.111   5.348  10.351  0.3049  0.0812 -0.3490
 2255TIP3    H128180   4.070   5.427  10.385  0.4762  0.5672 -1.2619
 2255TIP3    H228181   4.201   5.352  10.385 -0.2658 -0.7691  1.2964
 2256TIP3   OH228182   7.073   4.007  10.763 -0.0427 -0.2919 -0.1389
 2256TIP3    H128183   7.168   4.014  10.772 -0.0287 -0.3205 -0.2713
 2256TIP3    H228184   7.059   3.989  10.670 -0.3998  3.8273 -0.9620
 2257TIP3   OH228185   0.412   5.996  12.179  0.5677  0.1123 -0.6529
 2257TIP3    H128186   0.482   6.039  12.228  0.0449  0.0681  0.1397
 2257TIP3    H228187   0.388   5.921  12.233 -1.0857  0.9484 -0.2043
 2258TIP3   OH228188   3.974   5.222  11.985  0.1615  0.1336  0.0285
 2258TIP3    H128189   4.064   5.190  11.978  0.5149  1.1102 -0.0690
 2258TIP3    H228190   3.961   5.275  11.906 -0.2000  0.6906  0.4511
 2259TIP3   OH228191   4.006   4.885  11.288 -0.0573 -0.0414  0.9513
 2259TIP3    H128192   4.054   4.920  11.363 -2.8476  0.4238  2.5828
 2259TIP3    H228193   3.916   4.877  11.319 -0.5638 -3.4241 -1.1736
 2260TIP3   OH228194   4.467   6.381  11.425  0.2510 -0.1079  0.1652
 2260TIP3    H128195   4.418   6.310  11.467 -1.8803  1.6058  0.6915
 2260TIP3    H228196   4.480   6.351  11.335 -0.5892 -1.1947  0.3896
 2261TIP3   OH228197   3.598   2.597  10.085 -0.1935 -0.0937  0.0997
 2261TIP3    H128198   3.534   2.562  10.023  1.2003 -2.2153 -0.1958
 2261TIP3    H228199   3.660   2.646  10.031 -1.7056  2.2669  0.4255
 2262TIP3   OH228200   5.667   4.354  11.646 -0.3962 -0.0548 -0.0442
 2262TIP3    H128201   5.698   4.346  11.736 -0.6267  2.5797  0.3125
 2262TIP3    H228202   5.585   4.306  11.644 -0.6137  0.2396  1.2750
 2263TIP3   OH228203   2.799   3.748  11.177  0.0590 -0.1499  0.0273
 2263TIP3    H128204   2.836   3.702  11.253 -0.2985  1.5818  1.2805
 2263TIP3    H228205   2.710   3.769  11.203  0.4806  1.9899 -0.1625
 2264TIP3   OH228206   3.393   3.605  10.595  0.1304 -0.0210 -0.2607
 2264TIP3    H128207   3.401   3.697  10.570 -1.5229  0.1513 -0.2329
 2264TIP3    H228208   3.473   3.586  10.645  2.3193  0.3093 -3.5255
 2265TIP3   OH228209   3.344   6.441  12.853  0.2531 -0.3967 -0.1887
 2265TIP3    H128210   3.274   6.384  12.822  0.5951 -0.2074 -1.3330
 2265TIP3    H228211   3.366   6.496  12.777  1.5772 -0.3958  0.1801
 2266TIP3   OH228212   7.028   0.111  13.104  0.0364 -0.1761 -0.4274
 2266TIP3    H128213   7.110   0.066  13.126 -0.4425 -1.1629 -0.6757
 2266TIP3    H228214   7.005   0.079  13.017 -0.7954 -0.1440 -0.2223
 2267TIP3   OH228215   2.650   5.540  10.337 -0.0150  0.5345 -0.0826
 2267TIP3    H128216   2.684   5.541  10.247  0.4916  1.8032  0.1180
 2267TIP3    H228217   2.562   5.577  10.330  0.2988  1.3051  0.0530
 2268TIP3   OH228218   5.966   5.817  10.317  0.0708  0.5112 -0.0730
 2268TIP3    H128219   5.939   5.884  10.379  0.8446  0.7524  0.0001
 2268TIP3    H228220   5.884   5.775  10.291 -0.3354  0.9380  0.4976
 2269TIP3   OH228221   3.431   5.298  13.498 -0.0660  0.1626  0.0706
 2269TIP3    H128222   3.516   5.338  13.483 -0.3175  0.0851 -1.7104
 2269TIP3    H228223   3.446   5.235  13.568  1.4417 -0.1699 -0.5293
 2270TIP3   OH228224   6.932   4.273  11.044 -0.3863 -0.0112  0.2244
 2270TIP3    H128225   6.895   4.185  11.038  0.0022 -0.1356 -0.4178
 2270TIP3    H228226   6.968   4.289  10.957 -1.9140  1.4329 -0.1687
 2271TIP3   OH228227   5.352   3.907  10.357 -0.0505  0.3104  0.1081
 2271TIP3    H128228   5.366   3.926  10.265  1.8907  1.7447  0.6673
 2271TIP3    H228229   5.440   3.903  10.395 -0.8300  0.1817  1.9862
 2272TIP3   OH228230   5.707   3.964  11.871 -0.1336 -0.5696 -0.2357
 2272TIP3    H128231   5.736   3.930  11.787 -0.1509  1.0410 -0.8989
 2272TIP3    H228232   5.732   3.896  11.934  1.1389 -1.1459 -1.3458
 2273TIP3   OH228233   5.605   5.078  11.510 -0.1589  0.3585 -0.2198
 2273TIP3    H128234   5.616   5.153  11.568 -3.7821  0.2327  0.7650
 2273TIP3    H228235   5.578   5.006  11.567 -2.4456 -0.1313 -1.8342
 2274TIP3   OH228236   5.085   5.186  11.237  0.0238  0.0433 -0.7694
 2274TIP3    H128237   5.066   5.120  11.303 -1.6497  0.6126 -0.6405
 2274TIP3    H228238   5.106   5.136  11.158 -0.4710 -0.6413 -0.4752
 2275TIP3   OH228239   3.869   7.057  10.806  0.0225 -0.1046  0.0494
 2275TIP3    H128240   3.897   7.148  10.800 -1.5016  0.3018 -1.2823
 2275TIP3    H228241   3.781   7.056  10.768  0.6610 -2.4188 -1.5553
 2276TIP3   OH228242   4.642   2.829  14.471 -0.3154 -0.3120 -0.0970
 2276TIP3    H128243   4.711   2.866  14.526  0.4216 -0.0435 -1.1809
 2276TIP3    H228244   4.669   2.850  14.381  0.4897 -3.9768 -0.8120
 2277TIP3   OH228245   5.236   1.179  13.361  0.2869  0.1409 -0.0515
 2277TIP3    H128246   5.215   1.116  13.292 -0.6657 -0.6723  0.9678
 2277TIP3    H228247   5.196   1.261  13.331 -1.3338 -0.5441  0.1747
 2278TIP3   OH228248   4.740   6.383  11.477  0.3199  0.0500  0.1251
 2278TIP3    H128249   4.654   6.389  11.436  0.2760 -1.4112 -0.0243
 2278TIP3    H228250   4.789   6.321  11.422  1.3454  0.5705  0.4231
 2279TIP3   OH228251   5.227   5.487  12.025  0.7802 -0.0586  0.0994
 2279TIP3    H128252   5.133   5.499  12.015  0.8711  0.3224 -0.3307
 2279TIP3    H228253   5.257   5.458  11.938  1.1619  0.5206  0.0345
 2280TIP3   OH228254   2.249   4.915  14.388 -0.1553 -0.1137 -0.4250
 2280TIP3    H128255   2.312   4.844  14.375 -1.8136 -1.5067 -1.0834
 2280TIP3    H228256   2.285   4.967  14.460  3.1656  0.7971 -2.6830
 2281TIP3   OH228257   3.199   2.811  14.150 -0.4001  0.3144 -0.3842
 2281TIP3    H128258   3.251   2.781  14.075  0.5691 -0.7236  0.6677
 2281TIP3    H228259   3.113   2.832  14.114  0.2795  0.5246 -1.8971
 2282TIP3   OH228260   3.446   3.986  12.035  0.0770  0.0122  0.7731
 2282TIP3    H128261   3.497   4.058  11.996  0.1456 -0.2183  0.4347
 2282TIP3    H228262   3.357   4.000  12.003  0.5758 -1.4892 -1.3306
 2283TIP3   OH228263   3.539   3.879  10.004  0.0958  0.5078  0.2054
 2283TIP3    H128264   3.594   3.839  10.071  0.7215  1.3058  0.1776
 2283TIP3    H228265   3.526   3.810   9.939 -1.4282 -0.6033  1.6855
 2284TIP3   OH228266   6.030   4.225  11.691 -0.0709  0.4904 -0.2698
 2284TIP3    H128267   5.966   4.231  11.762 -1.7568 -1.0154 -1.5975
 2284TIP3    H228268   6.044   4.316  11.664 -1.6883  0.8559  0.0453
 2285TIP3   OH228269   6.262   2.605  10.576  0.2412  0.2787  0.2992
 2285TIP3    H128270   6.314   2.659  10.636 -0.2666  1.1205 -0.0022
 2285TIP3    H228271   6.175   2.646  10.578  0.0158 -0.1659 -0.4102
 2286TIP3   OH228272   0.947   3.971  14.447  0.2640  0.5695 -0.1273
 2286TIP3    H128273   0.854   3.947  14.438 -0.2194  2.8314 -1.4183
 2286TIP3    H228274   0.985   3.898  14.497 -2.1724 -0.4550  0.3365
 2287TIP3   OH228275   2.918   5.268  12.694 -0.1658 -0.5676 -0.5701
 2287TIP3    H128276   2.910   5.316  12.611 -0.3554 -0.7128 -0.6352
 2287TIP3    H228277   3.008   5.284  12.723 -0.0796 -0.5750 -0.8373
 2288TIP3   OH228278   2.483   1.665  10.370  0.2647  0.0429  0.1647
 2288TIP3    H128279   2.515   1.741  10.321  0.4475 -0.7857 -1.0145
 2288TIP3    H228280   2.442   1.703  10.448 -1.1735  1.4809 -1.2401
 2289TIP3   OH228281   4.939   3.572  10.541 -0.1387 -0.3866 -0.1200
 2289TIP3    H128282   4.975   3.620  10.466 -3.3724 -0.4343 -1.7620
 2289TIP3    H228283   4.999   3.498  10.552  1.6701  0.8823 -1.1924
 2290TIP3   OH228284   2.337   3.190  10.983  0.1263  0.5989  0.7478
 2290TIP3    H128285   2.285   3.269  10.968 -1.3256 -0.7618 -1.6927
 2290TIP3    H228286   2.380   3.206  11.067  0.5821  4.3469 -0.0963
 2291TIP3   OH228287   5.029   4.903  12.545  0.1155  0.5885 -0.1086
 2291TIP3    H128288   5.114   4.932  12.511  0.4056  1.4589  1.3277
 2291TIP3    H228289   4.964   4.949  12.492  0.5675  2.4448  0.9129
 2292TIP3   OH228290   0.111   3.567  13.682 -0.8437 -0.3004  0.5914
 2292TIP3    H128291   0.090   3.517  13.603  0.6573  0.8248 -0.5709
 2292TIP3    H228292   0.149   3.504  13.742 -2.7383 -1.3286  0.7329
 2293TIP3   OH228293   5.515   2.379  10.190  0.2734  0.4086 -0.3029
 2293TIP3    H128294   5.440   2.364  10.249 -0.6436  1.6417 -1.1186
 2293TIP3    H228295   5.580   2.421  10.245 -0.0539  0.3193  0.1603
 2294TIP3   OH228296   6.921   1.411  13.288  0.4645 -0.2282 -0.1140
 2294TIP3    H128297   6.888   1.478  13.347  0.2430  0.0309 -0.5360
 2294TIP3    H228298   7.011   1.438  13.268  0.8207 -0.7484  0.7513
 2295TIP3   OH228299   0.913   2.798  13.302  0.3485 -0.2067 -0.2634
 2295TIP3    H128300   0.966   2.854  13.360 -2.6756  1.4210  1.0323
 2295TIP3    H228301   0.846   2.762  13.359 -1.3032 -0.4358 -2.3164
 2296TIP3   OH228302   3.195   1.840  10.844 -0.1706 -0.6933 -0.8374
 2296TIP3    H128303   3.263   1.773  10.852 -0.7353 -1.2509 -0.6510
 2296TIP3    H228304   3.114   1.795  10.869 -0.3825  0.3698  0.3901
 2297TIP3   OH228305   6.370   3.838  15.172  0.0654 -0.2421  0.4931
 2297TIP3    H128306   6.393   3.876  15.087 -2.1098  0.6374  0.2734
 2297TIP3    H228307   6.380   3.743  15.160 -1.1447 -0.1901 -1.0378
 2298TIP3   OH228308   3.287   3.615  12.879 -0.5405 -0.3136 -0.6577
 2298TIP3    H128309   3.368   3.608  12.829 -0.5716  0.9199 -0.9008
 2298TIP3    H228310   3.218   3.588  12.819 -0.4538  0.0289 -0.9124
 2299TIP3   OH228311   5.772   3.019  15.277  0.4768  0.1413  0.3880
 2299TIP3    H128312   5.774   3.115  15.278 -0.5889  0.1842 -0.8362
 2299TIP3    H228313   5.798   2.995  15.188 -0.1311 -0.6838  0.4313
 2300TIP3   OH228314   1.602   0.251  12.290 -0.4522  0.0496  0.1671
 2300TIP3    H128315   1.596   0.289  12.378  1.3651 -1.6155  1.0442
 2300TIP3    H228316   1.608   0.156  12.305 -0.2112 -0.2665 -1.7657
 2301TIP3   OH228317   1.220   5.566  11.932  0.7459  0.0525 -0.3709
 2301TIP3    H128318   1.295   5.532  11.884  1.1483 -0.5349  0.6615
 2301TIP3    H228319   1.246   5.655  11.957  1.2788 -0.2953  0.3461
 2302TIP3   OH228320   4.330   6.366  11.978 -0.0421  1.0162 -0.3184
 2302TIP3    H128321   4.388   6.400  11.910 -1.2303 -0.1812 -1.9697
 2302TIP3    H228322   4.358   6.411  12.058  0.5968  3.3503 -1.8016
 2303TIP3   OH228323   5.008   4.402  12.023 -0.1370  0.5407 -0.3765
 2303TIP3    H128324   5.075   4.337  12.000  1.1284  1.3752  0.8714
 2303TIP3    H228325   4.937   4.350  12.061 -1.7342 -0.7397 -4.7145
 2304TIP3   OH228326   5.379   6.630  10.277  0.0869 -0.3273 -0.0595
 2304TIP3    H128327   5.328   6.550  10.295  0.1384 -0.6043 -1.0780
 2304TIP3    H228328   5.413   6.616  10.188 -0.8119  1.3021 -0.6770
 2305TIP3   OH228329   6.882   3.954  11.298  0.8298 -0.1951  0.5767
 2305TIP3    H128330   6.949   3.887  11.283 -0.0551 -0.9182 -0.2162
 2305TIP3    H228331   6.900   4.021  11.232  1.2360 -0.0357  0.8528
 2306TIP3   OH228332   5.101   5.080  10.200 -0.5594  0.0368 -0.1251
 2306TIP3    H128333   5.019   5.031  10.204 -1.0678  0.8495 -0.5070
 2306TIP3    H228334   5.076   5.167  10.168  0.5229  0.1182 -0.7870
 2307TIP3   OH228335   0.633   4.685  12.907  0.6663  0.3886 -0.2338
 2307TIP3    H128336   0.699   4.751  12.886 -0.2993  1.8692  1.2355
 2307TIP3    H228337   0.575   4.728  12.970 -1.3245 -1.0972 -0.9808
 2308TIP3   OH228338   4.097   4.483  10.490  0.2119 -0.2176 -0.6851
 2308TIP3    H128339   4.095   4.428  10.569  2.1939  0.6052 -0.0526
 2308TIP3    H228340   4.127   4.424  10.420  1.4489 -0.1833 -0.1908
 2309TIP3   OH228341   1.702   3.573  11.568 -0.0428 -0.2880  0.2179
 2309TIP3    H128342   1.733   3.515  11.638  1.1814 -0.4776 -0.4708
 2309TIP3    H228343   1.607   3.563  11.569  0.1317 -2.2298  0.2009
 2310TIP3   OH228344   6.787   4.330  11.275  0.1323 -0.1690  0.2091
 2310TIP3    H128345   6.830   4.304  11.193  0.9808  1.2778  0.1808
 2310TIP3    H228346   6.859   4.356  11.332 -0.6919  2.4176  0.1267
 2311TIP3   OH228347   5.938   4.714   9.858 -0.2252  0.3611  0.2614
 2311TIP3    H128348   5.864   4.716   9.797  0.6665 -1.1151 -0.9118
 2311TIP3    H228349   5.934   4.627   9.897  1.1895  0.0982 -0.1750
 2312TIP3   OH228350   4.660   2.191  10.501 -0.1625  0.3689 -0.0139
 2312TIP3    H128351   4.754   2.176  10.507 -0.0794  1.1741  0.7732
 2312TIP3    H228352   4.630   2.195  10.591 -0.6709  1.7680 -0.2344
 2313TIP3   OH228353   4.950   3.364  10.832 -0.0292  0.2542 -0.4974
 2313TIP3    H128354   4.868   3.377  10.785 -1.4791  1.0374  2.1305
 2313TIP3    H228355   4.930   3.298  10.898  1.9262 -0.7558 -0.8780
 2314TIP3   OH228356   3.274   2.795  10.662  0.0988  0.6690  0.3442
 2314TIP3    H128357   3.344   2.767  10.603 -0.2259  0.1361  0.2020
 2314TIP3    H228358   3.263   2.888  10.644  0.2877  0.6003 -0.1432
 2315TIP3   OH228359   3.830   3.703  13.185 -0.7309  0.3188  0.2567
 2315TIP3    H128360   3.792   3.788  13.209  0.1784  0.4732  1.1784
 2315TIP3    H228361   3.755   3.643  13.182 -1.4704  1.3068 -1.1103
 2316TIP3   OH228362   4.340   0.805  12.743 -0.1387 -0.4835  0.2334
 2316TIP3    H128363   4.349   0.723  12.791 -1.5654 -2.5698 -2.9313
 2316TIP3    H228364   4.247   0.827  12.749 -0.3653 -0.8543 -1.6725
 2317TIP3   OH228365   4.927   2.990  11.250  0.9296  0.1595  0.2091
 2317TIP3    H128366   4.914   2.920  11.314 -1.1080  0.2077 -0.1351
 2317TIP3    H228367   4.994   2.955  11.190 -0.0674 -1.5060  0.0308
 2318TIP3   OH228368   3.451   4.397  10.828  0.0180 -0.4818  0.1797
 2318TIP3    H128369   3.360   4.427  10.825 -0.3397 -1.6459 -0.9273
 2318TIP3    H228370   3.501   4.465  10.784 -0.5446 -0.6439 -0.7108
 2319TIP3   OH228371   6.014   2.553   0.162  0.1814 -0.3357 -0.7049
 2319TIP3    H128372   6.106   2.571   0.181 -0.3778  0.2427  1.5296
 2319TIP3    H228373   6.008   2.457   0.163  0.5555 -0.3502  0.0922
 2320TIP3   OH228374   3.974   3.734  12.232 -0.0810  0.0558 -0.0665
 2320TIP3    H128375   3.933   3.755  12.149  1.0311 -0.4392 -0.7531
 2320TIP3    H228376   3.928   3.789  12.296  0.0988  1.5905 -1.2214
 2321TIP3   OH228377   0.054   5.493  13.826 -0.3388 -0.7881 -0.2639
 2321TIP3    H128378   0.144   5.465  13.811 -0.0307  0.4054 -0.6947
 2321TIP3    H228379   0.050   5.582  13.790 -0.6547  0.6798  3.1998
 2322TIP3   OH228380   4.659   4.844  11.460 -0.1185  0.0370 -0.0114
 2322TIP3    H128381   4.567   4.864  11.477  0.9697  3.0363  3.0742
 2322TIP3    H228382   4.678   4.887  11.377 -1.7657 -1.6228 -1.2779
 2323TIP3   OH228383   4.692   3.726   9.909  0.3493  0.1576 -0.3282
 2323TIP3    H128384   4.642   3.657   9.951  0.2298 -0.5164 -1.5606
 2323TIP3    H228385   4.663   3.806   9.953  0.1500 -0.5112  0.7841
 2324TIP3   OH228386   2.227   6.319  13.174 -0.0712 -0.1870 -0.0992
 2324TIP3    H128387   2.320   6.339  13.160 -0.7168  2.4599 -0.6966
 2324TIP3    H228388   2.217   6.317  13.269 -0.1953  3.4796  0.0020
 2325TIP3   OH228389   6.047   3.746  12.156  0.0455 -0.5676  0.0929
 2325TIP3    H128390   6.068   3.739  12.249  0.5888 -0.2806 -0.0104
 2325TIP3    H228391   6.102   3.817  12.124 -2.3374  1.3944  0.1893
 2326TIP3   OH228392   4.451   5.397  11.782 -0.3114  0.1887 -0.1149
 2326TIP3    H128393   4.446   5.482  11.824 -1.8924  0.1158 -0.1316
 2326TIP3    H228394   4.506   5.412  11.705  0.2686  0.9449  0.4342
 2327TIP3   OH228395   6.565   5.261  14.648  0.0527 -0.1981 -0.5029
 2327TIP3    H128396   6.576   5.355  14.633 -2.5503  0.2800  0.3758
 2327TIP3    H228397   6.586   5.249  14.740 -0.3804 -0.3605 -0.4275
 2328TIP3   OH228398   2.458   6.261  11.389 -0.3296  0.1449  0.2665
 2328TIP3    H128399   2.371   6.222  11.389  0.3222 -1.3340  0.4099
 2328TIP3    H228400   2.518   6.188  11.404  0.9461  1.1353  0.1491
 2329TIP3   OH228401   2.854   4.834  10.278  0.5656 -0.7167 -0.5285
 2329TIP3    H128402   2.794   4.888  10.226 -2.0221 -0.6235  2.3691
 2329TIP3    H228403   2.934   4.886  10.285 -0.7793  1.3955 -0.3971
 2330TIP3   OH228404   5.192   3.988  10.913  0.1640  0.1867  0.3628
 2330TIP3    H128405   5.132   4.054  10.949  1.4772  0.8800  1.3245
 2330TIP3    H228406   5.209   3.929  10.985 -1.2673 -1.4552 -0.5900
 2331TIP3   OH228407   5.803   0.204  11.114  0.2308 -0.5658 -0.3816
 2331TIP3    H128408   5.768   0.131  11.064 -1.2929 -0.3113  0.2905
 2331TIP3    H228409   5.727   0.256  11.139  1.1757  0.5811  0.2118
 2332TIP3   OH228410   5.608   6.077  13.622  0.5101  0.0314 -0.5674
 2332TIP3    H128411   5.591   6.026  13.701  0.2603  0.0429 -0.6136
 2332TIP3    H228412   5.641   6.013  13.559 -1.6362 -0.4449 -1.2531
 2333TIP3   OH228413   1.811   5.925  12.167  0.0989  0.1648 -0.1234
 2333TIP3    H128414   1.775   5.969  12.244 -0.7108 -0.8040  0.0597
 2333TIP3    H228415   1.857   5.849  12.201 -0.1509 -0.1980 -0.5892
 2334TIP3   OH228416   3.524   3.983  10.329 -0.5399  0.1220 -0.2203
 2334TIP3    H128417   3.580   3.917  10.287 -1.6100 -0.5020 -0.6846
 2334TIP3    H228418   3.501   3.945  10.413  0.7009  0.9042  0.5038
 2335TIP3   OH228419   3.636   2.342   9.828  0.2621 -0.3100 -0.0080
 2335TIP3    H128420   3.715   2.391   9.807 -0.4852  1.3765  0.9706
 2335TIP3    H228421   3.567   2.408   9.829 -1.1070 -1.7153 -0.5410
 2336TIP3   OH228422   6.733   5.914  11.932  0.0084 -0.3728  0.0338
 2336TIP3    H128423   6.802   5.878  11.988  0.3961 -0.4515 -0.4809
 2336TIP3    H228424   6.742   6.009  11.942 -1.3932 -0.4135  1.8414
 2337TIP3   OH228425   4.742   5.454  10.605 -0.0328  0.2436 -0.4202
 2337TIP3    H128426   4.828   5.422  10.579  0.9276  1.6405  1.0249
 2337TIP3    H228427   4.683   5.421  10.536  1.7161 -0.2076 -1.7331
 2338TIP3   OH228428   5.257   2.608  15.587  0.2633  0.3011  0.0709
 2338TIP3    H128429   5.189   2.555  15.628  0.8275 -0.8004 -0.3844
 2338TIP3    H228430   5.338   2.579  15.629  0.6343  0.4716 -0.5233
 2339TIP3   OH228431   2.996   3.816  11.007 -0.6913 -0.2381 -0.0653
 2339TIP3    H128432   2.960   3.813  10.919 -0.0176 -0.0621 -0.3491
 2339TIP3    H228433   2.921   3.797  11.064 -0.7803 -2.0173 -0.7378
 2340TIP3   OH228434   4.426   0.864  11.689  0.2011  0.1404 -0.1446
 2340TIP3    H128435   4.345   0.887  11.734  1.6289  1.8899  1.5520
 2340TIP3    H228436   4.495   0.908  11.737  1.7197  2.9967 -4.6311
 2341TIP3   OH228437   4.621   0.686  13.136  0.4255 -0.2466 -0.0455
 2341TIP3    H128438   4.687   0.647  13.194 -0.8404  0.9751  2.2986
 2341TIP3    H228439   4.667   0.754  13.089  1.1726 -0.3569  0.5240
 2342TIP3   OH228440   5.984   4.644  10.647  0.1405 -0.2943 -0.6523
 2342TIP3    H128441   6.071   4.605  10.652  0.9371  1.6970  2.0259
 2342TIP3    H228442   6.000   4.734  10.619 -1.1985 -0.2274 -1.2334
 2343TIP3   OH228443   0.781   5.287  12.364  0.4270 -0.0099  0.3676
 2343TIP3    H128444   0.866   5.251  12.388  0.1690  0.4531  2.0256
 2343TIP3    H228445   0.728   5.278  12.443 -0.9113  0.1694 -0.4921
 2344TIP3   OH228446   5.274   6.383   9.700 -0.1175  0.0344  0.0475
 2344TIP3    H128447   5.241   6.315   9.641 -0.6168  1.4550 -1.3685
 2344TIP3    H228448   5.369   6.382   9.687 -0.1331 -0.3390 -0.0404
 2345TIP3   OH228449   3.511   2.688  11.508 -0.0910 -0.2734  0.1949
 2345TIP3    H128450   3.534   2.721  11.422  0.4077 -0.4484  0.2621
 2345TIP3    H228451   3.594   2.679  11.554 -0.1051 -2.6273 -0.1813
 2346TIP3   OH228452   2.783   4.850  10.717 -0.4833 -0.1389 -0.4901
 2346TIP3    H128453   2.846   4.838  10.788 -0.8699  2.6874  0.3766
 2346TIP3    H228454   2.816   4.794  10.646  2.2597  0.2627  0.4253
 2347TIP3   OH228455   3.288   2.876  11.961 -0.3721  0.2750  0.9504
 2347TIP3    H128456   3.242   2.957  11.939  1.2294  0.8467 -0.4062
 2347TIP3    H228457   3.218   2.811  11.969 -1.4064  1.0654 -1.2910
 2348TIP3   OH228458   4.168   2.428  11.668  0.4269 -0.4114 -0.1642
 2348TIP3    H128459   4.243   2.403  11.613  0.8741 -0.4608  0.4623
 2348TIP3    H228460   4.146   2.348  11.717  0.3624 -0.2234  0.1134
 2349TIP3   OH228461   6.101   7.267  12.619 -0.0554 -0.1419  0.3781
 2349TIP3    H128462   6.116   7.361  12.632  3.8044 -0.5861 -0.0723
 2349TIP3    H228463   6.055   7.261  12.536  1.7915  1.3111 -0.7898
 2350TIP3   OH228464   6.782   4.840  12.194  0.1705  0.0750 -0.0754
 2350TIP3    H128465   6.776   4.745  12.181 -1.1028  0.0148  0.7649
 2350TIP3    H228466   6.856   4.852  12.253 -0.0977 -0.4687  0.3748
 2351TIP3   OH228467   7.223   6.065  12.482 -0.2690  0.5302  0.1590
 2351TIP3    H128468   7.170   6.145  12.485 -0.0486  0.6961 -0.2969
 2351TIP3    H228469   7.313   6.097  12.492 -0.1051  0.4249 -0.9412
 2352TIP3   OH228470   6.988   5.221  12.425  0.0103 -0.5003  0.2454
 2352TIP3    H128471   7.046   5.145  12.435 -0.0349 -0.5541  0.1069
 2352TIP3    H228472   7.023   5.286  12.486  0.7126 -0.2331 -0.4334
 2353TIP3   OH228473   4.273   4.724  11.214  0.0013  0.6563 -0.2670
 2353TIP3    H128474   4.181   4.749  11.223 -0.4249 -0.7325 -0.5473
 2353TIP3    H228475   4.270   4.637  11.174  1.3647 -0.1851  1.3891
 2354TIP3   OH228476   7.101   5.608  12.396 -0.4253  0.4938  0.3172
 2354TIP3    H128477   7.147   5.526  12.376 -0.0871  0.5606  0.8152
 2354TIP3    H228478   7.076   5.643  12.310 -1.8389 -0.8493  0.1522
 2355TIP3   OH228479   6.278   6.614   9.856 -0.3547  0.0960  0.2024
 2355TIP3    H128480   6.306   6.698   9.820 -0.5454  0.8656  1.8067
 2355TIP3    H228481   6.352   6.585   9.910 -0.4471 -0.5723 -0.0289
 2356TIP3   OH228482   5.902   4.063  11.026 -0.1658 -0.0687  0.1601
 2356TIP3    H128483   5.884   4.124  10.955 -1.1488 -0.2306  0.2645
 2356TIP3    H228484   5.846   4.092  11.098 -0.6086 -1.0525  0.2282
 2357TIP3   OH228485   6.165   2.442  12.019 -0.1230 -0.0089  0.0788
 2357TIP3    H128486   6.189   2.375  12.083  0.9726 -0.0497 -0.3671
 2357TIP3    H228487   6.210   2.415  11.939 -1.7354 -0.1499 -0.8207
 2358TIP3   OH228488   2.760   6.349  11.514 -0.1100 -0.3732  0.0133
 2358TIP3    H128489   2.757   6.331  11.420 -2.1099 -1.8192  0.3442
 2358TIP3    H228490   2.736   6.267  11.556 -0.2733  0.5409  1.7716
 2359TIP3   OH228491   6.358   5.181  11.852  0.4242 -0.6397 -0.1438
 2359TIP3    H128492   6.361   5.273  11.879  0.1041 -0.5843 -0.2995
 2359TIP3    H228493   6.291   5.141  11.908  0.6328 -0.8017 -0.0083
 2360TIP3   OH228494   5.445   3.634  13.576 -0.4566  0.1151 -0.2992
 2360TIP3    H128495   5.431   3.541  13.590  2.2191 -0.0839  1.4172
 2360TIP3    H228496   5.532   3.640  13.535 -0.4585  1.8596 -0.1016
 2361TIP3   OH228497   5.973   3.652   9.589 -0.1215  0.0390  0.6007
 2361TIP3    H128498   5.972   3.557   9.588  0.8546  0.0305  0.1681
 2361TIP3    H228499   5.966   3.676   9.681  2.3603 -0.4879  0.9489
 2362TIP3   OH228500   6.718   5.511  12.780  0.0145  0.1276  0.1886
 2362TIP3    H128501   6.697   5.604  12.781 -2.0715 -0.3144 -0.2920
 2362TIP3    H228502   6.784   5.501  12.849 -0.8000  1.7274  1.2395
 2363TIP3   OH228503   6.936   1.301  12.436 -0.3470 -0.1449 -0.4255
 2363TIP3    H128504   6.978   1.293  12.521 -1.3026  0.9402  0.1647
 2363TIP3    H228505   7.006   1.329  12.377  0.4805 -1.6443 -0.1655
 2364TIP3   OH228506   5.972   4.136  10.272  0.3221  0.1771 -0.2210
 2364TIP3    H128507   5.902   4.169  10.328 -0.5075 -0.2768 -0.9832
 2364TIP3    H228508   5.956   4.176  10.187  0.9871  0.0709 -0.4008
 2365TIP3   OH228509   6.327   5.537  13.947 -0.4518  0.0611 -0.0909
 2365TIP3    H128510   6.251   5.495  13.907 -0.1565 -0.9414  0.3792
 2365TIP3    H228511   6.295   5.623  13.974 -1.2902 -0.1680 -0.3296
 2366TIP3   OH228512   4.750   1.133  12.891  0.3173  0.1658 -0.2989
 2366TIP3    H128513   4.740   1.224  12.863 -0.3633  0.5638  1.1598
 2366TIP3    H228514   4.675   1.087  12.853  0.0293  0.4561 -0.0807
 2367TIP3   OH228515   3.107   6.503  13.951  0.4159  0.0819  0.5830
 2367TIP3    H128516   3.147   6.588  13.972 -0.4235  1.5516 -3.2311
 2367TIP3    H228517   3.024   6.527  13.908 -0.2401 -2.7118  0.2393
 2368TIP3   OH228518   1.577   5.532  12.062 -0.6432 -0.1780  0.2826
 2368TIP3    H128519   1.660   5.485  12.051 -0.8177  0.0722 -2.4564
 2368TIP3    H228520   1.521   5.470  12.109  0.5698 -0.9656  0.7195
 2369TIP3   OH228521   4.165   3.600  13.441 -0.0991 -0.6891  0.1889
 2369TIP3    H128522   4.165   3.680  13.388  0.2946 -0.3269  0.7317
 2369TIP3    H228523   4.081   3.603  13.487 -0.8415 -1.4612 -1.0839
 2370TIP3   OH228524   5.309   4.604   9.867 -0.9701  0.4416  0.1327
 2370TIP3    H128525   5.267   4.552   9.798  1.0054 -1.6975  0.5002
 2370TIP3    H228526   5.383   4.647   9.823 -0.1689 -0.3105  0.7279
 2371TIP3   OH228527   6.466   1.322  11.028  0.1981  0.6208  0.0193
 2371TIP3    H128528   6.502   1.268  11.099  1.0938  1.3914  0.1609
 2371TIP3    H228529   6.506   1.287  10.948  0.6045  0.9226  0.0882
 2372TIP3   OH228530   6.283   3.798   9.921 -0.1022  0.4512  0.4310
 2372TIP3    H128531   6.310   3.717   9.966 -0.0670  0.4590  0.4243
 2372TIP3    H228532   6.336   3.799   9.841 -1.2053 -0.2935 -0.3232
 2373TIP3   OH228533   5.442   3.069  11.654  0.1382  0.3092 -0.7881
 2373TIP3    H128534   5.486   3.154  11.658 -0.0380  0.4010 -0.7820
 2373TIP3    H228535   5.506   3.007  11.687 -0.0773  0.5753  0.1528
 2374TIP3   OH228536   6.995   3.902  10.530 -0.0354  0.2852  0.0882
 2374TIP3    H128537   7.011   3.808  10.527 -0.4830  0.2482 -1.4532
 2374TIP3    H228538   6.906   3.910  10.566  1.2484  0.2801  3.4308
 2375TIP3   OH228539   0.288   3.053  10.797  0.2941  0.4553 -0.6598
 2375TIP3    H128540   0.227   3.071  10.868 -0.5886 -0.9064 -1.0617
 2375TIP3    H228541   0.321   3.140  10.771 -1.2401  1.1710 -0.2578
 2376TIP3   OH228542   6.064   3.910   9.654 -0.0524  0.2729 -0.1840
 2376TIP3    H128543   6.063   3.985   9.595 -0.3006  0.2571 -0.2001
 2376TIP3    H228544   6.012   3.843   9.609 -0.5183  0.3780  0.2081
 2377TIP3   OH228545   6.870   6.181  11.789 -0.2332 -0.2618 -0.2808
 2377TIP3    H128546   6.857   6.119  11.717 -0.2394 -0.9945  0.3575
 2377TIP3    H228547   6.863   6.267  11.747  0.0357 -0.6856 -1.2115
 2378TIP3   OH228548   0.654   2.946  12.425 -0.4487 -0.0043  0.4784
 2378TIP3    H128549   0.699   3.016  12.472 -1.1360  0.8338 -0.0994
 2378TIP3    H228550   0.612   2.990  12.351 -0.0027 -1.1907 -0.4934
 2379TIP3   OH228551   6.681   4.535  11.109 -0.1838 -0.1607 -0.6813
 2379TIP3    H128552   6.721   4.461  11.153 -2.1650 -1.3203 -0.7517
 2379TIP3    H228553   6.662   4.504  11.020  0.2438  0.8880 -1.1561
 2380TIP3   OH228554   4.359   1.164  14.528 -0.0550 -0.0490 -0.0575
 2380TIP3    H128555   4.270   1.159  14.493 -0.4699  0.4135  0.9059
 2380TIP3    H228556   4.387   1.254  14.512 -0.5625  0.3995  1.5267
 2381TIP3   OH228557   5.466   2.877  11.450 -0.1340 -0.0751  0.3944
 2381TIP3    H128558   5.446   2.952  11.506 -1.7299 -0.1156 -0.1121
 2381TIP3    H228559   5.382   2.834  11.436  0.6473 -1.5233  0.0350
 2382TIP3   OH228560   0.787   5.386  10.019 -0.4316  0.0136  0.0483
 2382TIP3    H128561   0.724   5.457  10.027 -0.8191 -0.0003 -2.4635
 2382TIP3    H228562   0.733   5.307  10.015 -0.1000 -0.2549  0.7444
 2383TIP3   OH228563   2.092   4.544  11.732 -0.4974 -0.0441 -0.6280
 2383TIP3    H128564   2.141   4.493  11.668 -0.0315  0.9035 -1.0401
 2383TIP3    H228565   2.154   4.611  11.762  0.0377 -1.8503  2.5091
 2384TIP3   OH228566   6.974   5.063  11.092 -1.0081 -0.1860  0.1309
 2384TIP3    H128567   6.998   5.155  11.098  1.1897 -0.5513 -2.3195
 2384TIP3    H228568   6.878   5.063  11.089 -1.1581  1.7790  3.0733
 2385TIP3   OH228569   6.369   5.659   9.894 -0.0045  0.2547  0.1312
 2385TIP3    H128570   6.432   5.627   9.959 -1.5218 -0.6361  1.1952
 2385TIP3    H228571   6.292   5.604   9.906 -1.2625  1.8100 -0.6391
 2386TIP3   OH228572   7.047   5.107   9.586  0.0352 -0.4672  0.0409
 2386TIP3    H128573   7.003   5.113   9.671  0.4520  1.2055  0.1618
 2386TIP3    H228574   7.138   5.088   9.608 -0.1326 -1.4136 -0.0926
 2387TIP3   OH228575   5.788   5.068  12.733 -1.1284 -0.5248  0.3142
 2387TIP3    H128576   5.784   5.159  12.705 -0.1406 -0.5924 -0.0527
 2387TIP3    H228577   5.880   5.052  12.751 -1.2664 -1.5196  0.1804
 2388TIP3   OH228578   5.078   5.467  11.236  0.4192 -0.7016 -0.3415
 2388TIP3    H128579   5.052   5.375  11.240 -0.5961 -0.5014 -1.9899
 2388TIP3    H228580   5.121   5.476  11.151  0.6461  0.3174 -0.1256
 2389TIP3   OH228581   1.218   0.225  11.578 -0.2854 -0.3173 -0.2066
 2389TIP3    H128582   1.172   0.308  11.589  0.1484  0.1504 -1.8599
 2389TIP3    H228583   1.285   0.226  11.646  0.2433  1.0627 -0.7263
 2390TIP3   OH228584   5.378   5.106  11.230 -0.0218 -0.0270 -0.0876
 2390TIP3    H128585   5.373   5.097  11.325  1.4746  2.9441  0.3208
 2390TIP3    H228586   5.302   5.160  11.207  0.4486  0.5164 -0.3818
 2391TIP3   OH228587   4.452   5.023  10.564  0.2583 -0.2368 -0.4930
 2391TIP3    H128588   4.500   5.084  10.508  0.1571 -0.8698 -1.2827
 2391TIP3    H228589   4.512   5.005  10.636  0.6518  0.0725 -0.7390
 2392TIP3   OH228590   4.320   1.081  10.971 -0.5667  0.2370  0.1799
 2392TIP3    H128591   4.335   1.087  10.877 -1.2456 -0.2173  0.0461
 2392TIP3    H228592   4.226   1.063  10.980 -0.5300  0.4065  0.9441
 2393TIP3   OH228593   4.890   6.407  10.880 -0.4837  0.4712  0.4308
 2393TIP3    H128594   4.883   6.313  10.892 -0.7017  0.3100 -0.8539
 2393TIP3    H228595   4.822   6.444  10.938 -0.4278 -0.1565  0.8999
 2394TIP3   OH228596   0.562   5.528  11.611 -0.1672  0.1428  0.5643
 2394TIP3    H128597   0.571   5.549  11.704 -0.0923  2.0512  0.1518
 2394TIP3    H228598   0.649   5.499  11.584 -0.2640 -0.7069  1.1567
 2395TIP3   OH228599   3.423   6.342   9.959  0.1873  0.1561  0.4456
 2395TIP3    H128600   3.334   6.369   9.935 -0.4343 -1.0225  1.4013
 2395TIP3    H228601   3.457   6.416  10.010 -0.1021  0.7528 -0.2042
 2396TIP3   OH228602   6.078   5.804   9.990 -0.2895 -0.0757 -0.7957
 2396TIP3    H128603   6.097   5.710   9.999  0.5496  0.0476 -1.2728
 2396TIP3    H228604   6.047   5.813   9.900  1.1176  0.3482 -1.2552
 2397TIP3   OH228605   2.853   5.625  10.908  0.3381 -0.0260 -0.1042
 2397TIP3    H128606   2.816   5.540  10.932 -1.3426  0.0623 -2.2299
 2397TIP3    H228607   2.902   5.608  10.827 -1.2621  1.2953 -1.3730
 2398TIP3   OH228608   5.198   4.507  13.336 -0.6657 -0.4527 -0.1934
 2398TIP3    H128609   5.188   4.426  13.385 -3.2797 -1.5467 -2.4458
 2398TIP3    H228610   5.251   4.483  13.259  0.4723  0.4926  0.2692
 2399TIP3   OH228611   3.592   5.832  13.142  0.3327 -0.1169  0.4776
 2399TIP3    H128612   3.635   5.778  13.209 -0.5032  0.1601  1.2495
 2399TIP3    H228613   3.555   5.769  13.081 -0.4992 -0.4198  1.2869
 2400TIP3   OH228614   0.592   3.008  12.771 -0.2507 -0.0918 -0.1748
 2400TIP3    H128615   0.669   2.990  12.825 -1.7611 -0.2092  1.9994
 2400TIP3    H228616   0.609   2.962  12.690  0.4021 -3.1025  1.6065
 2401TIP3   OH228617   0.564   5.234  12.975 -0.5680  0.2686 -0.8400
 2401TIP3    H128618   0.590   5.221  12.884 -1.5035  1.0119 -1.2268
 2401TIP3    H228619   0.514   5.156  12.997  0.5143 -0.3803 -0.6300
 2402TIP3   OH228620   5.294   4.033  11.521  0.3515 -0.4973  0.6121
 2402TIP3    H128621   5.372   3.981  11.502  1.5370  1.4662  0.0134
 2402TIP3    H228622   5.225   3.993  11.467  1.4322 -0.9196 -0.4797
 2403TIP3   OH228623   7.046   4.390  11.579 -0.1307 -0.3780 -0.4382
 2403TIP3    H128624   6.968   4.398  11.634  0.4106 -1.2405  0.4821
 2403TIP3    H228625   7.109   4.452  11.618 -1.2964  2.4704 -2.9153
 2404TIP3   OH228626   0.523   2.321  12.343 -0.1735  0.2617  0.0000
 2404TIP3    H128627   0.511   2.257  12.413 -0.8192  0.2981 -0.0727
 2404TIP3    H228628   0.592   2.284  12.287  0.3063  0.2132  0.6275
 2405TIP3   OH228629   5.487   2.686  11.057  0.1810  0.2824 -0.0532
 2405TIP3    H128630   5.399   2.718  11.077  1.2422  1.9036  2.2125
 2405TIP3    H228631   5.514   2.737  10.981  0.1899  1.7918  0.9259
 2406TIP3   OH228632   6.475   3.197  10.495 -0.2782  0.2109 -0.0595
 2406TIP3    H128633   6.487   3.223  10.586 -2.4492 -0.7389  0.5234
 2406TIP3    H228634   6.418   3.120  10.498 -0.4668  0.2160 -2.2197
 2407TIP3   OH228635   6.590   3.163  14.557 -0.0333 -0.5061  0.0837
 2407TIP3    H128636   6.673   3.170  14.511  0.4182 -1.2760  0.7780
 2407TIP3    H228637   6.524   3.164  14.487  0.5119  0.7366 -0.4286
 2408TIP3   OH228638   6.834   2.659  12.043 -0.4603 -0.3353 -0.1716
 2408TIP3    H128639   6.830   2.594  11.973 -0.2085 -0.4126 -0.1146
 2408TIP3    H228640   6.881   2.733  12.005 -0.3628 -0.3594 -0.0987
 2409TIP3   OH228641   5.962   5.772  12.822  0.5017  0.2502 -0.3489
 2409TIP3    H128642   5.959   5.731  12.908 -1.2070  0.7219 -0.1519
 2409TIP3    H228643   5.988   5.863  12.839  0.6338  0.2173 -0.3787
 2410TIP3   OH228644   4.135   2.529  11.216 -0.4626 -0.3500  0.0861
 2410TIP3    H128645   4.203   2.596  11.223 -1.3723  0.5647  0.2932
 2410TIP3    H228646   4.146   2.492  11.128  0.2202 -0.1227  0.0776
 2411TIP3   OH228647   0.424   4.719  11.878 -0.0793 -0.2967  0.0384
 2411TIP3    H128648   0.331   4.701  11.895  0.4612 -1.3307  2.0280
 2411TIP3    H228649   0.431   4.716  11.782 -2.1151 -0.0448 -0.1520
 2412TIP3   OH228650   3.987   4.912  11.021 -0.1914  0.1511  0.3989
 2412TIP3    H128651   3.998   4.891  11.113  0.1451 -0.1699  0.2900
 2412TIP3    H228652   3.978   5.007  11.018  0.6721  0.2381  0.6747
 2413TIP3   OH228653   5.056   6.209  11.411  0.6129 -0.1767 -0.5839
 2413TIP3    H128654   5.025   6.245  11.494 -1.5032 -0.0573 -1.4071
 2413TIP3    H228655   5.151   6.214  11.417  0.4502  1.0741  1.2849
 2414TIP3   OH228656   3.690   3.544  10.425 -0.0615  0.0205  0.0995
 2414TIP3    H128657   3.693   3.598  10.504  3.8430 -1.1898  0.9338
 2414TIP3    H228658   3.619   3.481  10.440 -0.5235  0.9471  1.8579
 2415TIP3   OH228659   5.456   5.896  10.726  0.1460  0.3228  0.3156
 2415TIP3    H128660   5.412   5.969  10.768 -3.3286 -2.2718  1.3735
 2415TIP3    H228661   5.519   5.865  10.791 -0.9919  0.0636  1.3052
 2416TIP3   OH228662   6.400   1.301  10.440  0.5149  0.2355  0.1948
 2416TIP3    H128663   6.446   1.335  10.363 -0.8528 -0.4979 -0.9814
 2416TIP3    H228664   6.466   1.299  10.509  2.1446 -0.4547 -1.3517
 2417TIP3   OH228665   3.812   2.574  11.549  0.3858 -0.1997  0.6733
 2417TIP3    H128666   3.875   2.527  11.494  0.2243  2.1876 -1.6101
 2417TIP3    H228667   3.788   2.511  11.617  3.5989 -1.8885  0.3363
 2418TIP3   OH228668   6.904   4.086  11.567  0.2885  0.2290 -0.4480
 2418TIP3    H128669   6.897   4.033  11.487 -2.1596  1.3411 -1.0507
 2418TIP3    H228670   6.864   4.170  11.543 -0.2244  0.6798  1.8537
 2419TIP3   OH228671   6.282   0.775  12.176  0.2755  0.1098 -1.0162
 2419TIP3    H128672   6.232   0.753  12.255  2.8807 -1.3604  0.2903
 2419TIP3    H228673   6.327   0.857  12.199  1.3067 -0.5030 -0.8349
 2420TIP3   OH228674   6.612   3.799   9.910 -0.3699  0.1508  0.3157
 2420TIP3    H128675   6.567   3.802   9.826  0.1090 -2.4225 -0.0753
 2420TIP3    H228676   6.591   3.713   9.945  0.2593  0.8149  2.3835
 2421TIP3   OH228677   6.976   6.267  14.000 -0.1046  0.1007 -0.4562
 2421TIP3    H128678   6.968   6.186  13.950 -1.0176 -0.3152  0.3363
 2421TIP3    H228679   6.940   6.335  13.943  0.3273 -0.1101 -0.9800
 2422TIP3   OH228680   5.557   5.617  12.341  0.0859  0.4459  0.2481
 2422TIP3    H128681   5.513   5.701  12.345  1.1351  1.0555 -0.6068
 2422TIP3    H228682   5.515   5.572  12.267 -1.8573 -0.6165  1.9481
 2423TIP3   OH228683   1.811   0.539  13.561 -0.3164 -0.1780 -0.5105
 2423TIP3    H128684   1.871   0.554  13.487 -1.4238  0.6843 -1.2464
 2423TIP3    H228685   1.725   0.528  13.520 -0.9974  0.6529  0.6744
 2424TIP3   OH228686   6.837   4.556  10.704 -0.4309 -0.0607  0.7552
 2424TIP3    H128687   6.820   4.528  10.614 -2.9907 -0.2333  1.2534
 2424TIP3    H228688   6.873   4.477  10.746  1.3082  0.1788 -0.2185
 2425TIP3   OH228689   6.340   5.986  11.841  0.3661  0.5407 -0.1554
 2425TIP3    H128690   6.350   5.958  11.932  1.3004  0.6417 -0.2239
 2425TIP3    H228691   6.405   6.055  11.830  0.1966  0.5844 -0.8763
 2426TIP3   OH228692   7.040   2.478  12.128 -0.3712  0.3068 -0.0710
 2426TIP3    H128693   6.953   2.514  12.112 -0.6064  0.1536  0.8058
 2426TIP3    H228694   7.085   2.485  12.044 -1.9123 -1.5467 -1.0956
 2427TIP3   OH228695   3.591   6.658  10.907  0.5951  0.1448 -0.2367
 2427TIP3    H128696   3.514   6.674  10.962  0.9370  2.0111 -0.2869
 2427TIP3    H228697   3.642   6.738  10.913  2.6634 -1.1539 -0.0400
 2428TIP3   OH228698   6.517   5.493  10.413 -0.1309 -0.2320 -0.2302
 2428TIP3    H128699   6.487   5.464  10.499  0.2008  1.4759  0.4801
 2428TIP3    H228700   6.608   5.464  10.408 -0.4797 -1.2873 -0.4548
 2429TIP3   OH228701   6.788   1.286  12.922 -0.2911  0.2934  0.7309
 2429TIP3    H128702   6.778   1.204  12.873 -1.8079  1.0922 -0.3413
 2429TIP3    H228703   6.852   1.337  12.871 -1.1135  0.7172  0.1134
 2430TIP3   OH228704   1.007   7.164  11.270 -0.1889  0.0199  0.0777
 2430TIP3    H128705   1.079   7.186  11.211  0.0144 -1.1670 -0.1413
 2430TIP3    H228706   1.007   7.234  11.335  0.7623  0.3680 -0.2851
 2431TIP3   OH228707   1.077   6.174  11.729 -0.0399  0.7283 -0.0713
 2431TIP3    H128708   1.121   6.186  11.814 -1.4741 -1.7801  1.0839
 2431TIP3    H228709   1.148   6.162  11.666  1.0028 -0.9463  1.3784
 2432TIP3   OH228710   3.504   2.341  11.605  0.2743 -0.7353 -1.0191
 2432TIP3    H128711   3.599   2.329  11.597  0.3602 -1.4187  0.7674
 2432TIP3    H228712   3.494   2.399  11.681 -0.7511 -0.8831 -1.0451
 2433TIP3   OH228713   7.105   6.115  10.397  0.6271  0.3540 -0.4240
 2433TIP3    H128714   7.099   6.193  10.342 -0.4553 -0.2904 -1.2389
 2433TIP3    H228715   7.016   6.101  10.429  0.6508 -0.9960 -0.9165
 2434TIP3   OH228716   6.014   0.407  12.392  0.4694 -0.4084  0.1817
 2434TIP3    H128717   5.975   0.437  12.310 -2.5776  1.1337  2.0534
 2434TIP3    H228718   6.013   0.484  12.449 -0.2072 -2.0980  2.5839
 2435TIP3   OH228719   5.288   5.331  13.700  0.8026  0.2247 -0.4692
 2435TIP3    H128720   5.328   5.281  13.771 -0.3344  0.3830  0.2960
 2435TIP3    H228721   5.316   5.422  13.716  0.9321  0.1890 -0.4928
 2436TIP3   OH228722   0.791   0.802  10.231 -0.1401 -0.0555  0.3563
 2436TIP3    H128723   0.856   0.765  10.172 -1.7254  0.5391 -1.8253
 2436TIP3    H228724   0.829   0.886  10.259 -0.9800  1.4735 -2.8796
 2437TIP3   OH228725   2.215   6.032  13.672 -0.4681 -0.2600 -0.2636
 2437TIP3    H128726   2.280   6.020  13.603  1.4238 -3.5026  1.9334
 2437TIP3    H228727   2.176   5.945  13.683 -3.1335  0.9804  0.4949
 2438TIP3   OH228728   5.085   0.008  11.871  0.2861 -0.0014  0.3316
 2438TIP3    H128729   5.031   0.033  11.946  1.5420  2.2218  0.5427
 2438TIP3    H228730   5.170   0.049  11.887  0.9151 -0.3780 -1.7937
 2439TIP3   OH228731   0.706   4.230   9.986 -0.1748 -0.0786 -0.1779
 2439TIP3    H128732   0.732   4.278  10.064 -0.3143  0.7478 -0.6388
 2439TIP3    H228733   0.789   4.213   9.940 -0.0966 -0.5358  0.1243
 2440TIP3   OH228734   1.251   5.051  11.436 -0.0548  0.0886 -0.6983
 2440TIP3    H128735   1.287   5.025  11.520 -0.6399  0.0965 -0.4405
 2440TIP3    H228736   1.270   5.144  11.429  1.1085 -0.1709 -1.1460
 2441TIP3   OH228737   6.304   5.344  10.007  0.5536 -0.0738 -0.5166
 2441TIP3    H128738   6.249   5.267   9.992 -0.5388  0.5364  0.3202
 2441TIP3    H228739   6.393   5.311   9.999  0.0891 -1.3684 -0.4919
 2442TIP3   OH228740   5.898   4.976  10.202 -0.0983  0.0718  0.5348
 2442TIP3    H128741   5.846   5.034  10.146  0.5536 -0.6285 -0.8361
 2442TIP3    H228742   5.966   4.943  10.144 -0.4219 -2.0196  1.3124
 2443TIP3   OH228743   0.460   5.389  10.886  0.9612  0.1723 -0.5377
 2443TIP3    H128744   0.433   5.413  10.798  0.1516  2.9064  0.4011
 2443TIP3    H228745   0.539   5.441  10.902 -0.0346  1.2597  1.0508
 2444TIP3   OH228746   5.748   5.625  10.221  0.0161 -0.4028  0.3437
 2444TIP3    H128747   5.737   5.530  10.216 -1.6032 -0.2024 -0.0953
 2444TIP3    H228748   5.670   5.661  10.179  0.0886  1.1319  1.4654
 2445TIP3   OH228749   5.639   0.474  14.044 -0.3892 -0.5462  0.5864
 2445TIP3    H128750   5.563   0.422  14.018 -0.3929 -0.0449 -0.4592
 2445TIP3    H228751   5.605   0.537  14.106 -0.9999  0.2042 -0.4955
 2446TIP3   OH228752   5.591   1.335  11.446 -0.3052  0.6318 -0.1894
 2446TIP3    H128753   5.557   1.376  11.366  0.3502  0.1138 -0.7367
 2446TIP3    H228754   5.649   1.266  11.415  2.3197  2.3787  0.7130
 2447TIP3   OH228755   2.051   3.096  10.692  0.1436 -0.4178 -0.0718
 2447TIP3    H128756   2.124   3.039  10.669  0.4488  0.9842 -2.8337
 2447TIP3    H228757   2.091   3.182  10.706 -1.0251  0.5426 -2.3891
 2448TIP3   OH228758   0.157   4.127  10.943 -0.7562  0.5471  0.5730
 2448TIP3    H128759   0.140   4.219  10.960 -0.7709  0.2933  1.9933
 2448TIP3    H228760   0.253   4.119  10.941 -0.7546  0.6039  0.3116
 2449TIP3   OH228761   5.647   4.873  10.087 -0.7357 -0.1171  0.2548
 2449TIP3    H128762   5.638   4.893   9.994 -1.1210  0.6540  0.4581
 2449TIP3    H228763   5.742   4.875  10.103 -0.6579 -0.4093 -0.1497
 2450TIP3   OH228764   6.459   4.770  12.825  0.3332  0.0636 -0.2011
 2450TIP3    H128765   6.449   4.843  12.764 -1.4066 -0.5334 -0.6676
 2450TIP3    H228766   6.431   4.805  12.910  3.0864  0.9958  0.3723
 2451TIP3   OH228767   3.718   4.991  12.970  0.2299 -0.4397 -0.5071
 2451TIP3    H128768   3.730   5.055  12.899 -0.9034 -0.9111 -1.1407
 2451TIP3    H228769   3.735   5.040  13.050  1.7492  0.0519 -1.1045
 2452TIP3   OH228770   6.717   6.758  11.073 -0.1113 -0.1201  0.0516
 2452TIP3    H128771   6.713   6.680  11.127 -2.2849  1.1347  1.7688
 2452TIP3    H228772   6.628   6.792  11.071  1.0384  3.1826  0.6624
 2453TIP3   OH228773   4.001   5.441  10.997  0.3184  0.4917 -0.0663
 2453TIP3    H128774   4.005   5.535  11.014 -0.6753  0.6295 -0.5555
 2453TIP3    H228775   3.943   5.433  10.921  1.0315 -0.4542 -0.5181
 2454TIP3   OH228776   5.076   0.631  10.614 -0.4608 -0.0687 -0.1972
 2454TIP3    H128777   5.025   0.606  10.537  0.3802 -1.8209 -0.2211
 2454TIP3    H228778   5.163   0.595  10.597  0.0725  0.6659  0.9826
 2455TIP3   OH228779   6.315   6.187  10.990 -0.4469 -0.4539  0.8269
 2455TIP3    H128780   6.370   6.109  10.984  0.9371  0.5088  0.6341
 2455TIP3    H228781   6.270   6.191  10.905 -0.0409 -0.7041  0.5969
 2456TIP3   OH228782   3.930   2.745  12.575  0.1695  0.2199  0.6947
 2456TIP3    H128783   3.945   2.662  12.529 -2.2494 -0.6397  1.3476
 2456TIP3    H228784   3.969   2.732  12.662  2.7202  1.0160 -0.2839
 2457TIP3   OH228785   1.014   6.449  12.654  0.1748 -0.0333  0.3617
 2457TIP3    H128786   1.098   6.402  12.645  0.5278  0.8644 -1.1813
 2457TIP3    H228787   0.959   6.388  12.703  1.0704 -1.5082 -0.3987
 2458TIP3   OH228788   5.124   0.883  11.067  0.0680  0.0777 -0.1997
 2458TIP3    H128789   5.143   0.841  11.151 -1.2111  1.3576  0.7602
 2458TIP3    H228790   5.041   0.844  11.039  0.8374 -0.8522 -1.2283
 2459TIP3   OH228791   7.296   2.953  11.286 -0.0416  0.3287 -0.0696
 2459TIP3    H128792   7.212   2.979  11.249  0.1074  0.9272  0.0135
 2459TIP3    H228793   7.356   2.953  11.211  0.2164  1.3513  0.1298
 2460TIP3   OH228794   6.322   1.759  12.441 -0.2879 -0.3246  0.3715
 2460TIP3    H128795   6.297   1.669  12.421  0.2450 -0.1787 -0.9276
 2460TIP3    H228796   6.388   1.782  12.376  0.0868  0.7801  1.1183
 2461TIP3   OH228797   1.833   5.090  11.169 -0.2134 -0.0921 -0.4741
 2461TIP3    H128798   1.927   5.079  11.155  0.1244 -0.3893  1.9074
 2461TIP3    H228799   1.825   5.164  11.229 -1.5143  0.0027 -0.7444
 2462TIP3   OH228800   5.253   3.011  11.920 -0.2077 -0.4153  0.3080
 2462TIP3    H128801   5.249   3.075  11.991 -1.7447 -0.1314 -0.0185
 2462TIP3    H228802   5.235   2.927  11.964  0.8069 -0.5004  0.5710
 2463TIP3   OH228803   4.403   2.668  15.154  0.3018 -0.0491 -0.1530
 2463TIP3    H128804   4.373   2.598  15.096  1.1891 -0.4267 -0.1765
 2463TIP3    H228805   4.324   2.698  15.198 -0.7104  1.6271 -3.0094
 2464TIP3   OH228806   7.009   5.434  10.443 -0.3434  0.3808 -0.5429
 2464TIP3    H128807   6.993   5.377  10.518  0.7162  0.7394 -0.0201
 2464TIP3    H228808   6.944   5.409  10.378 -0.0044 -1.2888 -0.2471
 2465TIP3   OH228809   1.587   3.691  12.013  0.1759 -0.3169  0.2604
 2465TIP3    H128810   1.679   3.673  11.994  0.2412  0.6232 -0.3265
 2465TIP3    H228811   1.540   3.613  11.984  0.3059  0.9095 -3.4101
 2466TIP3   OH228812   7.291   6.814  11.152  0.2540 -0.6572 -0.1323
 2466TIP3    H128813   7.230   6.791  11.082 -0.2903 -0.0254  0.1308
 2466TIP3    H228814   7.235   6.842  11.224  0.8647  1.7025 -0.5072
 2467TIP3   OH228815   1.284   2.308  11.518  0.2571  0.1465  0.5220
 2467TIP3    H128816   1.365   2.327  11.566 -0.2104  1.5599  0.7919
 2467TIP3    H228817   1.313   2.263  11.439  1.2921  0.3789  0.7559
 2468TIP3   OH228818   0.382   5.492  10.630 -0.1353  0.3717  0.3593
 2468TIP3    H128819   0.430   5.468  10.551 -0.9603 -0.8644  0.2307
 2468TIP3    H228820   0.295   5.455  10.618 -0.9535  2.0806  0.8727
 2469TIP3   OH228821   0.415   3.901  10.843 -0.3476  0.2215 -0.0169
 2469TIP3    H128822   0.337   3.886  10.897 -1.0435 -0.4647 -1.1894
 2469TIP3    H228823   0.440   3.992  10.863 -2.1671  0.8723 -0.5109
 2470TIP3   OH228824   0.574   0.297  12.042 -0.2768  0.4607  0.4395
 2470TIP3    H128825   0.593   0.358  11.971  2.0443 -0.7223  0.0037
 2470TIP3    H228826   0.637   0.321  12.111  1.3499 -2.0706 -0.1274
 2471TIP3   OH228827   6.242   5.111  11.140  0.2325 -0.3890 -0.2548
 2471TIP3    H128828   6.285   5.026  11.139 -0.3538 -0.7525  1.8112
 2471TIP3    H228829   6.310   5.173  11.113  0.2623 -1.6337 -3.2352
 2472TIP3   OH228830   1.167   4.204  11.724  0.3294  0.0693 -0.0051
 2472TIP3    H128831   1.218   4.250  11.791 -0.3012  0.2100  0.3797
 2472TIP3    H228832   1.222   4.129  11.701 -0.4854 -1.3101  2.3773
 2473TIP3   OH228833   5.526   3.296  12.450  0.0670  0.2769  0.1946
 2473TIP3    H128834   5.437   3.262  12.444 -0.1382  0.9365 -0.5892
 2473TIP3    H228835   5.515   3.388  12.472  0.5299  0.5720 -0.8081
 2474TIP3   OH228836   1.058   4.484  10.861 -0.1656 -0.3742 -0.0657
 2474TIP3    H128837   1.013   4.400  10.874 -0.4511 -0.5102 -1.8175
 2474TIP3    H228838   0.991   4.550  10.873 -0.2116 -0.4494  0.0945
 2475TIP3   OH228839   1.146   2.975  12.682  0.3791 -0.3161 -0.2948
 2475TIP3    H128840   1.166   2.882  12.684 -1.0033 -0.6519 -1.5901
 2475TIP3    H228841   1.228   3.018  12.705  0.4875 -1.9081  2.3892
 2476TIP3   OH228842   6.236   4.326  14.435  0.6572 -0.3620  0.1788
 2476TIP3    H128843   6.284   4.409  14.430 -1.5872  1.0734  1.3686
 2476TIP3    H228844   6.151   4.351  14.470 -1.1546 -2.7600 -2.3720
 2477TIP3   OH228845   0.039   2.766  11.003 -0.2360  0.6804  0.2841
 2477TIP3    H128846   0.002   2.683  10.974 -0.3359  0.9802 -0.4702
 2477TIP3    H228847   0.044   2.759  11.098  0.6194 -0.5407  0.1542
 2478TIP3   OH228848   7.135   7.013  12.769 -0.5717 -0.4166 -0.1778
 2478TIP3    H128849   7.179   6.942  12.722 -0.3694 -0.4763  0.0963
 2478TIP3    H228850   7.054   7.028  12.720 -0.1471 -0.1606 -0.8066
 2479TIP3   OH228851   1.112   2.680  13.566 -0.4284  0.2522  0.2421
 2479TIP3    H128852   1.199   2.671  13.527 -0.8326  1.8328 -1.0415
 2479TIP3    H228853   1.113   2.766  13.608 -2.4006  1.6100 -2.4257
 2480TIP3   OH228854   1.864   3.442  13.053 -0.1953 -0.3133 -0.0963
 2480TIP3    H128855   1.942   3.390  13.071 -0.7732 -1.1833 -0.0438
 2480TIP3    H228856   1.792   3.389  13.087 -1.0028 -0.4484 -1.9433
 2481TIP3   OH228857   5.790   6.013   9.359  0.4043  0.1366  0.1301
 2481TIP3    H128858   5.748   5.979   9.438 -0.4001 -1.3338 -0.9211
 2481TIP3    H228859   5.848   5.943   9.330 -0.1116  0.2379 -1.1861
 2482TIP3   OH228860   4.517   5.532  10.491  0.0585 -0.2581  0.1472
 2482TIP3    H128861   4.459   5.511  10.564  0.3321 -0.6661  0.2518
 2482TIP3    H228862   4.516   5.453  10.436  0.6178 -0.3274  0.2251
 2483TIP3   OH228863   6.360   3.133  12.142  0.2709 -0.0630 -0.4389
 2483TIP3    H128864   6.453   3.121  12.123  0.2129 -1.6008  0.1669
 2483TIP3    H228865   6.356   3.213  12.195  1.1639  0.3670 -1.0078
 2484TIP3   OH228866   0.114   5.956  11.502  0.4854 -0.2549 -0.1875
 2484TIP3    H128867   0.097   6.036  11.453 -0.2791  1.2103  2.3845
 2484TIP3    H228868   0.206   5.963  11.529  0.3633 -0.1574  0.2031
 2485TIP3   OH228869   1.846   3.546  13.351 -0.3583  0.3678  0.4921
 2485TIP3    H128870   1.922   3.525  13.406 -1.6470 -1.7723  1.5387
 2485TIP3    H228871   1.877   3.615  13.292  2.0508  0.3294  1.6515
 2486TIP3   OH228872   0.216   1.220  10.276 -0.4772  0.5678 -0.1747
 2486TIP3    H128873   0.178   1.152  10.221 -2.0992  1.0959  0.2618
 2486TIP3    H228874   0.162   1.221  10.354  1.7904 -0.1704  1.4736
 2487TIP3   OH228875   5.273   4.240  12.836  0.2133  0.5090 -0.1903
 2487TIP3    H128876   5.266   4.219  12.929  1.2741  1.7882  0.1940
 2487TIP3    H228877   5.243   4.331  12.830 -0.1311  0.3450 -1.1492
 2488TIP3   OH228878   0.183   3.794  12.559  0.1591  0.2500  0.5217
 2488TIP3    H128879   0.183   3.701  12.584  0.1187 -0.0021 -0.4056
 2488TIP3    H228880   0.261   3.805  12.505 -0.9594  0.2644 -1.1315
 2489TIP3   OH228881   0.126   0.804  13.513  0.3650  0.6363 -0.5857
 2489TIP3    H128882   0.104   0.723  13.560 -0.6276  2.2251  1.7625
 2489TIP3    H228883   0.140   0.869  13.582  2.8236  2.0927 -2.3749
 2490TIP3   OH228884   5.401   4.241  11.676 -0.1673  0.0267  0.2540
 2490TIP3    H128885   5.429   4.182  11.746  0.9622 -0.0009 -0.2078
 2490TIP3    H228886   5.353   4.186  11.615 -1.3683  0.0961  1.1206
 2491TIP3   OH228887   6.480   0.649  12.536 -0.3665  0.2006 -0.2256
 2491TIP3    H128888   6.390   0.671  12.512 -0.4784 -1.1480 -1.1091
 2491TIP3    H228889   6.495   0.564  12.496  1.6967  0.9276 -1.0911
 2492TIP3   OH228890   1.427   2.198  11.329  0.2804  0.0727 -0.2596
 2492TIP3    H128891   1.483   2.124  11.353  0.9357  0.6707  0.0794
 2492TIP3    H228892   1.377   2.167  11.254 -1.2468 -1.5787  1.3833
 2493TIP3   OH228893   5.094   3.299  12.494  0.5912 -0.4313 -0.1206
 2493TIP3    H128894   5.120   3.376  12.444  1.5271 -0.3758  0.4469
 2493TIP3    H228895   5.162   3.234  12.475 -0.9561 -1.6582 -1.7979
 2494TIP3   OH228896   0.605   3.378  12.072 -0.3690 -0.5648 -0.0484
 2494TIP3    H128897   0.520   3.422  12.078 -0.0127  0.1946 -0.6022
 2494TIP3    H228898   0.603   3.332  11.988  0.0842  0.0976 -0.4177
 2495TIP3   OH228899   5.708   4.616  11.171  0.2826 -0.4672 -0.1938
 2495TIP3    H128900   5.754   4.678  11.114  0.7152  1.0885  1.7953
 2495TIP3    H228901   5.638   4.667  11.211 -0.3456 -1.6832  0.2956
 2496TIP3   OH228902   1.047   3.990  11.125  0.6341 -0.0956 -0.0571
 2496TIP3    H128903   0.994   4.008  11.048 -0.5226  0.6632  0.8885
 2496TIP3    H228904   1.086   4.075  11.147  0.2530 -0.1045  0.6924
 2497TIP3   OH228905   4.487   4.943   9.764  0.8311  0.3553 -0.0714
 2497TIP3    H128906   4.440   5.013   9.719  0.3354 -0.2233 -0.4524
 2497TIP3    H228907   4.424   4.909   9.827  0.9146 -0.0745 -0.2236
 2498TIP3   OH228908   2.251   3.945  11.378 -0.5196 -0.1575  0.5862
 2498TIP3    H128909   2.285   3.952  11.467 -1.7119 -0.4646  1.0737
 2498TIP3    H228910   2.165   3.988  11.381 -0.8497 -0.7396 -0.2586
 2499TIP3   OH228911   1.927   4.537  11.985  0.5870  0.1984  0.0404
 2499TIP3    H128912   2.022   4.552  11.988  0.6438  0.0426 -0.7933
 2499TIP3    H228913   1.911   4.507  11.895  0.0159 -1.6566  0.7651
 2500TIP3   OH228914   0.776   0.536  12.423  0.6578  0.2307 -0.1769
 2500TIP3    H128915   0.810   0.482  12.352  0.9036 -1.4766  1.1994
 2500TIP3    H228916   0.729   0.607  12.379  0.4623 -1.0055 -2.0251
 2501TIP3   OH228917   5.485   6.497  11.891  0.5077  1.0556  0.1536
 2501TIP3    H128918   5.429   6.574  11.883 -1.2831 -0.2659 -0.3069
 2501TIP3    H228919   5.458   6.457  11.974  0.9434  0.5317  0.0412
 2502TIP3   OH228920   0.966   4.721  11.646 -0.2626 -0.0444 -0.0281
 2502TIP3    H128921   0.881   4.749  11.611 -0.6312 -3.7943 -2.4379
 2502TIP3    H228922   0.954   4.628  11.666  2.6573 -0.1138  1.6150
 2503TIP3   OH228923   6.986   0.359  13.572 -0.0976  0.0944 -0.1834
 2503TIP3    H128924   6.910   0.396  13.528  1.0651  1.0278 -1.4133
 2503TIP3    H228925   7.024   0.299  13.509 -0.2641 -0.9971  0.7292
 2504TIP3   OH228926   6.717   1.092  11.548  0.2177  0.2529 -0.2628
 2504TIP3    H128927   6.793   1.046  11.512 -0.7756 -0.4038 -1.5525
 2504TIP3    H228928   6.646   1.074  11.487 -1.9272 -2.1328  2.7663
 2505TIP3   OH228929   2.058   2.308  12.023 -0.8652  0.0363 -0.2837
 2505TIP3    H128930   2.083   2.254  12.098 -3.2784  0.7539  1.0815
 2505TIP3    H228931   2.136   2.360  12.005 -0.2931 -0.0160  1.8323
 2506TIP3   OH228932   0.089   4.992  11.952 -0.3724 -0.6367  0.1019
 2506TIP3    H128933   0.000   4.968  11.978 -0.2899 -1.8307 -0.6524
 2506TIP3    H228934   0.077   5.071  11.898 -1.1008 -1.4377 -0.9345
 2507TIP3   OH228935   1.994   3.635  10.992 -0.0336 -0.1193  0.0942
 2507TIP3    H128936   2.070   3.599  11.037  0.7336 -0.7046 -1.6085
 2507TIP3    H228937   1.919   3.608  11.045  0.7327 -2.0352  0.2295
 2508TIP3   OH228938   1.368   7.156  11.102  0.1382  0.0764 -0.0299
 2508TIP3    H128939   1.433   7.199  11.158 -0.0230  0.1957  0.0674
 2508TIP3    H228940   1.355   7.070  11.142 -0.9678  0.6519  0.9021
 2509TIP3   OH228941   6.770   6.103  10.567 -0.0844  0.3985  0.1844
 2509TIP3    H128942   6.695   6.090  10.509 -0.7997 -2.1412  1.6287
 2509TIP3    H228943   6.734   6.152  10.642  0.4138  1.9709 -0.5908
 2510TIP3   OH228944   4.559   4.109  12.443 -0.1421 -0.1094  0.0340
 2510TIP3    H128945   4.594   4.119  12.531 -0.4626 -0.3302  0.1877
 2510TIP3    H228946   4.635   4.118  12.385 -0.0721  1.0202  0.2818
 2511TIP3   OH228947   6.064   3.437  10.104  0.4938 -0.5504 -0.0923
 2511TIP3    H128948   6.011   3.428  10.024 -0.6150  0.0338  0.5675
 2511TIP3    H228949   6.133   3.497  10.079 -0.5462  0.5891 -0.2872
 2512TIP3   OH228950   5.130   3.282  10.238 -0.0843  0.4682 -0.4178
 2512TIP3    H128951   5.168   3.205  10.196 -1.4773  0.4334 -1.6876
 2512TIP3    H228952   5.121   3.346  10.167 -2.0579  0.5671 -0.1287
 2513TIP3   OH228953   2.331   1.803  10.733 -0.2528  0.1232  0.2593
 2513TIP3    H128954   2.297   1.789  10.645  0.6193 -1.5148  0.1574
 2513TIP3    H228955   2.341   1.715  10.770 -2.3807  0.8341  2.6926
 2514TIP3   OH228956   0.444   4.572  10.027 -0.0914 -0.2351 -0.1491
 2514TIP3    H128957   0.518   4.593   9.969 -0.7966 -0.2964 -1.0722
 2514TIP3    H228958   0.442   4.477  10.030 -0.8263 -0.2534 -1.0274
 2515TIP3   OH228959   4.344   4.007  10.272  0.3979 -0.4905  0.3981
 2515TIP3    H128960   4.372   4.097  10.291 -2.4570  0.0051  2.5115
 2515TIP3    H228961   4.416   3.952  10.305  1.5105  0.9481  0.4104
 2516TIP3   OH228962   6.427   5.483  10.938  0.0120 -0.3746 -0.0121
 2516TIP3    H128963   6.489   5.530  10.882  0.6180 -1.5065 -0.3029
 2516TIP3    H228964   6.341   5.501  10.899  0.0875  1.6476  0.7110
 2517TIP3   OH228965   5.463   3.723  11.336  0.0387  0.3639 -0.3348
 2517TIP3    H128966   5.466   3.630  11.312 -2.3768  0.4063 -0.9021
 2517TIP3    H228967   5.437   3.723  11.428 -0.0703  0.4852 -0.3661
 2518TIP3   OH228968   4.550   4.333  10.980 -0.4115 -0.7791  0.5911
 2518TIP3    H128969   4.545   4.405  10.918  0.4954 -2.0305 -0.9647
 2518TIP3    H228970   4.459   4.302  10.989 -0.7413  0.2732  0.9614
 2519TIP3   OH228971   4.506   6.221  13.275  0.4687  0.3188 -0.6379
 2519TIP3    H128972   4.498   6.299  13.220  0.0093 -0.5074 -1.7607
 2519TIP3    H228973   4.600   6.212  13.289  0.4035  2.3853  1.4327
 2520TIP3   OH228974   4.231   7.216  13.838 -0.7813 -0.2633  0.2512
 2520TIP3    H128975   4.223   7.123  13.816  3.0021 -0.8472  1.0843
 2520TIP3    H228976   4.242   7.217  13.933  0.1713  0.9612  0.1406
 2521TIP3   OH228977   5.854   3.593  12.283  0.4111 -0.4695 -0.3574
 2521TIP3    H128978   5.917   3.594  12.356  0.2759 -0.2938 -0.2437
 2521TIP3    H228979   5.780   3.645  12.314 -0.7961 -2.5835  0.3850
 2522TIP3   OH228980   0.192   6.170  12.474  0.6306 -0.2760  0.0750
 2522TIP3    H128981   0.198   6.242  12.410 -0.1619 -1.5994 -1.5264
 2522TIP3    H228982   0.263   6.111  12.449 -0.2580 -1.2515 -0.1832
 2523TIP3   OH228983   1.088   4.206  10.425  0.9172 -0.0428 -0.5849
 2523TIP3    H128984   1.178   4.185  10.449  1.0503  1.6988  0.4814
 2523TIP3    H228985   1.097   4.261  10.347  0.7870  0.1815 -0.4419
 2524TIP3   OH228986   0.522   3.984  10.394  0.1356  0.4283  0.2013
 2524TIP3    H128987   0.498   4.053  10.456  1.6239  0.9606  0.2068
 2524TIP3    H228988   0.609   4.009  10.362  0.0190 -0.6160 -0.9942
 2525TIP3   OH228989   4.884   7.047  12.710  0.4808  0.2863  0.3057
 2525TIP3    H128990   4.847   7.135  12.711  1.5870  0.7532  1.5698
 2525TIP3    H228991   4.929   7.040  12.626 -0.1808  0.6727 -0.0847
 2526TIP3   OH228992   0.143   0.158  11.296 -0.5607  0.2229 -0.1661
 2526TIP3    H128993   0.082   0.093  11.264  0.4038 -0.2179 -1.1447
 2526TIP3    H228994   0.211   0.108  11.341 -0.4685  0.6348  0.1586
 2527TIP3   OH228995   3.198   5.290  12.655 -1.0127  0.2526 -0.0966
 2527TIP3    H128996   3.150   5.346  12.593 -0.2895  1.3231  0.2889
 2527TIP3    H228997   3.289   5.317  12.646 -0.6505 -0.8710  0.1096
 2528TIP3   OH228998   0.253   4.688  10.205  0.5055  0.5853  0.0483
 2528TIP3    H128999   0.314   4.648  10.144 -0.1770 -0.5650  0.0984
 2528TIP3    H229000   0.167   4.656  10.178  0.1917  0.0729  1.5672
 2529TIP3   OH229001   6.296   0.315  10.627 -0.2834 -0.0088 -0.0236
 2529TIP3    H129002   6.353   0.262  10.682 -0.9557 -0.9337 -0.2000
 2529TIP3    H229003   6.211   0.271  10.631 -0.1562 -0.5276 -2.4077
 2530TIP3   OH229004   1.406   6.877   9.610  0.4068 -0.2707 -0.5598
 2530TIP3    H129005   1.478   6.863   9.673  0.0815 -1.7973 -0.4975
 2530TIP3    H229006   1.343   6.808   9.631 -0.3538  0.0876 -1.6448
 2531TIP3   OH229007   1.863   6.391  11.319 -0.2031 -0.3379 -0.3291
 2531TIP3    H129008   1.827   6.359  11.402  0.0417 -0.7579 -0.3863
 2531TIP3    H229009   1.794   6.372  11.255  0.5999 -2.2540 -0.6540
 2532TIP3   OH229010   0.714   3.074  14.835 -0.1006  0.2348  0.5150
 2532TIP3    H129011   0.679   3.053  14.922  1.9877 -2.7051  0.7300
 2532TIP3    H229012   0.797   3.119  14.852  0.1163  0.0151  0.0670
 2533TIP3   OH229013   5.416   5.560  10.279 -0.8470 -0.1493 -0.1952
 2533TIP3    H129014   5.355   5.628  10.251 -0.6996  0.3210  0.6057
 2533TIP3    H229015   5.453   5.593  10.361 -1.8111 -1.8273  0.9478
 2534TIP3   OH229016   0.719   6.711  12.641 -0.2734 -0.4899  0.2096
 2534TIP3    H129017   0.679   6.644  12.696 -0.3402 -0.3187  0.3691
 2534TIP3    H229018   0.689   6.794  12.678  1.3596 -0.3108  1.2190
 2535TIP3   OH229019   1.151   4.701  10.475  0.2412  0.2932  0.3497
 2535TIP3    H129020   1.117   4.653  10.399 -2.4196  1.4015  0.7845
 2535TIP3    H229021   1.185   4.783  10.438 -1.6924  1.1456  0.3655
 2536TIP3   OH229022   2.949   1.398  10.410 -0.0759 -0.5080  0.1775
 2536TIP3    H129023   2.895   1.449  10.350  0.1576  1.2762  1.4428
 2536TIP3    H229024   2.917   1.308  10.400  0.6541 -0.4344 -3.3352
 2537TIP3   OH229025   1.578   7.276  12.285  0.2191  0.8939  0.1453
 2537TIP3    H129026   1.552   7.215  12.215  1.4945  0.7170 -0.1867
 2537TIP3    H229027   1.522   7.252  12.359 -0.1104  0.0990 -0.3508
 2538TIP3   OH229028   6.668   4.395  10.881  0.3982  0.2353  0.5360
 2538TIP3    H129029   6.674   4.366  10.790  0.0700 -1.6574  1.0968
 2538TIP3    H229030   6.663   4.314  10.932 -0.2401  1.2807  2.1845
 2539TIP3   OH229031   3.338   0.822  10.593 -0.6674  0.1433  0.5318
 2539TIP3    H129032   3.335   0.757  10.663  2.1138 -0.3681  0.2145
 2539TIP3    H229033   3.348   0.771  10.513  0.5381  0.9014  0.1884
 2540TIP3   OH229034   5.046   5.468  11.512  0.0712 -0.7253 -0.4368
 2540TIP3    H129035   5.086   5.453  11.427  0.9041  0.0156 -0.1748
 2540TIP3    H229036   4.969   5.521  11.494 -0.2258 -1.2836 -0.8236
 2541TIP3   OH229037   2.988   1.981  12.694 -0.0440 -0.2284  0.3036
 2541TIP3    H129038   2.972   1.927  12.618 -0.8122 -0.8802  0.9275
 2541TIP3    H229039   2.972   2.071  12.664 -0.5051 -0.4969 -0.2455
 2542TIP3   OH229040   0.055   0.226  11.660  0.1965 -0.4108 -0.0857
 2542TIP3    H129041  -0.011   0.195  11.721  0.0192 -0.7848 -0.4627
 2542TIP3    H229042   0.021   0.202  11.574 -0.2898  1.4643 -0.4493
 2543TIP3   OH229043   1.299   5.968  10.608  0.7573 -0.6484 -0.1425
 2543TIP3    H129044   1.360   6.042  10.604  0.0384  0.0169  1.0232
 2543TIP3    H229045   1.340   5.905  10.667  0.7241 -0.5699 -0.0349
 2544TIP3   OH229046   6.453   5.543  12.715 -0.8158  0.5580 -1.0144
 2544TIP3    H129047   6.536   5.536  12.763 -1.7553  0.1281  0.5858
 2544TIP3    H229048   6.467   5.617  12.655  0.9852 -0.0097 -1.3296
 2545TIP3   OH229049   1.832   6.017  10.635 -0.0456  0.1720  0.1698
 2545TIP3    H129050   1.924   6.000  10.652 -0.2787  0.2120  1.5279
 2545TIP3    H229051   1.831   6.070  10.555  0.9362 -2.2420 -1.4902
 2546TIP3   OH229052   0.870   4.149  11.673  0.0988  0.3292 -0.5137
 2546TIP3    H129053   0.873   4.064  11.627  0.6618 -0.4711  0.9744
 2546TIP3    H229054   0.960   4.180  11.672  0.2410 -0.0158  0.6199
 2547TIP3   OH229055   1.107   5.142  10.156  0.2944 -0.3316 -0.2901
 2547TIP3    H129056   1.129   5.233  10.134 -1.9294  0.6853  1.4843
 2547TIP3    H229057   1.076   5.104  10.073 -0.1927  0.9831 -0.7259
 2548TIP3   OH229058   4.350   6.245  12.395 -0.3903  0.6515  0.8204
 2548TIP3    H129059   4.416   6.264  12.462 -0.3553 -0.7685  1.1999
 2548TIP3    H229060   4.354   6.150  12.383  0.8711  1.0552 -2.4983
 2549TIP3   OH229061   6.801   6.244  13.266  0.3123  0.2617  0.6549
 2549TIP3    H129062   6.798   6.336  13.242  2.8319  1.0520  3.0707
 2549TIP3    H229063   6.835   6.199  13.189 -1.4495  1.2327 -0.7199
 2550TIP3   OH229064   2.843   6.078  10.984 -0.1843 -1.1204  0.6376
 2550TIP3    H129065   2.862   6.048  10.895  0.5926  0.8403  0.1235
 2550TIP3    H229066   2.929   6.082  11.027  0.0997  2.8781 -0.1293
 2551TIP3   OH229067   3.421   7.120  11.676 -0.0786  0.0779  0.3874
 2551TIP3    H129068   3.418   7.055  11.606  0.5721 -1.4856  1.7715
 2551TIP3    H229069   3.352   7.093  11.736  0.8726  0.0543  1.4846
 2552TIP3   OH229070   3.975   5.336  11.733  0.3639  0.0242  0.0779
 2552TIP3    H129071   3.967   5.358  11.640 -1.5035  1.7243  0.6100
 2552TIP3    H229072   4.054   5.282  11.738  2.2350  2.4402 -2.0267
 2553TIP3   OH229073   1.443   6.686  11.018  0.0161 -0.2758  0.0324
 2553TIP3    H129074   1.398   6.695  10.935  0.2961 -0.9815 -0.1995
 2553TIP3    H229075   1.478   6.773  11.037 -1.6933  0.3468  0.3690
 2554TIP3   OH229076   4.683   7.248  12.699  0.0475  0.5075 -0.2911
 2554TIP3    H129077   4.663   7.340  12.716  0.0206  0.5993 -0.8270
 2554TIP3    H229078   4.617   7.220  12.636 -0.4378 -0.0993  0.4766
 2555TIP3   OH229079   0.240   6.948  10.661  0.8331 -0.4836  0.2832
 2555TIP3    H129080   0.325   6.920  10.629  0.8427 -0.4583  0.2858
 2555TIP3    H229081   0.238   6.921  10.753  0.5418 -1.1450  0.0829
 2556TIP3   OH229082   2.311   6.449  13.693  0.1170 -0.3490  0.4924
 2556TIP3    H129083   2.356   6.372  13.729 -1.3142 -0.3103  2.4890
 2556TIP3    H229084   2.218   6.424  13.695 -0.3669  1.4874  1.3066
 2557TIP3   OH229085   6.691   0.209  10.959 -0.2064  0.2413 -0.8666
 2557TIP3    H129086   6.745   0.214  11.038  1.9927 -1.6900 -2.1584
 2557TIP3    H229087   6.710   0.290  10.912 -0.0696  0.5455 -0.2898
 2558TIP3   OH229088   2.707   6.678  10.905  0.1573 -0.3946 -0.2984
 2558TIP3    H129089   2.735   6.756  10.857  2.4989 -0.6151  0.6180
 2558TIP3    H229090   2.625   6.651  10.863  0.7481  0.9743 -2.3845
 2559TIP3   OH229091   0.622   6.262  10.866  0.2165  0.2248 -0.0286
 2559TIP3    H129092   0.635   6.167  10.867 -1.1754  0.0167 -0.7733
 2559TIP3    H229093   0.605   6.285  10.958 -0.2384 -0.3591  0.0349
 2560TIP3   OH229094   1.105   6.216  11.372  0.5443 -0.1762  0.0187
 2560TIP3    H129095   1.013   6.223  11.345  0.7061 -1.3591 -0.8343
 2560TIP3    H229096   1.127   6.304  11.403 -0.6162  0.3398 -0.5959
 2561TIP3   OH229097   2.105   6.401  11.598  0.0855 -0.2717 -0.2484
 2561TIP3    H129098   2.163   6.380  11.672 -0.9903  1.1720  1.0548
 2561TIP3    H229099   2.118   6.495  11.584  0.2410 -0.5272 -1.8954
 2562TIP3   OH229100   6.273   6.570  10.214  0.2492 -0.1635 -0.2486
 2562TIP3    H129101   6.322   6.490  10.194 -1.3078 -1.5621  1.3370
 2562TIP3    H229102   6.182   6.542  10.220 -0.3268  1.7391  0.2813
 2563TIP3   OH229103   1.319   6.707  10.774 -0.4152  0.5173  0.2476
 2563TIP3    H129104   1.320   6.612  10.767  1.4247  0.7077 -2.8576
 2563TIP3    H229105   1.239   6.733  10.730  0.7199  0.5603 -1.8265
 2564TIP3   OH229106   1.430   1.799  15.842  0.5213 -0.2568  0.4121
 2564TIP3    H129107   1.425   1.858  15.767 -1.9751  0.0402  0.7729
 2564TIP3    H229108   1.476   1.850  15.909  0.1158  0.5676  0.0736
 2565TIP3   OH229109   3.102   5.681  11.176 -0.0265  0.6878  0.1789
 2565TIP3    H129110   3.029   5.624  11.202 -0.4111  0.8746 -0.4897
 2565TIP3    H229111   3.080   5.766  11.212 -0.3329  0.8365 -0.3545
 2566TIP3   OH229112   0.853   7.015  11.444 -0.3419 -0.4046 -0.2341
 2566TIP3    H129113   0.916   7.065  11.393 -1.5613  1.1237 -0.2706
 2566TIP3    H229114   0.896   7.000  11.529  0.3089  0.0610 -0.4838
 2567TIP3   OH229115   1.605   5.807  12.766 -0.8345  0.9409  0.4111
 2567TIP3    H129116   1.535   5.864  12.799 -0.4480  0.7989  1.4625
 2567TIP3    H229117   1.667   5.799  12.838  0.1188  0.7948 -0.4097
 2568TIP3   OH229118   5.968   5.749  10.648  0.5319  0.0699  0.2951
 2568TIP3    H129119   5.894   5.797  10.611 -0.8650 -2.2909 -0.0549
 2568TIP3    H229120   6.018   5.720  10.573  2.2537  2.2353  0.5432
 2569TIP3   OH229121   0.910   5.979  11.915 -0.3506 -0.4745 -0.5155
 2569TIP3    H129122   0.966   6.019  11.848  1.4384 -3.4124 -0.8781
 2569TIP3    H229123   0.943   6.013  11.998 -2.6742  3.3067 -1.0247
 2570TIP3   OH229124   6.044   0.034  14.541 -0.5586  0.6687  0.4783
 2570TIP3    H129125   6.116  -0.015  14.502 -2.2565 -2.3309  0.9832
 2570TIP3    H229126   6.060   0.125  14.514  0.9955 -0.5584 -3.0218
 2571TIP3   OH229127   5.936   4.071  13.667 -0.5153 -0.4562  0.2937
 2571TIP3    H129128   5.976   4.008  13.608  0.3205 -1.1718  1.6091
 2571TIP3    H229129   5.976   4.155  13.642 -0.0998 -0.7610 -0.0783
 2572TIP3   OH229130   0.136   0.959  10.361 -0.1379  0.2254  0.4097
 2572TIP3    H129131   0.097   0.961  10.448 -0.7961 -0.2624  0.1293
 2572TIP3    H229132   0.061   0.958  10.301  0.3109  0.7399 -0.1635
 2573TIP3   OH229133   3.466   4.077  11.158 -0.1831  1.0312 -0.4411
 2573TIP3    H129134   3.444   3.984  11.168 -1.3682  1.1785 -1.5245
 2573TIP3    H229135   3.443   4.097  11.067  0.9665  2.1460 -0.4958
 2574TIP3   OH229136   2.018   2.730   9.868 -0.2627  0.4515  0.1365
 2574TIP3    H129137   1.995   2.721   9.776  1.5439  0.0368 -0.2980
 2574TIP3    H229138   2.036   2.640   9.897  0.4711  0.7278  0.5385
 2575TIP3   OH229139   4.850   2.418  11.539 -0.0010 -0.2246 -0.1863
 2575TIP3    H129140   4.767   2.435  11.585  1.2610 -0.5784  2.3016
 2575TIP3    H229141   4.869   2.326  11.557 -0.7920 -1.1650 -3.7200
 2576TIP3   OH229142   2.562   0.791  12.142 -0.3942  0.0460 -0.4362
 2576TIP3    H129143   2.505   0.728  12.188 -1.5756  1.4540  0.0874
 2576TIP3    H229144   2.527   0.794  12.053 -0.7694  0.4669 -0.2754
 2577TIP3   OH229145   1.828   2.461  10.889 -0.4024 -0.4528  0.0411
 2577TIP3    H129146   1.779   2.538  10.861 -0.9855 -0.0042  2.1344
 2577TIP3    H229147   1.772   2.387  10.866 -2.7764  0.1053  3.4813
 2578TIP3   OH229148   0.633   7.251  11.705 -0.1962  0.0629 -0.4054
 2578TIP3    H129149   0.546   7.277  11.736 -1.4137  1.1456 -4.4539
 2578TIP3    H229150   0.691   7.320  11.737 -1.4738  1.4212 -0.9542
 2579TIP3   OH229151   6.620   7.165  10.563  0.3658 -0.0855  0.0853
 2579TIP3    H129152   6.671   7.245  10.582 -3.2227  2.2067  0.4907
 2579TIP3    H229153   6.597   7.130  10.649  1.8610 -1.5645 -0.0951
 2580TIP3   OH229154   6.171   0.226  12.563 -0.5892 -0.3316 -0.1226
 2580TIP3    H129155   6.134   0.265  12.642 -2.9192 -2.8171  0.0977
 2580TIP3    H229156   6.123   0.267  12.491 -0.3715 -0.0337 -0.0971
 2581TIP3   OH229157   6.228   0.030  13.230  0.6831 -0.0446 -0.4816
 2581TIP3    H129158   6.319   0.059  13.244  0.6129  0.1847 -0.4870
 2581TIP3    H229159   6.208   0.058  13.140  0.1997  1.0077 -0.0550
 2582TIP3   OH229160   0.356   6.417   9.891  0.3801 -0.0687  0.0516
 2582TIP3    H129161   0.425   6.352   9.905 -0.3288 -0.6557  0.8545
 2582TIP3    H229162   0.372   6.484   9.957  0.2137 -0.1785  0.2034
 2583TIP3   OH229163   0.304   5.544  11.145  0.0094 -0.5338 -0.3155
 2583TIP3    H129164   0.350   5.612  11.195 -1.4157  1.1783 -1.2578
 2583TIP3    H229165   0.361   5.467  11.151  2.1072  0.9897  0.0548
 2584TIP3   OH229166   6.753   4.845  14.634  0.2504  0.7841  0.0330
 2584TIP3    H129167   6.719   4.840  14.723 -0.2147  0.0593 -0.1801
 2584TIP3    H229168   6.692   4.903  14.589  0.0064  0.4851 -0.0259
 2585TIP3   OH229169   6.916   5.577  13.275 -0.0120 -0.2501 -0.4225
 2585TIP3    H129170   6.884   5.642  13.338  0.8891 -1.0167  0.8477
 2585TIP3    H229171   7.003   5.608  13.252 -0.7090  0.5528 -2.0651
 2586TIP3   OH229172   6.339   6.625  10.608  0.1895  0.5134  0.0515
 2586TIP3    H129173   6.319   6.718  10.618 -0.3347  0.3538  0.5764
 2586TIP3    H229174   6.433   6.622  10.590  0.4608  1.0803  1.2768
 2587TIP3   OH229175   0.585   5.589  10.007 -0.2501 -0.1355  0.1672
 2587TIP3    H129176   0.584   5.663  10.068  0.6436 -0.3052  0.3946
 2587TIP3    H229177   0.631   5.622   9.929 -1.8661  0.2545 -0.6475
 2588TIP3   OH229178   1.142   0.058  10.478 -0.0000 -0.0420 -0.1576
 2588TIP3    H129179   1.198  -0.014  10.508  0.0422  0.3508  0.7388
 2588TIP3    H229180   1.182   0.086  10.395  2.0718  1.2232  1.2065
 2589TIP3   OH229181   2.756   5.852  10.789  0.6726 -0.0370 -0.3997
 2589TIP3    H129182   2.783   5.771  10.832  0.0177 -0.1424 -0.1942
 2589TIP3    H229183   2.722   5.824  10.704  0.1131 -0.0149 -0.1855
 2590TIP3   OH229184   3.933   4.070  11.113 -0.4827 -0.0646  0.0504
 2590TIP3    H129185   3.863   4.110  11.165 -0.8459 -0.0429 -0.4659
 2590TIP3    H229186   4.004   4.056  11.177 -1.3209 -1.0271  0.7771
 2591TIP3   OH229187   6.584   6.569  10.434  0.4943 -0.2490  0.1887
 2591TIP3    H129188   6.634   6.539  10.358 -1.5439  1.0977 -1.7417
 2591TIP3    H229189   6.518   6.501  10.447 -1.3814  1.1907 -1.4919
 2592TIP3   OH229190   0.697   5.719   9.792 -0.1315 -0.0636  0.2472
 2592TIP3    H129191   0.766   5.781   9.767 -0.0894 -0.2285 -0.0566
 2592TIP3    H229192   0.640   5.715   9.715  0.1902 -0.8452  0.0386
 2593TIP3   OH229193   0.250   7.226  11.069 -0.3135 -0.8375  0.1859
 2593TIP3    H129194   0.272   7.142  11.031 -0.4586  0.6886 -3.4358
 2593TIP3    H229195   0.331   7.277  11.066 -0.8042 -0.0379  0.0937
 2594TIP3   OH229196   0.745   5.342  14.035  0.2161 -0.6369  0.1120
 2594TIP3    H129197   0.715   5.252  14.023  1.3457 -1.1351  1.0098
 2594TIP3    H229198   0.691   5.377  14.106 -0.8545 -0.2932 -0.8470
 2595TIP3   OH229199   3.891   7.190  13.335  0.1957 -0.2255 -0.3057
 2595TIP3    H129200   3.871   7.276  13.296 -1.2981 -0.5357 -0.2662
 2595TIP3    H229201   3.920   7.137  13.261  2.2114  0.6227 -0.1465
 2596TIP3   OH229202   3.772   6.580  10.547  0.1492  0.2279  0.0095
 2596TIP3    H129203   3.848   6.548  10.595 -0.5769 -0.0723  0.9746
 2596TIP3    H229204   3.776   6.675  10.556  0.6874  0.2459 -0.3829
 2597TIP3   OH229205   2.877   6.569  11.615 -0.6828  0.0443  0.4923
 2597TIP3    H129206   2.850   6.524  11.695  0.2562 -1.2293  0.0937
 2597TIP3    H229207   2.854   6.509  11.544 -3.1163  1.8782 -0.3777
 2598TIP3   OH229208   2.505   3.447  13.449 -0.0133  0.2141  0.3702
 2598TIP3    H129209   2.421   3.481  13.480  0.8466  1.2837  1.6396
 2598TIP3    H229210   2.512   3.360  13.488 -1.5999 -0.8809 -1.7333
 2599TIP3   OH229211   6.081   3.906  15.203 -0.5165  0.2302 -0.0560
 2599TIP3    H129212   6.170   3.870  15.206 -1.4344 -2.2088 -1.0457
 2599TIP3    H229213   6.077   3.953  15.120 -0.1019  0.5525  0.1014
 2600TIP3   OH229214   0.188   0.151  10.924 -0.5822  1.1426  0.3443
 2600TIP3    H129215   0.216   0.068  10.962 -1.5558  1.3921  1.6553
 2600TIP3    H229216   0.163   0.128  10.835 -1.5297 -0.1335  0.9079
 2601TIP3   OH229217   5.479   5.471  12.120  0.1149 -0.6944  0.1044
 2601TIP3    H129218   5.531   5.460  12.040  0.3089  1.5866 -0.1159
 2601TIP3    H229219   5.392   5.495  12.088  0.4991  1.3968  0.5916
 2602TIP3   OH229220   0.779   5.943  11.389  0.2960 -0.0558 -0.0015
 2602TIP3    H129221   0.818   5.915  11.306  2.0254  2.5490 -0.1190
 2602TIP3    H229222   0.826   5.893  11.455  0.8826 -0.0417 -0.4032
 2603TIP3   OH229223   1.571   4.391  11.235 -0.0642  0.4204 -0.2131
 2603TIP3    H129224   1.665   4.395  11.250 -0.1341  1.1307  0.0486
 2603TIP3    H229225   1.533   4.376  11.321 -0.1759 -0.1628 -0.3604
 2604TIP3   OH229226   1.111   5.926  10.951  0.2672  1.0093 -0.2870
 2604TIP3    H129227   1.104   5.938  10.856  0.6194 -0.1187 -0.4647
 2604TIP3    H229228   1.059   5.997  10.988  1.5632  2.5151 -1.2814
 2605TIP3   OH229229   0.187   6.475  13.334  0.3562 -0.3453  0.8348
 2605TIP3    H129230   0.113   6.530  13.362  1.1948  0.9654  0.4828
 2605TIP3    H229231   0.265   6.524  13.359  1.1250 -0.4982 -1.2113
 2606TIP3   OH229232   6.992   6.727  10.057  0.8854  0.5606  0.0164
 2606TIP3    H129233   6.939   6.783  10.001  0.4659  0.4753  0.3309
 2606TIP3    H229234   6.931   6.692  10.122  1.0148 -0.7165 -0.5180
 2607TIP3   OH229235   1.484   3.434  11.261 -0.0100  0.1274 -0.2053
 2607TIP3    H129236   1.472   3.484  11.342  0.2397 -0.9110  0.4912
 2607TIP3    H229237   1.414   3.368  11.264 -0.6288  0.7306 -1.3387
 2608TIP3   OH229238   1.022   6.347   9.612 -0.0769  0.2293  0.7884
 2608TIP3    H129239   1.074   6.328   9.691 -1.8729  1.2126  2.2613
 2608TIP3    H229240   1.047   6.437   9.589 -0.6195  0.4550  1.0870
 2609TIP3   OH229241   0.628   0.547  10.981  0.3026 -0.1863  0.2029
 2609TIP3    H129242   0.705   0.598  11.004  1.0406 -1.0188 -0.3631
 2609TIP3    H229243   0.643   0.461  11.020 -0.1972 -0.4486 -0.1679
 2610TIP3   OH229244   7.140   5.987   9.966  0.5452 -0.5498  0.0663
 2610TIP3    H129245   7.077   5.992  10.038  0.7947 -2.3465  0.4263
 2610TIP3    H229246   7.225   5.984  10.010  0.6752 -2.0779 -0.2784
 2611TIP3   OH229247   6.623   6.285  11.568 -0.4610 -0.0087  0.3350
 2611TIP3    H129248   6.617   6.332  11.485  1.2838  0.2705  0.3429
 2611TIP3    H229249   6.573   6.205  11.555 -2.7741  1.4556  0.0396
 2612TIP3   OH229250   1.010   5.175  12.468  0.0629  0.6504 -0.7385
 2612TIP3    H129251   1.052   5.102  12.423 -2.4400 -0.8313 -0.7982
 2612TIP3    H229252   1.004   5.146  12.559  0.1410  1.2893 -0.5300
 2613TIP3   OH229253   2.101   6.512  11.287 -0.1573  0.0657  0.5898
 2613TIP3    H129254   2.013   6.481  11.309 -0.1109  0.6841  1.6916
 2613TIP3    H229255   2.146   6.519  11.371  0.9449 -0.2131  0.0345
 2614TIP3   OH229256   1.112   7.031  10.614 -0.0277  0.5473 -0.0518
 2614TIP3    H129257   1.070   7.078  10.685 -1.5173 -1.0821  0.1884
 2614TIP3    H229258   1.200   7.068  10.608  0.2793  0.3578  2.9453
 2615TIP3   OH229259   2.523   6.836  11.530  0.0897  0.6415  0.1821
 2615TIP3    H129260   2.429   6.848  11.543  0.0453 -1.1280  1.7439
 2615TIP3    H229261   2.535   6.741  11.522  1.6704  0.8824 -0.6388
 2616TIP3   OH229262   4.817   0.300  10.811 -0.2735 -0.2862  0.2069
 2616TIP3    H129263   4.887   0.357  10.842 -1.5247  2.2470 -1.4938
 2616TIP3    H229264   4.826   0.221  10.864  2.6339  0.7552  1.3634
 2617TIP3   OH229265   2.599   5.821  12.323 -0.1775  0.0328  0.1507
 2617TIP3    H129266   2.509   5.808  12.354 -1.1832  0.1046 -2.5500
 2617TIP3    H229267   2.607   5.916  12.313 -0.2499 -0.0557 -0.8127
 2618TIP3   OH229268   2.718   5.314  11.257 -0.2706  0.2310  0.4049
 2618TIP3    H129269   2.685   5.308  11.167  0.2892  2.2158  0.0326
 2618TIP3    H229270   2.745   5.225  11.278 -3.2722 -0.9166 -0.2532
 2619TIP3   OH229271   0.931   0.798  11.856  0.4501  0.1060 -0.4463
 2619TIP3    H129272   0.865   0.818  11.790 -1.4071  0.5376  1.4922
 2619TIP3    H229273   0.974   0.883  11.873 -0.2210  0.3427  0.1002
 2620TIP3   OH229274   2.844   1.488  10.661  0.2415 -0.2905  1.2979
 2620TIP3    H129275   2.876   1.452  10.578 -0.6906 -1.3316  1.3783
 2620TIP3    H229276   2.849   1.583  10.650  1.0447 -0.4281  0.4165
 2621TIP3   OH229277   3.321   6.327  10.992  0.3240 -0.0417  0.5004
 2621TIP3    H129278   3.283   6.240  10.978 -0.3230  0.5814 -1.6485
 2621TIP3    H229279   3.411   6.319  10.960 -0.5387  0.8034 -2.2453
 2622TIP3   OH229280   0.852   4.604  12.672 -0.2344 -0.1165  0.2371
 2622TIP3    H129281   0.907   4.575  12.745  0.3699 -0.4382 -0.3420
 2622TIP3    H229282   0.769   4.558  12.685 -0.4202  0.4754  1.1948
 2623TIP3   OH229283   1.196   7.185  11.851  0.3949  0.1564  0.0557
 2623TIP3    H129284   1.258   7.189  11.779  1.1844 -0.9789  0.6601
 2623TIP3    H229285   1.226   7.252  11.913  0.1946  0.5682 -0.2934
 2624TIP3   OH229286   4.289   0.277  11.665 -0.3450 -0.0925  0.2058
 2624TIP3    H129287   4.297   0.371  11.652 -1.3603 -0.1720 -1.0608
 2624TIP3    H229288   4.198   0.257  11.646 -0.0387 -1.3940  0.0374
 2625TIP3   OH229289   1.841   7.128  12.339 -0.0431  0.0248  0.6398
 2625TIP3    H129290   1.785   7.055  12.314  0.5069 -0.2164  0.0978
 2625TIP3    H229291   1.789   7.206  12.318  0.5001 -0.1743 -1.5127
 2626TIP3   OH229292   2.665   3.442  12.625  0.7508 -0.6649 -0.2777
 2626TIP3    H129293   2.735   3.426  12.562  0.8744  0.6550 -0.5000
 2626TIP3    H229294   2.693   3.397  12.704  1.3513 -1.0233 -0.6901
 2627TIP3   OH229295   1.779   4.980  12.938 -0.0290  0.4494  0.0018
 2627TIP3    H129296   1.759   5.070  12.963 -0.4075  0.3463  0.0735
 2627TIP3    H229297   1.874   4.978  12.930  0.0647  0.5980  0.9870
 2628TIP3   OH229298   4.683   0.540  10.495  0.2909 -0.1810  0.2019
 2628TIP3    H129299   4.650   0.498  10.415  1.1605 -0.0043 -0.2593
 2628TIP3    H229300   4.611   0.533  10.557 -0.7556  0.5290 -0.8969
 2629TIP3   OH229301   3.902   3.434  11.801  0.3054 -0.0722  0.4185
 2629TIP3    H129302   3.942   3.378  11.735  0.7686  0.1224  0.5336
 2629TIP3    H229303   3.901   3.381  11.880 -2.1984 -1.0874 -0.2545
 2630TIP3   OH229304   1.840   6.954  10.447 -0.0794  0.3470 -0.1918
 2630TIP3    H129305   1.784   6.998  10.511  1.1927  1.2669  0.2951
 2630TIP3    H229306   1.778   6.912  10.386 -1.2950  1.6944  0.0990
 2631TIP3   OH229307   1.038   6.613  12.413  0.4314  0.4274 -0.1465
 2631TIP3    H129308   1.015   6.590  12.503 -0.5356  2.2675  0.1044
 2631TIP3    H229309   1.128   6.583  12.403  0.3150 -0.4161  1.2070
 2632TIP3   OH229310   7.277   5.039   9.658  0.0282 -0.5167  0.0247
 2632TIP3    H129311   7.334   5.101   9.704 -1.3743  0.5671  0.3548
 2632TIP3    H229312   7.333   4.999   9.592  1.6654 -0.9286  1.6399
 2633TIP3   OH229313   2.791   4.471  13.799  0.0420 -0.4001  0.3051
 2633TIP3    H129314   2.801   4.421  13.881 -0.6547  0.3728  0.8717
 2633TIP3    H229315   2.718   4.428  13.754 -0.7416  0.2815  0.9224
 2634TIP3   OH229316   1.435   3.932  10.370 -0.0693  0.2142  0.1117
 2634TIP3    H129317   1.395   3.868  10.428 -0.7492 -0.2525 -0.8521
 2634TIP3    H229318   1.529   3.915  10.378 -0.1264  0.5103  1.4655
 2635TIP3   OH229319   4.078   3.935  10.786  0.2513  0.4385  0.8444
 2635TIP3    H129320   3.997   3.937  10.837  0.8900  0.7088  1.8650
 2635TIP3    H229321   4.075   3.851  10.740 -1.0070  0.8132  0.2001
 2636TIP3   OH229322   1.077   5.804  12.888 -0.4216 -0.2967  0.1341
 2636TIP3    H129323   1.040   5.879  12.841  1.5870 -0.2791 -1.4827
 2636TIP3    H229324   1.042   5.728  12.843 -0.2158 -0.2950 -0.0316
 2637TIP3   OH229325   3.092   5.034  11.137 -0.3287 -0.8522 -0.5011
 2637TIP3    H129326   3.150   5.108  11.118 -1.9896  0.4727 -0.5805
 2637TIP3    H229327   3.150   4.959  11.145  1.6255  0.8104  1.6663
 2638TIP3   OH229328   1.643   6.803  13.664  0.3709  0.1948 -0.3653
 2638TIP3    H129329   1.648   6.718  13.708  0.1978  1.4541  2.1993
 2638TIP3    H229330   1.655   6.783  13.572 -1.7137 -2.8652 -0.0691
 2639TIP3   OH229331   1.384   4.833  13.632  0.6631 -0.7765  0.0873
 2639TIP3    H129332   1.368   4.828  13.538  2.0515  0.4281 -0.2395
 2639TIP3    H229333   1.301   4.864  13.670 -0.1657 -2.1089 -0.6324
 2640TIP3   OH229334   7.160   6.186  11.782  0.9558  0.4442  0.0068
 2640TIP3    H129335   7.070   6.182  11.813  1.1247  0.3002  0.4811
 2640TIP3    H229336   7.153   6.172  11.688  0.4280  1.0497 -0.0492
 2641TIP3   OH229337   4.296   0.078  15.005 -0.4337  0.1394  0.3850
 2641TIP3    H129338   4.318   0.025  15.082 -1.6232  0.0265  0.6492
 2641TIP3    H229339   4.381   0.101  14.968  0.1318 -0.6585  1.1501
 2642TIP3   OH229340   3.470   6.875  10.340 -0.5166 -0.0054  0.0340
 2642TIP3    H129341   3.533   6.916  10.400 -1.2779  0.9553  0.1964
 2642TIP3    H229342   3.523   6.841  10.269  0.2252  0.5315  0.3258
 2643TIP3   OH229343   4.263   0.656  12.382 -0.2941 -0.1641  0.1134
 2643TIP3    H129344   4.214   0.621  12.456 -1.2856 -2.0370 -1.4083
 2643TIP3    H229345   4.196   0.684  12.320  0.5129 -3.5750 -2.3691
 2644TIP3   OH229346   3.945   2.785  10.967  0.5348 -0.0147  0.2308
 2644TIP3    H129347   3.972   2.758  10.879 -0.9021  1.4775 -0.6939
 2644TIP3    H229348   3.863   2.739  10.982 -0.6750  1.9204 -0.3687
 2645TIP3   OH229349   4.395   7.050  13.172  0.3396  0.1135  0.1127
 2645TIP3    H129350   4.426   6.963  13.198 -0.2951 -0.2846 -0.4605
 2645TIP3    H229351   4.351   7.036  13.088  2.2873  1.3709 -1.1628
 2646TIP3   OH229352   2.089   0.013  11.977  0.1185 -0.0238  0.0152
 2646TIP3    H129353   2.058  -0.002  12.067  1.4245  1.0302  0.6726
 2646TIP3    H229354   2.023  -0.028  11.921 -1.5061  0.6111  1.4096
 2647TIP3   OH229355   6.272   3.966  13.441 -0.0060  1.2742  0.0531
 2647TIP3    H129356   6.301   4.056  13.424  0.2547  0.7569 -2.3789
 2647TIP3    H229357   6.346   3.925  13.485 -0.5938  2.5747  2.3522
 2648TIP3   OH229358   1.655   5.483  14.269  0.4173  0.0398 -0.3781
 2648TIP3    H129359   1.576   5.534  14.254  0.3668 -0.5902 -2.4238
 2648TIP3    H229360   1.662   5.426  14.193  2.2433 -0.7060  0.3024
 2649TIP3   OH229361   7.204   4.631  10.396 -0.4245  0.1141  0.7318
 2649TIP3    H129362   7.223   4.707  10.342 -0.1166  0.0722  0.7790
 2649TIP3    H229363   7.226   4.659  10.485 -0.8115  0.1425  0.8185
 2650TIP3   OH229364   1.800   4.165  10.838 -0.0507  0.3354  0.0206
 2650TIP3    H129365   1.883   4.129  10.871  2.2403  2.6358 -2.9380
 2650TIP3    H229366   1.775   4.105  10.767 -0.0336  0.5595 -0.1758
 2651TIP3   OH229367   1.399   4.234  10.773 -0.2878  0.2310  0.3082
 2651TIP3    H129368   1.444   4.311  10.809  1.9127 -0.2002 -1.3557
 2651TIP3    H229369   1.372   4.184  10.850 -0.0643  1.7270  1.3938
 2652TIP3   OH229370   6.627   0.324  12.694 -0.4194  0.1969 -0.4204
 2652TIP3    H129371   6.667   0.251  12.647 -0.7499 -2.7881  3.6739
 2652TIP3    H229372   6.549   0.346  12.643  0.5931 -1.1452 -2.6245
 2653TIP3   OH229373   0.558   5.049  11.549  0.1556 -0.2546 -0.3907
 2653TIP3    H129374   0.590   5.098  11.473  0.3406 -1.2101 -0.9338
 2653TIP3    H229375   0.466   5.032  11.529  0.6668 -2.0939 -1.2502
 2654TIP3   OH229376   7.141   4.937  12.045 -0.4152  1.0048  0.2017
 2654TIP3    H129377   7.084   5.001  12.087 -0.5385  2.0792 -1.5947
 2654TIP3    H229378   7.087   4.858  12.038 -0.5479  0.9492  1.5969
 2655TIP3   OH229379   6.559   7.052  11.602 -0.4002 -0.4819 -0.6762
 2655TIP3    H129380   6.470   7.064  11.567 -0.5919  1.3818  0.3928
 2655TIP3    H229381   6.550   6.981  11.665 -1.6635  1.2236  1.1370
 2656TIP3   OH229382   2.604   0.320  12.137  0.0985 -0.1845 -0.0547
 2656TIP3    H129383   2.621   0.242  12.084 -1.8270 -0.2403 -0.6217
 2656TIP3    H229384   2.597   0.392  12.073 -0.6573  0.0134  0.2444
 2657TIP3   OH229385   6.685   4.423  11.906 -0.2698  0.1919 -0.2478
 2657TIP3    H129386   6.607   4.431  11.961  0.2982  1.6336  0.3444
 2657TIP3    H229387   6.710   4.513  11.885  0.6262 -0.2902 -1.3063
 2658TIP3   OH229388   6.247   4.068  11.586 -0.2444  0.0764  0.1087
 2658TIP3    H129389   6.334   4.069  11.626 -0.0956 -1.6664 -0.1461
 2658TIP3    H229390   6.201   4.140  11.628 -0.0534 -1.6038  3.3577
 2659TIP3   OH229391   6.090   3.941  10.541 -1.6954  0.0648  0.0531
 2659TIP3    H129392   6.084   3.949  10.446  1.1237 -3.1380 -0.4492
 2659TIP3    H229393   6.040   3.862  10.561 -0.1619 -0.6809  0.9438
 2660TIP3   OH229394   0.230   5.366  12.884  0.1406 -0.2066  0.0993
 2660TIP3    H129395   0.247   5.441  12.827 -0.5844  1.1041  1.5802
 2660TIP3    H229396   0.178   5.306  12.830 -0.4508  0.9665 -0.6509
 2661TIP3   OH229397   2.867   5.610  10.488  0.0536 -0.4543 -0.2798
 2661TIP3    H129398   2.912   5.535  10.449  0.0570 -1.6071  1.8681
 2661TIP3    H229399   2.776   5.601  10.459  0.3734 -0.3611 -1.3437
 2662TIP3   OH229400   6.017   6.032  11.806 -0.6094 -0.1941  0.3954
 2662TIP3    H129401   6.056   5.991  11.729 -0.1926 -0.1652  0.5919
 2662TIP3    H229402   6.082   6.096  11.835 -1.2457  0.5991  0.0995
 2663TIP3   OH229403   6.784   2.827  11.356  0.0732 -0.4191 -0.3297
 2663TIP3    H129404   6.838   2.751  11.379  0.6488 -0.0072 -0.3053
 2663TIP3    H229405   6.827   2.901  11.399 -1.0152 -0.2100  0.4208
 2664TIP3   OH229406   2.156   6.710  10.877  0.4621  0.2839 -0.2900
 2664TIP3    H129407   2.177   6.800  10.901 -0.3119  0.3194  0.2767
 2664TIP3    H229408   2.176   6.705  10.783  2.6974  0.3786  0.1602
 2665TIP3   OH229409   1.905   6.168  10.385  0.2035  0.3469  0.0526
 2665TIP3    H129410   1.841   6.239  10.385 -1.5620 -1.1966  1.0741
 2665TIP3    H229411   1.872   6.106  10.320  1.3551  0.1242 -0.3268
 2666TIP3   OH229412   0.713   6.019  10.964  0.4187 -0.5017 -0.7343
 2666TIP3    H129413   0.648   6.049  11.027 -0.3602  0.6689 -2.0544
 2666TIP3    H229414   0.744   5.936  10.998  1.5599  1.0898  2.3103
 2667TIP3   OH229415   2.509   5.251  10.763  0.0208  0.1892  0.1139
 2667TIP3    H129416   2.539   5.161  10.749 -1.1971 -0.6274  2.6046
 2667TIP3    H229417   2.583   5.295  10.804 -0.4267 -0.4765  1.6330
 2668TIP3   OH229418   1.048   5.525   9.947  0.5909  0.2725 -0.3603
 2668TIP3    H129419   0.958   5.496   9.933  0.3454  1.4712 -1.3336
 2668TIP3    H229420   1.089   5.453   9.995 -1.0623  0.0039  0.6773
 2669TIP3   OH229421   2.451   7.076  13.216  0.3684  0.0418  0.4833
 2669TIP3    H129422   2.416   7.165  13.218 -0.2804 -0.2114  0.4493
 2669TIP3    H229423   2.402   7.029  13.284  0.6901 -0.2961  0.4860
 2670TIP3   OH229424   6.413   5.811  13.302  0.3855 -0.2856  0.1285
 2670TIP3    H129425   6.508   5.813  13.315  0.5941  1.9888 -1.4076
 2670TIP3    H229426   6.396   5.728  13.256  2.0441  0.6628 -2.2980
 2671TIP3   OH229427   2.414   2.152  10.021 -0.4238  0.1768 -0.2278
 2671TIP3    H129428   2.350   2.216   9.990 -0.2184 -0.4049 -1.8784
 2671TIP3    H229429   2.453   2.115   9.942  1.8525  0.4005  0.7429
 2672TIP3   OH229430   0.642   4.871  10.182 -0.2061 -0.3405 -0.2109
 2672TIP3    H129431   0.584   4.944  10.161 -0.1367 -0.2910 -0.2294
 2672TIP3    H229432   0.726   4.896  10.144  0.2980  0.3982  1.3339
 2673TIP3   OH229433   3.828   7.154   0.783  0.6594 -0.3013 -0.1007
 2673TIP3    H129434   3.743   7.111   0.774  0.2368  0.5330 -0.1814
 2673TIP3    H229435   3.868   7.112   0.859 -0.6684  0.6536  1.1631
 2674TIP3   OH229436   1.483   2.870  11.399  0.2147  0.0902 -0.0257
 2674TIP3    H129437   1.472   2.819  11.319 -1.5019 -0.2587  0.4178
 2674TIP3    H229438   1.427   2.947  11.386  0.7360  0.5441  0.4083
 2675TIP3   OH229439   6.565   0.339  11.288  0.9733  0.1910  0.7293
 2675TIP3    H129440   6.562   0.251  11.251  0.2959  0.2024  0.7649
 2675TIP3    H229441   6.633   0.334  11.355  1.2557 -0.1828  0.4205
 2676TIP3   OH229442   7.299   6.811  10.088  0.8561 -0.7908  0.0166
 2676TIP3    H129443   7.282   6.794   9.995  1.2692  0.2876 -0.2680
 2676TIP3    H229444   7.227   6.768  10.134 -1.0623  1.2283 -0.9881
 2677TIP3   OH229445   4.483   5.270  11.379 -0.1856 -0.2736  0.0795
 2677TIP3    H129446   4.530   5.217  11.314  0.2902 -0.5743  0.6675
 2677TIP3    H229447   4.451   5.206  11.443  1.9216  0.2903  1.7643
 2678TIP3   OH229448   0.542   6.947  12.492  0.0782 -0.2891  0.1603
 2678TIP3    H129449   0.622   6.978  12.534 -0.5619 -0.5704  1.6296
 2678TIP3    H229450   0.475   6.952  12.561 -1.7552  2.2798 -1.6875
 2679TIP3   OH229451   3.023   6.020  12.405  0.5140 -0.6756  0.3492
 2679TIP3    H129452   2.982   6.088  12.457  1.6700  0.9260 -0.7882
 2679TIP3    H229453   2.957   5.951  12.398 -0.6533  0.3116  1.5380
 2680TIP3   OH229454   2.542   0.503  11.960 -0.0706  0.1045 -0.1525
 2680TIP3    H129455   2.507   0.502  11.871  0.9206 -1.5631 -0.5644
 2680TIP3    H229456   2.619   0.560  11.955 -0.2619  0.3548 -0.2567
 2681TIP3   OH229457   2.819   4.509  11.987  0.2125  0.9796  0.4038
 2681TIP3    H129458   2.835   4.441  12.052 -0.1948  0.5265  0.0307
 2681TIP3    H229459   2.755   4.471  11.927  1.1165  1.1297 -0.6714
 2682TIP3   OH229460   0.040   6.308  12.733  0.6067 -0.3544  0.7886
 2682TIP3    H129461   0.009   6.391  12.698  0.4162 -0.6266  0.3052
 2682TIP3    H229462   0.070   6.259  12.656 -0.4769 -1.2357  0.9157
 2683TIP3   OH229463   5.194   1.783  10.890  0.7418  0.2036 -0.0807
 2683TIP3    H129464   5.167   1.717  10.827 -0.2065 -1.8278  2.3287
 2683TIP3    H229465   5.281   1.811  10.860  0.6533 -1.2965 -1.8061
 2684TIP3   OH229466   3.302   4.118  10.592 -0.5089 -0.3681  0.3631
 2684TIP3    H129467   3.294   4.157  10.504 -2.0790 -1.4176  0.0175
 2684TIP3    H229468   3.235   4.162  10.644  0.6660  0.5181  1.1673
 2685TIP3   OH229469   6.233   6.933  13.596  0.9943 -0.3121 -0.2421
 2685TIP3    H129470   6.302   6.957  13.658 -0.1202  1.3496  0.3854
 2685TIP3    H229471   6.237   7.002  13.529 -0.1083 -0.1752 -0.1642
 2686TIP3   OH229472   5.327   0.091  11.956 -0.1257  0.2659  0.0137
 2686TIP3    H129473   5.327   0.124  12.045  3.2012  0.9098 -0.1858
 2686TIP3    H229474   5.404   0.130  11.915 -0.4099 -1.6720 -2.5141
 2687TIP3   OH229475   1.816   6.310  11.581 -0.1419 -0.0003 -0.1943
 2687TIP3    H129476   1.902   6.318  11.539 -0.4833  0.6334 -0.7757
 2687TIP3    H229477   1.827   6.354  11.666  0.5543 -1.3032  0.4064
 2688TIP3   OH229478   5.821   6.499  13.906 -0.3406  0.2804  0.0186
 2688TIP3    H129479   5.822   6.573  13.966 -0.6086  0.9176 -0.7596
 2688TIP3    H229480   5.888   6.520  13.840 -0.2862 -0.2507 -0.1020
 2689TIP3   OH229481   3.149   5.981  12.180  0.2097 -0.1878  0.2419
 2689TIP3    H129482   3.223   6.042  12.181  1.7224 -1.9785  1.1983
 2689TIP3    H229483   3.116   5.981  12.270 -0.2240 -0.2767  0.0878
 2690TIP3   OH229484   4.901   6.307  12.646 -0.1735  0.1607 -0.2632
 2690TIP3    H129485   4.954   6.229  12.659 -0.9520 -0.1295  1.2548
 2690TIP3    H229486   4.962   6.371  12.609  0.3187 -1.3380 -2.1280
 2691TIP3   OH229487   5.829   5.182  12.060  0.6084 -0.2087  0.4097
 2691TIP3    H129488   5.878   5.111  12.019 -2.7887 -1.6382 -1.4192
 2691TIP3    H229489   5.835   5.255  11.998 -2.4696 -1.5804 -1.6842
 2692TIP3   OH229490   3.002   6.016  10.735  0.5486 -0.2071  0.0010
 2692TIP3    H129491   3.081   6.069  10.747  0.0780  0.7753 -1.2300
 2692TIP3    H229492   3.030   5.943  10.679  0.9289 -0.6765  0.7914
 2693TIP3   OH229493   6.460   6.375  11.300 -0.1918  0.2139  0.5532
 2693TIP3    H129494   6.412   6.392  11.218  1.9960 -0.0980 -0.8232
 2693TIP3    H229495   6.458   6.280  11.310 -0.0610  0.2193  0.6291
 2694TIP3   OH229496   2.096   5.008  11.475 -0.8118 -0.4212 -0.1695
 2694TIP3    H129497   2.074   5.082  11.418  2.2662 -0.4785 -1.5430
 2694TIP3    H229498   2.075   4.930  11.422 -1.1645 -0.4999  0.0869
 2695TIP3   OH229499   4.055   3.621  14.513 -0.1549 -0.1894 -0.1291
 2695TIP3    H129500   4.064   3.714  14.535  0.9618  0.1344 -1.8237
 2695TIP3    H229501   3.990   3.588  14.575 -0.4523  1.6840  0.6042
 2696TIP3   OH229502   4.067   6.894  10.056  0.7638  0.3424 -0.4865
 2696TIP3    H129503   4.145   6.900  10.001  1.0542  0.8757 -0.0217
 2696TIP3    H229504   4.007   6.837  10.007  2.0130 -1.2719 -0.1607
 2697TIP3   OH229505   2.473   7.263  11.265  0.2476 -0.9608 -0.4906
 2697TIP3    H129506   2.452   7.188  11.322  1.8171  0.3588  1.9228
 2697TIP3    H229507   2.522   7.225  11.192  0.7802 -2.3267  0.5505
 2698TIP3   OH229508   2.871   2.820  12.134 -0.4051  0.4549  0.0130
 2698TIP3    H129509   2.900   2.911  12.132 -0.7041  0.5717  0.7474
 2698TIP3    H229510   2.949   2.769  12.112 -0.4985  0.9402 -1.4717
 2699TIP3   OH229511   3.930   5.668  11.704  0.2982 -0.4538 -0.1527
 2699TIP3    H129512   3.908   5.607  11.633 -0.6290 -1.6725  1.1523
 2699TIP3    H229513   3.927   5.614  11.783  2.4061  0.6388  0.7122
 2700TIP3   OH229514   2.035   1.159  13.289 -0.2653 -0.2455  0.0726
 2700TIP3    H129515   2.014   1.083  13.345 -1.2277 -0.0043  0.0398
 2700TIP3    H229516   2.052   1.121  13.203  0.0712 -0.5078  0.2529
 2701TIP3   OH229517   5.052   1.360  13.257 -0.4095 -0.1568  0.2922
 2701TIP3    H129518   4.997   1.438  13.264 -0.2635  0.0336 -0.6543
 2701TIP3    H229519   5.030   1.322  13.172  1.8287  0.6449 -0.6825
 2702TIP3   OH229520   5.742   7.210  10.138  0.4767  0.2756 -0.0434
 2702TIP3    H129521   5.815   7.261  10.104 -1.0119  1.2350 -1.9387
 2702TIP3    H229522   5.718   7.151  10.066 -1.5487  1.0223 -0.0234
 2703TIP3   OH229523   3.627   5.608  11.564  0.9473 -0.0384 -0.0813
 2703TIP3    H129524   3.674   5.540  11.516 -0.5903 -0.0404 -1.6142
 2703TIP3    H229525   3.567   5.646  11.500  1.0726  2.1032  1.0053
 2704TIP3   OH229526   3.612   6.447  11.236  1.4057 -0.6642  0.2581
 2704TIP3    H129527   3.683   6.479  11.180  1.7919 -1.2483  0.4126
 2704TIP3    H229528   3.633   6.355  11.252  1.5162 -0.4153  1.6747
 2705TIP3   OH229529   4.537   7.229  12.426  0.1634 -0.0020  0.1952
 2705TIP3    H129530   4.578   7.201  12.344  1.8465  1.0124  0.6673
 2705TIP3    H229531   4.448   7.252  12.401  0.0046 -1.7106 -0.9537
 2706TIP3   OH229532   5.222   7.026  13.274 -0.0656 -0.2308  0.1915
 2706TIP3    H129533   5.266   6.978  13.344 -0.7012 -0.5247  0.3927
 2706TIP3    H229534   5.186   7.104  13.317  1.2073  0.5788 -0.1877
 2707TIP3   OH229535   3.202   0.729  12.815  1.1426 -0.8650  0.3663
 2707TIP3    H129536   3.175   0.703  12.726 -0.7259 -0.6667  0.8552
 2707TIP3    H229537   3.218   0.646  12.860  1.3692 -0.9869  0.0642
 2708TIP3   OH229538   2.499   2.892  13.934 -0.3530  0.3441  0.1075
 2708TIP3    H129539   2.524   2.909  14.024 -0.4007  0.3624  0.1171
 2708TIP3    H229540   2.573   2.923  13.882 -0.7738  1.3065  0.0721
 2709TIP3   OH229541   0.403   6.425  13.723 -0.7578  0.1768 -0.3644
 2709TIP3    H129542   0.478   6.446  13.669 -0.1479  0.7520  0.6932
 2709TIP3    H229543   0.332   6.408  13.660  0.3364 -0.7484 -1.3662
 2710TIP3   OH229544   3.399   6.326  15.772  0.4615  0.5155 -0.8548
 2710TIP3    H129545   3.354   6.409  15.791  0.4378  0.7198 -1.7560
 2710TIP3    H229546   3.491   6.350  15.763  0.5429  0.3411 -0.4777
 2711TIP3   OH229547   5.783   6.122  12.230  0.3590  0.0874  0.4624
 2711TIP3    H129548   5.806   6.175  12.306 -0.6233  0.4206  0.5320
 2711TIP3    H229549   5.724   6.177  12.178 -0.4019 -0.7952  0.3691
 2712TIP3   OH229550   3.571   7.258  12.543  0.9347  0.1468  0.3400
 2712TIP3    H129551   3.570   7.193  12.473 -1.4761 -2.1476  2.3683
 2712TIP3    H229552   3.522   7.332  12.509 -0.8140 -1.2294 -0.1675
 2713TIP3   OH229553   3.202   0.238  12.353 -0.7890  0.4227 -0.0992
 2713TIP3    H129554   3.181   0.203  12.440 -1.6844 -0.1882 -0.5495
 2713TIP3    H229555   3.118   0.241  12.308 -0.1456 -0.5203 -1.4022
 2714TIP3   OH229556   4.983   5.857  12.239  0.2100 -0.8994 -0.6602
 2714TIP3    H129557   5.006   5.775  12.196 -1.1112 -2.4823  1.5203
 2714TIP3    H229558   4.899   5.882  12.201 -0.1984 -1.4699 -0.1479
 2715TIP3   OH229559   1.729   6.381  10.361 -0.1703  0.1880  0.4162
 2715TIP3    H129560   1.779   6.417  10.288 -0.9878  0.6873  0.0971
 2715TIP3    H229561   1.707   6.457  10.415 -0.1186 -0.0984  0.8419
 2716TIP3   OH229562   2.168   6.667  11.522  0.1525 -0.4128 -0.4755
 2716TIP3    H129563   2.211   6.733  11.576 -2.3459 -0.4674  1.7113
 2716TIP3    H229564   2.115   6.718  11.460 -1.8312 -0.2702  1.2583
 2717TIP3   OH229565   0.963   0.971  12.473 -0.3539 -0.1097 -0.0661
 2717TIP3    H129566   0.913   0.908  12.526  0.6448 -0.4016  0.5389
 2717TIP3    H229567   1.037   0.995  12.528 -1.4525  2.6807  0.2619
 2718TIP3   OH229568   5.197   6.616  11.060 -0.2347 -0.6328  0.1466
 2718TIP3    H129569   5.277   6.639  11.108  0.3076 -0.2292 -0.9235
 2718TIP3    H229570   5.182   6.524  11.082  0.6980 -0.7996  0.1213
 2719TIP3   OH229571   2.549   6.540  11.499 -0.1369 -0.3546 -0.5382
 2719TIP3    H129572   2.520   6.454  11.468  1.0611 -1.1078  0.3968
 2719TIP3    H229573   2.642   6.529  11.518 -0.2751  0.7964  0.8745
 2720TIP3   OH229574   3.761   5.528  11.245 -0.4574 -0.7836 -0.3508
 2720TIP3    H129575   3.708   5.580  11.184 -0.1074  0.9772  0.8156
 2720TIP3    H229576   3.800   5.460  11.190 -1.6531 -0.3789 -1.7433
 2721TIP3   OH229577   1.374   4.835  12.184 -0.3043  0.1075  0.1496
 2721TIP3    H129578   1.393   4.817  12.276  0.1749 -2.2417 -0.3705
 2721TIP3    H229579   1.380   4.749  12.142  2.1934  1.5388 -2.5576
 2722TIP3   OH229580   1.808   0.279  11.718 -0.0688 -0.6936 -0.1031
 2722TIP3    H129581   1.771   0.281  11.806 -0.5231 -0.4784 -0.2976
 2722TIP3    H229582   1.903   0.282  11.732 -0.1715  0.8157  0.3263
 2723TIP3   OH229583   3.651   0.774  14.712  0.1981  0.6018 -0.3770
 2723TIP3    H129584   3.577   0.772  14.772  0.8541 -0.9779  0.4158
 2723TIP3    H229585   3.612   0.776  14.625 -0.7689  0.3395  0.0487
 2724TIP3   OH229586   6.582   5.333  12.477 -0.1440  0.0308  0.5293
 2724TIP3    H129587   6.486   5.330  12.486 -0.3222  0.1480 -1.0804
 2724TIP3    H229588   6.615   5.329  12.567 -1.6337 -0.9705  1.0566
 2725TIP3   OH229589   3.436   2.532  13.673  0.0695 -0.0138  0.5504
 2725TIP3    H129590   3.409   2.457  13.620  0.1663 -0.5196  1.2076
 2725TIP3    H229591   3.530   2.520  13.686  0.3940  1.1026 -0.7189
 2726TIP3   OH229592   2.975   0.862  13.068 -0.4244  0.3180  0.0260
 2726TIP3    H129593   2.924   0.902  13.139 -2.9049 -1.6401 -0.5904
 2726TIP3    H229594   3.038   0.805  13.113  0.0578  1.3947  0.7373
 2727TIP3   OH229595   2.130   7.278  10.219 -0.3769 -0.0435 -0.4315
 2727TIP3    H129596   2.043   7.303  10.189 -0.5440 -1.6461 -1.3843
 2727TIP3    H229597   2.186   7.353  10.198 -1.4277  0.8097 -0.2229
 2728TIP3   OH229598   2.797   6.770  11.894 -0.3118 -0.9276  0.2435
 2728TIP3    H129599   2.869   6.792  11.953  0.9880 -2.2739 -0.8030
 2728TIP3    H229600   2.829   6.694  11.845 -1.9394 -0.7305 -1.1513
 2729TIP3   OH229601   4.499   3.587  11.083  0.2593  0.0590  0.6078
 2729TIP3    H129602   4.475   3.596  10.991  0.2138  1.0590  0.7191
 2729TIP3    H229603   4.579   3.638  11.093 -1.8032  3.1665  1.9594
 2730TIP3   OH229604   6.538   6.102  10.357 -0.1502 -0.0428 -0.8814
 2730TIP3    H129605   6.457   6.154  10.361 -0.3672 -0.2102 -2.8718
 2730TIP3    H229606   6.582   6.132  10.278  0.5110 -1.7734 -1.1905
 2731TIP3   OH229607   1.426   4.964  11.191  0.2317  0.3509  0.0806
 2731TIP3    H129608   1.374   5.009  11.258  1.1802  0.7741  0.5332
 2731TIP3    H229609   1.361   4.924  11.134 -0.6649  3.0247 -0.8545
 2732TIP3   OH229610   2.130   5.768  10.070 -0.2106  0.6395 -0.2964
 2732TIP3    H129611   2.171   5.714  10.003 -0.3791  1.0015 -0.6912
 2732TIP3    H229612   2.176   5.852  10.065  0.2477  0.4380  0.5148
 2733TIP3   OH229613   3.650   1.308  13.041 -0.1525  0.3611 -0.0334
 2733TIP3    H129614   3.662   1.358  12.960 -1.1233  0.3288 -0.2019
 2733TIP3    H229615   3.592   1.237  13.017  2.7735 -2.0463 -0.2700
 2734TIP3   OH229616   2.406   4.416  11.965 -0.2945 -0.3950  0.2914
 2734TIP3    H129617   2.352   4.427  12.043  0.7785  1.8184  0.7752
 2734TIP3    H229618   2.433   4.505  11.942  0.3740 -1.1321 -1.9135
 2735TIP3   OH229619   2.258   4.929   9.551  1.1227  0.0347  0.6308
 2735TIP3    H129620   2.164   4.942   9.544  1.2409  0.6857  0.1698
 2735TIP3    H229621   2.288   5.002   9.606  1.4723  0.3642  0.0154
 2736TIP3   OH229622   2.644   6.601  11.171  0.5545  0.2302  0.0807
 2736TIP3    H129623   2.658   6.623  11.079  1.8182  0.3648  0.3028
 2736TIP3    H229624   2.600   6.678  11.207  0.6435  0.4453 -0.2592
 2737TIP3   OH229625   0.023   0.308  10.577 -0.3683  0.0595  0.8831
 2737TIP3    H129626   0.080   0.333  10.505  0.2447  1.6537  1.8954
 2737TIP3    H229627   0.011   0.213  10.566  1.1685 -0.0232 -0.2605
 2738TIP3   OH229628   5.297   6.292  11.445  0.0896  0.4255  0.8581
 2738TIP3    H129629   5.303   6.378  11.486  0.8548  0.3350  0.9603
 2738TIP3    H229630   5.330   6.232  11.513 -0.4480  0.0578  0.7903
 2739TIP3   OH229631   3.895   5.761  12.286  0.2837  0.7742 -0.4213
 2739TIP3    H129632   3.961   5.704  12.248 -1.7167 -1.4903 -0.6422
 2739TIP3    H229633   3.842   5.789  12.211  1.0529  2.7029 -0.2730
 2740TIP3   OH229634   0.856   4.614  10.646 -0.0983  0.5982 -0.2535
 2740TIP3    H129635   0.886   4.672  10.716  0.3809  0.8144 -0.6343
 2740TIP3    H229636   0.936   4.587  10.602 -0.2672 -0.8100  0.2664
 2741TIP3   OH229637   2.355   2.376  11.120 -0.2745  0.3742 -0.0310
 2741TIP3    H129638   2.428   2.405  11.174 -1.2198 -0.5716  1.7962
 2741TIP3    H229639   2.299   2.453  11.112 -0.1615  0.4968  0.3831
 2742TIP3   OH229640   1.789   7.169  10.231  0.6196  0.3842  0.0469
 2742TIP3    H129641   1.856   7.103  10.248 -0.1213 -0.8445 -1.6672
 2742TIP3    H229642   1.838   7.248  10.210  1.5269 -0.1244  0.2157
 2743TIP3   OH229643   3.297   6.543  10.287 -0.2263 -1.0123  0.1914
 2743TIP3    H129644   3.224   6.493  10.251 -2.4504  2.0223  0.2818
 2743TIP3    H229645   3.345   6.574  10.210 -0.8306 -0.4491  0.0406
 2744TIP3   OH229646   1.789   6.528  14.523 -0.2240  0.0010  0.2844
 2744TIP3    H129647   1.806   6.618  14.495 -0.2973  0.0669  0.4486
 2744TIP3    H229648   1.763   6.482  14.443 -1.4860  0.4464  0.4251
 2745TIP3   OH229649   2.656   5.942  11.121 -0.6239 -0.1968  0.0714
 2745TIP3    H129650   2.646   5.854  11.084  1.5283 -1.1586  1.6810
 2745TIP3    H229651   2.697   5.993  11.051  0.5365 -1.1881  0.0040
 2746TIP3   OH229652   1.424   4.781  15.656 -0.0991 -0.5531 -0.5733
 2746TIP3    H129653   1.451   4.787  15.747 -0.0447  0.6934 -0.6576
 2746TIP3    H229654   1.346   4.726  15.657 -0.2959 -0.2634  0.2675
 2747TIP3   OH229655   5.453   6.684  11.384  0.5459  0.7090 -0.4478
 2747TIP3    H129656   5.365   6.689  11.347  0.3021  0.5422  0.0847
 2747TIP3    H229657   5.487   6.773  11.378  0.3927  0.7477 -0.7818
 2748TIP3   OH229658   1.723   6.517  11.066 -0.2191 -0.6991 -0.0161
 2748TIP3    H129659   1.658   6.587  11.071 -0.3172 -0.9090  1.7983
 2748TIP3    H229660   1.807   6.562  11.068 -0.2876 -0.5124 -1.0362
 2749TIP3   OH229661   5.840   5.827  11.077  0.0615  0.4639 -0.1236
 2749TIP3    H129662   5.858   5.921  11.075  2.3685  0.0617  0.2496
 2749TIP3    H229663   5.823   5.808  11.169  0.5680  0.3558 -0.0492
 2750TIP3   OH229664   5.867   2.443  12.264 -0.1439 -0.1585 -0.1274
 2750TIP3    H129665   5.775   2.459  12.286  0.1697 -0.2574  1.3522
 2750TIP3    H229666   5.881   2.491  12.183 -1.8084 -1.1255 -1.0027
 2751TIP3   OH229667   6.921   6.138  12.265  0.3750 -0.1864 -0.0676
 2751TIP3    H129668   6.877   6.074  12.321 -0.2913 -0.7040 -1.1712
 2751TIP3    H229669   6.978   6.085  12.209 -0.0946  0.2082 -0.9117
 2752TIP3   OH229670   1.797   0.760  12.495  0.2838  0.0819  0.1192
 2752TIP3    H129671   1.864   0.691  12.491  1.9619  1.7438 -1.3781
 2752TIP3    H229672   1.782   0.773  12.589  3.3535  0.8583  0.5721
 2753TIP3   OH229673   1.768   5.785  11.185  0.0889  0.7940 -0.2518
 2753TIP3    H129674   1.859   5.813  11.183  0.8329 -1.3850  1.4091
 2753TIP3    H229675   1.724   5.850  11.239  0.9476  1.0563  0.1403
 2754TIP3   OH229676   1.327   5.311  11.313 -0.6168 -0.1228 -0.2866
 2754TIP3    H129677   1.403   5.255  11.296  0.5623  1.3809 -0.0429
 2754TIP3    H229678   1.330   5.377  11.244 -0.5604  1.0871  0.8538
 2755TIP3   OH229679   4.872   6.570  12.223 -0.6700  0.2033 -0.6631
 2755TIP3    H129680   4.777   6.583  12.227 -0.8136 -0.8197 -0.4061
 2755TIP3    H229681   4.885   6.482  12.260  0.4015  0.4424 -0.4608
 2756TIP3   OH229682   2.479   3.940  10.571  0.0752 -0.0857  0.4155
 2756TIP3    H129683   2.443   3.883  10.639 -0.4162 -0.5463 -0.2316
 2756TIP3    H229684   2.518   3.881  10.507 -3.3462  0.0572 -1.9558
 2757TIP3   OH229685   2.822   7.038  10.328  0.3796 -0.1985  0.0620
 2757TIP3    H129686   2.812   6.947  10.300  0.7633 -0.7064  1.5423
 2757TIP3    H229687   2.909   7.042  10.368  0.0632  0.6258  0.6909
 2758TIP3   OH229688   1.201   3.776  11.990 -0.1848 -0.1141 -0.3593
 2758TIP3    H129689   1.222   3.816  12.074  1.3464  1.1885 -1.3489
 2758TIP3    H229690   1.203   3.681  12.008 -1.6868  0.1654  1.4694
 2759TIP3   OH229691   2.735   4.838  11.599 -0.6662 -0.5412  0.7392
 2759TIP3    H129692   2.819   4.802  11.573 -0.4764  0.3578  0.0701
 2759TIP3    H229693   2.749   4.874  11.687  1.1009  4.1976 -1.2980
 2760TIP3   OH229694   3.534   1.590  10.332  0.2088  0.0731 -0.3750
 2760TIP3    H129695   3.606   1.646  10.304  1.0162 -1.0491 -0.5791
 2760TIP3    H229696   3.468   1.598  10.263  1.1504 -0.7691 -1.3859
 2761TIP3   OH229697   1.802   6.446  10.044 -0.3410 -0.2150 -0.0068
 2761TIP3    H129698   1.761   6.490   9.970 -0.9791  1.6305  1.4054
 2761TIP3    H229699   1.800   6.353  10.020 -0.2761  0.3667 -2.3965
 2762TIP3   OH229700   0.929   3.452  11.569  0.0740  0.2480 -0.0727
 2762TIP3    H129701   0.885   3.482  11.648 -2.1789  0.6235 -1.4200
 2762TIP3    H229702   0.860   3.409  11.518  1.3360  0.5324 -2.0717
 2763TIP3   OH229703   5.660   5.118  10.533 -0.7179  0.2761 -0.5721
 2763TIP3    H129704   5.734   5.145  10.479  0.0707  0.0974  0.3964
 2763TIP3    H229705   5.699   5.059  10.599 -2.4043 -3.2485 -2.6293
 2764TIP3   OH229706   7.008   6.092  11.538 -0.3564 -0.0276 -0.3361
 2764TIP3    H129707   6.969   6.141  11.465 -0.7318  0.9784  0.5399
 2764TIP3    H229708   7.066   6.030  11.495 -1.5168 -0.2998 -1.5773
 2765TIP3   OH229709   0.914   0.708  12.106  0.0443  0.3285  0.1837
 2765TIP3    H129710   1.003   0.679  12.126  0.0370 -0.7655 -1.3284
 2765TIP3    H229711   0.923   0.758  12.025 -1.1397 -2.2733 -1.5979
 2766TIP3   OH229712   3.295   5.318  10.201  0.0698  0.2103 -0.5156
 2766TIP3    H129713   3.263   5.356  10.120 -0.5408 -0.8983 -0.8063
 2766TIP3    H229714   3.322   5.229  10.177  0.8764  0.2343  0.2746
 2767TIP3   OH229715   0.385   4.521  12.228  0.4632  0.4480  0.3804
 2767TIP3    H129716   0.460   4.509  12.169 -0.1720  0.9578 -0.5448
 2767TIP3    H229717   0.422   4.508  12.316  1.4227 -0.2930 -0.1203
 2768TIP3   OH229718   4.256   2.911  10.657  0.2060  0.1771 -0.0362
 2768TIP3    H129719   4.331   2.937  10.603  0.4331 -1.7420 -0.6760
 2768TIP3    H229720   4.294   2.856  10.726 -0.7106 -1.4300 -0.8067
 2769TIP3   OH229721   3.380   6.919  13.721  0.0150  0.4242 -0.5902
 2769TIP3    H129722   3.361   7.010  13.745 -1.9126  0.5190 -2.3489
 2769TIP3    H229723   3.449   6.926  13.655 -1.7145  0.7888 -2.4057
 2770TIP3   OH229724   3.096   6.729  11.762  0.3158 -0.0402 -0.0813
 2770TIP3    H129725   3.033   6.774  11.706  0.2654  3.3817  2.6192
 2770TIP3    H229726   3.174   6.718  11.706 -2.0905 -3.1700 -3.0175
 2771TIP3   OH229727   1.293   6.536  12.410 -0.0675  0.2207  0.2866
 2771TIP3    H129728   1.364   6.594  12.436  0.7033 -0.3421 -0.5376
 2771TIP3    H229729   1.320   6.502  12.325 -0.5133 -1.3481  0.7605
 2772TIP3   OH229730   2.290   2.913  12.969  0.9774 -0.7627  0.3959
 2772TIP3    H129731   2.376   2.905  12.927  1.2487  1.1858  0.5350
 2772TIP3    H229732   2.306   2.968  13.046 -0.8801  2.0644 -1.1402
 2773TIP3   OH229733   2.158   1.790  11.775  0.2558  0.4009 -0.4121
 2773TIP3    H129734   2.199   1.709  11.807  1.4700  1.2558  0.2125
 2773TIP3    H229735   2.065   1.768  11.768  0.5590 -1.0218 -0.1523
 2774TIP3   OH229736   2.164   3.617  13.947 -0.2757  0.1770  0.0380
 2774TIP3    H129737   2.133   3.535  13.908 -0.5621  0.4788 -0.3813
 2774TIP3    H229738   2.141   3.609  14.040 -0.2124 -0.2593  0.0170
 2775TIP3   OH229739   3.861   4.979  11.713  0.5609 -0.0961  0.4462
 2775TIP3    H129740   3.783   5.001  11.764  0.4161 -1.4111  0.8208
 2775TIP3    H229741   3.926   4.952  11.778  1.3038  0.9115  0.1313
 2776TIP3   OH229742   1.508   3.225  12.147  0.1580 -0.3936  0.5336
 2776TIP3    H129743   1.531   3.313  12.118 -1.6705  0.6530  2.1997
 2776TIP3    H229744   1.449   3.192  12.080  0.9318 -0.3898 -0.1511
 2777TIP3   OH229745   3.466   3.892  11.450 -0.6483  0.0279 -0.1401
 2777TIP3    H129746   3.469   3.798  11.467 -1.7203  0.0144  0.0287
 2777TIP3    H229747   3.553   3.914  11.418 -0.6789 -1.2034 -1.1035
 2778TIP3   OH229748   6.119   5.536  10.005  0.2795  0.2375 -0.1476
 2778TIP3    H129749   6.189   5.471  10.012  0.2145  0.1602 -0.2093
 2778TIP3    H229750   6.039   5.486  10.020  0.3087  0.5193  0.9727
 2779TIP3   OH229751   4.857   3.128  13.245 -0.2942  0.0562  0.0124
 2779TIP3    H129752   4.937   3.098  13.287 -1.3931 -1.0658  1.3803
 2779TIP3    H229753   4.838   3.213  13.286 -0.4691 -0.2609  0.5913
 2780TIP3   OH229754   5.204   4.493  12.774 -0.4649  0.3138 -0.0142
 2780TIP3    H129755   5.158   4.559  12.826 -1.4275 -0.2021 -0.1899
 2780TIP3    H229756   5.169   4.504  12.686  0.6112  0.6812 -0.4072
 2781TIP3   OH229757   6.850   4.812  10.727 -0.5263 -0.2404  0.1808
 2781TIP3    H129758   6.845   4.719  10.705 -1.4569 -0.1717  0.0863
 2781TIP3    H229759   6.846   4.814  10.823  2.4988 -0.4726  0.3636
 2782TIP3   OH229760   2.183   3.443  12.729 -0.2280  0.0310  0.4904
 2782TIP3    H129761   2.269   3.484  12.733 -0.4693  0.6599 -0.6340
 2782TIP3    H229762   2.187   3.372  12.793  0.9500  0.3835  0.8097
 2783TIP3   OH229763   3.985   6.617  11.986 -0.6753 -0.1830 -0.0386
 2783TIP3    H129764   4.004   6.682  12.054  0.9697  0.2028 -0.8576
 2783TIP3    H229765   4.070   6.578  11.966 -1.5002 -1.9168 -0.2540
 2784TIP3   OH229766   7.008   6.206  14.814 -0.1500  0.3273 -0.0331
 2784TIP3    H129767   7.021   6.232  14.723  2.4223  3.2987  1.0952
 2784TIP3    H229768   6.953   6.275  14.851  1.0276  0.5793  1.2998
 2785TIP3   OH229769   2.403   3.288  12.127  0.1310 -0.2254  0.3852
 2785TIP3    H129770   2.384   3.281  12.033 -2.2073 -1.8960  0.9353
 2785TIP3    H229771   2.490   3.328  12.131  0.0548  0.3381 -2.4794
 2786TIP3   OH229772   3.203   0.119  11.730  0.0300 -0.1027 -0.3319
 2786TIP3    H129773   3.170   0.063  11.800  2.2912 -1.3539 -0.1866
 2786TIP3    H229774   3.127   0.138  11.676 -1.6312  0.4143  2.1486
 2787TIP3   OH229775   3.651   5.946  11.822 -0.4344  0.3789  0.4940
 2787TIP3    H129776   3.655   5.852  11.805 -0.3549  0.6089 -0.8350
 2787TIP3    H229777   3.660   5.954  11.917  2.1671 -0.8028  0.4019
 2788TIP3   OH229778   1.778   3.465  11.833  0.3316  0.0341 -0.2219
 2788TIP3    H129779   1.826   3.527  11.889  3.2396 -1.4158 -0.9731
 2788TIP3    H229780   1.807   3.379  11.863 -3.1243 -0.9871  0.3388
 2789TIP3   OH229781   1.366   3.109  11.945 -0.1179 -0.2879  0.5067
 2789TIP3    H129782   1.357   3.067  11.860  1.0968  1.1052 -0.3384
 2789TIP3    H229783   1.277   3.111  11.981 -0.8813  0.4123 -1.3679
 2790TIP3   OH229784   5.897   6.520  12.562 -0.4043 -0.5889  0.1837
 2790TIP3    H129785   5.913   6.498  12.654 -0.9150 -0.7677  0.2304
 2790TIP3    H229786   5.981   6.504  12.519 -0.0475 -0.1160  0.6927
 2791TIP3   OH229787   2.361   6.926  13.496  0.2604  0.0454  0.5890
 2791TIP3    H129788   2.371   6.863  13.425 -0.3104  1.8031 -1.1043
 2791TIP3    H229789   2.266   6.934  13.508  0.3402  0.1796  1.1568
 2792TIP3   OH229790   5.020   5.784  13.949 -0.2350 -0.5075  0.4628
 2792TIP3    H129791   4.977   5.699  13.960  1.4899 -1.5423 -0.5180
 2792TIP3    H229792   5.043   5.811  14.038 -1.5186 -0.6715  0.8525
 2793TIP3   OH229793   4.644   5.375  13.435  0.0920  0.1595 -0.3468
 2793TIP3    H129794   4.624   5.383  13.528  2.2833  1.2210  0.0666
 2793TIP3    H229795   4.639   5.280  13.418  1.2201 -0.1982  1.2252
 2794TIP3   OH229796   3.834   6.577  13.334 -0.4004  0.6350 -0.3112
 2794TIP3    H129797   3.791   6.662  13.325  1.2978  1.4934 -0.4971
 2794TIP3    H229798   3.858   6.553  13.244 -1.5003 -0.3978 -0.3506
 2795TIP3   OH229799   3.656   5.051  12.293 -0.3282  0.2873  0.8478
 2795TIP3    H129800   3.689   5.006  12.215 -1.4426  0.8427  0.0428
 2795TIP3    H229801   3.722   5.034  12.360  1.1990  0.7149 -0.5136
 2796TIP3   OH229802   3.701   5.393  13.385  0.0734  0.3421 -0.0535
 2796TIP3    H129803   3.766   5.370  13.452 -0.8798  0.7077  1.0167
 2796TIP3    H229804   3.722   5.483  13.361  2.1704 -0.7199 -2.3224
 2797TIP3   OH229805   7.053   0.397  12.638  0.1320  1.0220  0.8134
 2797TIP3    H129806   7.020   0.335  12.573 -0.6855  0.1591  2.0199
 2797TIP3    H229807   6.981   0.459  12.649 -0.2361  0.4364  1.8013
 2798TIP3   OH229808   5.304   5.805  10.251 -0.0770  1.0006 -0.0364
 2798TIP3    H129809   5.356   5.815  10.331 -3.0297  0.2816  2.0919
 2798TIP3    H229810   5.350   5.857  10.185  1.5670  2.9755  2.5612
 2799TIP3   OH229811   5.478   4.137  13.235  0.3803 -0.7844 -0.3853
 2799TIP3    H129812   5.468   4.120  13.329 -0.8849 -0.8830 -0.5374
 2799TIP3    H229813   5.564   4.179  13.228  0.0182  0.2335  0.9659
 2800TIP3   OH229814   2.379   1.195  10.236 -0.0182 -0.0489 -0.7427
 2800TIP3    H129815   2.406   1.170  10.148  0.8285 -0.3148 -0.4044
 2800TIP3    H229816   2.391   1.290  10.238  0.3939 -0.1003 -0.7638
 2801TIP3   OH229817   5.216   1.132  11.039  0.1429 -0.3887 -0.2579
 2801TIP3    H129818   5.238   1.150  11.130 -1.0431 -0.5788  0.0819
 2801TIP3    H229819   5.181   1.042  11.040 -0.0291 -0.3328 -0.8597
 2802TIP3   OH229820   6.391   6.769  11.261  0.3548 -0.3392  0.2342
 2802TIP3    H129821   6.337   6.781  11.339 -0.4423  4.1689 -0.8533
 2802TIP3    H229822   6.351   6.696  11.214 -2.0758 -0.0002  1.7064
 2803TIP3   OH229823   3.105   4.985  10.243  0.1693  0.1282  0.0483
 2803TIP3    H129824   3.185   5.007  10.196  0.6221 -1.1585  0.2268
 2803TIP3    H229825   3.100   5.051  10.313  0.5373  0.8151 -0.5615
 2804TIP3   OH229826   3.959   5.500  11.453 -0.1332 -0.4759 -0.2012
 2804TIP3    H129827   4.029   5.522  11.392  0.5856 -0.3480  0.6661
 2804TIP3    H229828   3.879   5.500  11.399  0.4460 -0.0256 -1.0631
 2805TIP3   OH229829   1.001   0.350  11.130  0.0122 -0.0147 -0.5459
 2805TIP3    H129830   0.987   0.310  11.216 -0.6931 -0.2236 -0.7622
 2805TIP3    H229831   0.957   0.435  11.136 -0.2830 -0.1513 -0.7996
 2806TIP3   OH229832   3.496   1.187  11.395  0.2049  0.3743 -0.7608
 2806TIP3    H129833   3.443   1.187  11.475 -0.4809 -0.7305 -1.1999
 2806TIP3    H229834   3.437   1.152  11.328  0.9625  0.7453 -1.6239
 2807TIP3   OH229835   2.552   4.961  10.755  0.4703  0.6417 -0.4525
 2807TIP3    H129836   2.485   4.907  10.712  2.1500 -0.6535 -1.5025
 2807TIP3    H229837   2.634   4.918  10.734  1.7441  2.8751 -0.1654
 2808TIP3   OH229838   4.121   5.697  12.089 -0.6860  0.4844 -0.2525
 2808TIP3    H129839   4.082   5.754  12.023  2.4114  1.5218 -1.2818
 2808TIP3    H229840   4.172   5.755  12.145 -2.3509 -0.5445  2.4176
 2809TIP3   OH229841   0.325   2.808  10.415 -0.1855  0.5180  0.4923
 2809TIP3    H129842   0.294   2.827  10.504 -0.0414  1.2027  0.4005
 2809TIP3    H229843   0.321   2.892  10.370  2.4670  0.7967  0.6827
 2810TIP3   OH229844   2.436   1.463  10.205  0.3675  0.7740  0.0708
 2810TIP3    H129845   2.474   1.522  10.270 -0.9631  1.1109  0.5764
 2810TIP3    H229846   2.343   1.489  10.201  0.3026  0.3415 -1.5125
 2811TIP3   OH229847   5.261   5.666  11.584 -0.4262  0.1166 -0.0666
 2811TIP3    H129848   5.211   5.585  11.588 -0.7092  0.3750  1.7445
 2811TIP3    H229849   5.334   5.653  11.645 -2.1058  2.3085  2.5184
 2812TIP3   OH229850   1.943   5.084  10.306 -0.0868 -0.2365  0.6408
 2812TIP3    H129851   1.874   5.030  10.265 -1.2949  0.8271  1.2346
 2812TIP3    H229852   1.981   5.133  10.233  0.8147 -1.6358  0.1383
 2813TIP3   OH229853   2.352   6.605  11.112  0.2733  0.6837 -0.1155
 2813TIP3    H129854   2.303   6.525  11.089 -1.0689  0.8011  2.1452
 2813TIP3    H229855   2.437   6.573  11.142 -0.0491  0.1506  0.2327
 2814TIP3   OH229856   4.526   5.538  12.305 -0.4845  0.3089 -0.0664
 2814TIP3    H129857   4.574   5.587  12.238 -1.4244  0.6276 -0.5065
 2814TIP3    H229858   4.590   5.526  12.375  0.7702 -0.7104 -1.3278
 2815TIP3   OH229859   4.457   6.855  11.992  0.0075  0.5405 -0.5804
 2815TIP3    H129860   4.434   6.906  11.915  0.0782  0.2159 -0.8196
 2815TIP3    H229861   4.552   6.844  11.986 -0.1809 -0.8429 -1.3110
 2816TIP3   OH229862   4.497   0.669  11.331 -0.1561  0.1232  0.0919
 2816TIP3    H129863   4.487   0.581  11.368 -0.8610  0.4419  0.6609
 2816TIP3    H229864   4.452   0.664  11.246  0.9475 -0.4347 -0.4762
 2817TIP3   OH229865   1.571   7.145  10.038  0.5303 -0.4422  0.5324
 2817TIP3    H129866   1.605   7.228  10.006 -0.9253  0.7519  2.0278
 2817TIP3    H229867   1.641   7.109  10.093  0.3867  0.7518  1.5020
 2818TIP3   OH229868   3.197   5.850   9.949 -0.1289 -0.0904 -0.3748
 2818TIP3    H129869   3.273   5.823   9.897 -1.3299 -2.3430 -1.0602
 2818TIP3    H229870   3.138   5.775   9.944 -1.4476  0.7524  1.9971
 2819TIP3   OH229871   6.157   6.429  14.479  0.1321 -0.3288  0.1330
 2819TIP3    H129872   6.071   6.390  14.493  0.1035 -0.3856 -0.2059
 2819TIP3    H229873   6.213   6.388  14.546 -0.1349 -0.1884  0.4453
 2820TIP3   OH229874   3.497   4.851  12.817  0.1886  0.5510 -0.4293
 2820TIP3    H129875   3.580   4.865  12.861 -0.5905  2.7802  0.4225
 2820TIP3    H229876   3.518   4.858  12.724  1.4433 -1.8853 -0.3569
 2821TIP3   OH229877   1.259   6.282  12.917 -0.1870 -0.1878 -0.0972
 2821TIP3    H129878   1.185   6.243  12.871  0.9722 -2.0048 -0.4764
 2821TIP3    H229879   1.228   6.294  13.007 -1.3530  0.2489 -0.5587
 2822TIP3   OH229880   2.236   4.089  10.729  0.1812 -0.5166 -0.1302
 2822TIP3    H129881   2.294   4.149  10.683  0.5325 -1.0368 -0.3716
 2822TIP3    H229882   2.293   4.019  10.760 -0.0375 -0.1230  1.1911
 2823TIP3   OH229883   2.443   3.162  11.260 -0.5690 -0.3207  0.6452
 2823TIP3    H129884   2.508   3.131  11.323  0.6215 -0.1013 -0.4485
 2823TIP3    H229885   2.447   3.258  11.267 -1.2717 -0.3241  1.0727
 2824TIP3   OH229886   3.089   5.576   9.894 -0.1250  0.3397 -0.2916
 2824TIP3    H129887   3.089   5.491   9.938  0.3574  0.0938 -0.7455
 2824TIP3    H229888   3.000   5.588   9.862 -0.4150  0.4133  0.5387
 2825TIP3   OH229889   2.310   5.954   9.787 -0.4941 -0.4443  0.5109
 2825TIP3    H129890   2.370   5.933   9.859 -0.3157 -0.4845  0.3493
 2825TIP3    H229891   2.246   6.013   9.827 -0.3070 -0.3445  0.6676
 2826TIP3   OH229892   2.707   3.309  11.432  0.2512  0.4232 -0.2819
 2826TIP3    H129893   2.662   3.224  11.423  1.0272 -0.0213 -0.0418
 2826TIP3    H229894   2.778   3.291  11.494  1.2106  0.9460 -1.2312
 2827TIP3   OH229895   0.362   5.334  11.385  0.1799 -0.5667  0.5304
 2827TIP3    H129896   0.360   5.248  11.427  1.9692 -0.1144  1.5973
 2827TIP3    H229897   0.311   5.323  11.305 -1.5150 -2.0151  1.7689
 2828TIP3   OH229898   3.409   3.369  10.397  0.5657 -0.0542 -0.3003
 2828TIP3    H129899   3.369   3.290  10.433  0.3613 -0.1574 -0.7427
 2828TIP3    H229900   3.339   3.434  10.400  0.9654  0.3288  0.7810
 2829TIP3   OH229901   1.460   1.054  14.049 -0.0961  0.3018  0.8808
 2829TIP3    H129902   1.436   0.982  14.107 -0.6322  0.2745  0.6311
 2829TIP3    H229903   1.510   1.012  13.979  1.4029  0.4751  1.8253
 2830TIP3   OH229904   3.606   0.726  10.156  0.5212 -0.0694 -0.2635
 2830TIP3    H129905   3.695   0.751  10.132  0.5377  0.6305  0.5165
 2830TIP3    H229906   3.558   0.728  10.074  0.8824  0.9997 -0.4522
 2831TIP3   OH229907   2.471   6.560  10.780 -0.3027 -0.3452 -0.2084
 2831TIP3    H129908   2.378   6.554  10.802 -1.0733  1.4963 -2.7437
 2831TIP3    H229909   2.497   6.470  10.761 -1.7699 -0.7875 -0.1979
 2832TIP3   OH229910   4.796   4.754  12.630 -0.1767 -0.4293  0.2185
 2832TIP3    H129911   4.880   4.800  12.620  1.5908 -3.5583  0.2258
 2832TIP3    H229912   4.745   4.782  12.553  1.3101  0.5553 -0.4475
 2833TIP3   OH229913   3.753   4.128  11.616  0.3256  0.0488 -0.2136
 2833TIP3    H129914   3.663   4.099  11.630  0.8849 -1.3508  0.5445
 2833TIP3    H229915   3.787   4.148  11.703  0.3255  1.9176 -0.6143
 2834TIP3   OH229916   6.349   5.554  11.641 -0.0360  0.2994 -0.3652
 2834TIP3    H129917   6.337   5.535  11.734  1.7324 -0.6448 -0.3100
 2834TIP3    H229918   6.310   5.640  11.629  1.5720  1.3741  1.7158
 2835TIP3   OH229919   3.002   6.944  12.054 -0.0693 -0.0137  0.1143
 2835TIP3    H129920   3.013   6.940  12.149 -0.0269 -1.7391  0.0663
 2835TIP3    H229921   2.943   7.017  12.039 -1.8153 -1.0676  1.6458
 2836TIP3   OH229922   2.423   5.714  10.361 -0.2997  0.3341 -0.0026
 2836TIP3    H129923   2.444   5.776  10.291 -0.6248  1.7460  1.1375
 2836TIP3    H229924   2.332   5.733  10.383  0.1498  0.7043  1.6118
 2837TIP3   OH229925   5.395   2.753   9.763 -0.1935 -0.1091  0.5200
 2837TIP3    H129926   5.303   2.776   9.773 -0.7782 -1.5461 -1.2997
 2837TIP3    H229927   5.404   2.727   9.671  2.0810  0.2324  0.5974
 2838TIP3   OH229928   6.508   6.199  11.846  0.3599 -0.0494  0.0399
 2838TIP3    H129929   6.564   6.192  11.923  0.6152 -1.4777 -0.2611
 2838TIP3    H229930   6.566   6.230  11.777  0.1173  1.2916  0.4269
 2839TIP3   OH229931   3.119   6.857  10.238  0.4286  0.0476  0.0557
 2839TIP3    H129932   3.060   6.890  10.170 -0.8645 -0.4996  0.8822
 2839TIP3    H229933   3.101   6.763  10.241  0.8737 -0.0130  0.7635
 2840TIP3   OH229934   5.678   6.734  10.855 -0.5750  0.1798 -0.3824
 2840TIP3    H129935   5.586   6.749  10.880 -0.9337 -1.7907 -0.4619
 2840TIP3    H229936   5.673   6.667  10.787  1.0815 -1.6405  1.2565
 2841TIP3   OH229937   3.178   4.044  11.938  0.6450 -0.3205  0.0571
 2841TIP3    H129938   3.101   3.988  11.930  0.0280  0.2967  1.4905
 2841TIP3    H229939   3.188   4.085  11.852 -0.8618 -0.1192 -0.0257
 2842TIP3   OH229940   5.041   4.492  11.136  0.3149 -0.5101  0.1185
 2842TIP3    H129941   5.054   4.405  11.098  2.3390 -0.0812 -0.2248
 2842TIP3    H229942   5.005   4.544  11.064 -1.5905 -1.2141  0.5244
 2843TIP3   OH229943   4.753   7.216  13.090  0.1494  0.0715  0.4954
 2843TIP3    H129944   4.729   7.189  13.001 -2.8727  2.9946  0.3156
 2843TIP3    H229945   4.732   7.140  13.144 -1.6234 -0.4261 -0.8209
 2844TIP3   OH229946   5.095   6.998  10.290  0.7667 -0.3334 -0.4750
 2844TIP3    H129947   5.063   6.911  10.312 -1.3769  1.2466  3.1177
 2844TIP3    H229948   5.171   7.011  10.347  0.2308  0.6672  0.0258
 2845TIP3   OH229949   3.151   0.563  11.128  0.2840  0.0114 -0.8056
 2845TIP3    H129950   3.156   0.493  11.193  1.5846  0.8344  0.0001
 2845TIP3    H229951   3.058   0.587  11.125 -0.2874 -2.2212 -1.6108
 2846TIP3   OH229952   2.650   5.805  13.542  0.0012  0.2738  0.4065
 2846TIP3    H129953   2.589   5.759  13.600  0.6190 -0.8283  0.1908
 2846TIP3    H229954   2.660   5.747  13.467  0.1905  1.1227 -0.2242
 2847TIP3   OH229955   4.845   0.738  10.714 -0.0544  0.7740 -0.3733
 2847TIP3    H129956   4.929   0.708  10.678  0.1962  0.5563  0.3962
 2847TIP3    H229957   4.789   0.661  10.712  0.9271 -0.0439  2.6314
 2848TIP3   OH229958   3.372   7.267  11.225 -0.0083 -0.2349  0.3743
 2848TIP3    H129959   3.342   7.306  11.308  0.1978 -2.2195  1.4207
 2848TIP3    H229960   3.466   7.253  11.238  0.1955  0.2158 -0.5411
 2849TIP3   OH229961   4.284   4.359  10.906  1.3026 -0.0393  0.3882
 2849TIP3    H129962   4.241   4.313  10.834 -1.1679  0.1408  1.6796
 2849TIP3    H229963   4.273   4.452  10.884  1.6809 -0.0004  0.3606
 2850TIP3   OH229964   5.634   5.541  12.619 -0.4289 -0.4720  0.2375
 2850TIP3    H129965   5.621   5.538  12.524  1.4022 -1.4275 -0.0189
 2850TIP3    H229966   5.547   5.524  12.656 -1.0440 -0.6993 -1.2757
 2851TIP3   OH229967   4.095   6.372  11.237 -0.4073  0.0056 -0.6030
 2851TIP3    H129968   4.079   6.459  11.200  3.5681  0.1914 -2.1289
 2851TIP3    H229969   4.124   6.319  11.163  2.6587 -1.0396  1.2166
 2852TIP3   OH229970   6.280   5.472  12.904 -0.0572  0.3501  0.4099
 2852TIP3    H129971   6.312   5.505  12.821 -2.4045 -0.2303 -0.7496
 2852TIP3    H229972   6.317   5.383  12.910  0.5141  0.5741  0.2483
 2853TIP3   OH229973   2.142   2.597  15.798 -0.1530 -0.2358 -0.6838
 2853TIP3    H129974   2.142   2.692  15.790 -4.0373 -0.1127 -0.2461
 2853TIP3    H229975   2.233   2.574  15.818  0.4019  3.6031  1.6466
 2854TIP3   OH229976   7.226   6.516  11.232  0.4058 -0.7907  0.8069
 2854TIP3    H129977   7.263   6.438  11.190 -1.0489 -0.8748 -0.3223
 2854TIP3    H229978   7.282   6.588  11.202  1.6434 -1.3437  1.7078
 2855TIP3   OH229979   3.787   4.437  11.956 -0.1430 -0.4436  0.2477
 2855TIP3    H129980   3.696   4.459  11.939  0.1719  1.2415  0.6675
 2855TIP3    H229981   3.798   4.453  12.050  0.1428 -2.2734  0.5357
 2856TIP3   OH229982   5.406   5.310  11.511  1.1236  0.0732  0.0794
 2856TIP3    H129983   5.464   5.236  11.492  0.4171 -0.5004  0.1355
 2856TIP3    H229984   5.390   5.351  11.426  1.8385  0.4022  0.1031
 2857TIP3   OH229985   4.929   0.980  10.139  0.1068  0.2778 -0.3916
 2857TIP3    H129986   4.967   0.904  10.095  2.5170  0.5936  1.0842
 2857TIP3    H229987   4.850   0.946  10.182  0.7570 -1.2240 -0.3720
 2858TIP3   OH229988   5.252   6.039  11.149 -0.0314  0.0294  0.1472
 2858TIP3    H129989   5.285   5.993  11.226  0.2391 -0.4561 -0.2559
 2858TIP3    H229990   5.157   6.033  11.156 -0.0017 -0.4028  0.2149
 2859TIP3   OH229991   3.762   4.677  11.622 -0.1992 -0.1547  0.3545
 2859TIP3    H129992   3.842   4.644  11.663 -0.2042 -1.3088 -0.5521
 2859TIP3    H229993   3.744   4.759  11.668  1.9558  0.5300  0.0299
 2860TIP3   OH229994   0.920   6.860  11.707  0.3206 -1.0266 -0.4431
 2860TIP3    H129995   0.923   6.955  11.717 -1.7865 -0.6618 -2.9161
 2860TIP3    H229996   0.828   6.837  11.716  0.3964 -2.4518 -2.9920
 2861TIP3   OH229997   5.620   3.835  10.414 -0.1507  0.1430  0.2565
 2861TIP3    H129998   5.613   3.754  10.365 -0.7326  0.4801 -0.2284
 2861TIP3    H229999   5.639   3.808  10.504 -1.5139 -0.5771  0.3433
 2862TIP3   OH230000   4.233   3.779  12.289  0.3395  0.1268  0.3428
 2862TIP3    H130001   4.230   3.847  12.356  0.5634  1.0362 -0.5758
 2862TIP3    H230002   4.145   3.778  12.251  0.9785  1.4893 -1.2174
 2863TIP3   OH230003   5.917   3.996  13.927 -0.5744 -0.2009  0.2270
 2863TIP3    H130004   5.826   3.969  13.916 -0.4239  0.0588 -1.6761
 2863TIP3    H230005   5.944   4.027  13.841  1.1855  0.1328  0.8835
 2864TIP3   OH230006   4.763   5.663  11.628  0.8374 -0.0649 -0.7180
 2864TIP3    H130007   4.786   5.733  11.567 -1.4871  0.5638 -0.9242
 2864TIP3    H230008   4.708   5.604  11.576  1.4501 -1.2118 -0.0946
 2865TIP3   OH230009   5.833   3.915  11.482  0.3143  0.7592 -0.1929
 2865TIP3    H130010   5.863   4.002  11.456  0.2437  0.8790  0.1222
 2865TIP3    H230011   5.792   3.879  11.403 -0.1962  1.2489 -0.1521
 2866TIP3   OH230012   3.560   5.687  11.117 -0.7813  0.0037 -0.4761
 2866TIP3    H130013   3.510   5.689  11.198  0.9795  1.0102  0.5938
 2866TIP3    H230014   3.493   5.688  11.048 -2.2382  1.6028  0.9207
 2867TIP3   OH230015   4.890   4.893  10.258  0.0368 -0.0530 -0.0339
 2867TIP3    H130016   4.892   4.806  10.297 -1.3845  0.8756  2.1658
 2867TIP3    H230017   4.843   4.881  10.175 -1.9537 -1.0022  1.2119
 2868TIP3   OH230018   3.936   4.566  10.260  0.2993 -0.4026 -0.1302
 2868TIP3    H130019   3.932   4.659  10.283  1.4534 -0.4209  0.1999
 2868TIP3    H230020   3.984   4.526  10.333  0.1969 -1.1853 -0.4918
 2869TIP3   OH230021   3.008   4.771  13.550  0.0907  0.1196  0.8350
 2869TIP3    H130022   2.998   4.796  13.642  1.3197  0.3952  0.9019
 2869TIP3    H230023   2.958   4.689  13.542 -0.7787  0.5750  1.5191
 2870TIP3   OH230024   7.259   0.349  14.893  0.0184  0.0879  0.0602
 2870TIP3    H130025   7.221   0.434  14.915 -1.6849 -0.8426  0.8237
 2870TIP3    H230026   7.351   0.358  14.915 -0.8922  0.4060  4.1891
 2871TIP3   OH230027   6.483   5.226  11.399  0.1365 -0.1591  1.2162
 2871TIP3    H130028   6.513   5.289  11.465  1.9377  0.7850 -0.4600
 2871TIP3    H230029   6.494   5.272  11.315 -0.0851 -2.1036  0.0919
 2872TIP3   OH230030   3.197   1.367  12.419 -0.4851 -0.1851 -0.5569
 2872TIP3    H130031   3.238   1.286  12.389 -0.6302 -0.7796  0.8121
 2872TIP3    H230032   3.175   1.350  12.511 -0.6977  1.3409 -0.3187
 2873TIP3   OH230033   6.444   4.868  13.943 -0.8619 -0.2020 -0.8965
 2873TIP3    H130034   6.370   4.913  13.902  0.3154  2.2730 -0.3993
 2873TIP3    H230035   6.403   4.805  14.003 -2.5587 -1.0821 -2.9316
 2874TIP3   OH230036   2.503   6.669  11.941 -0.7413 -0.9230 -0.0754
 2874TIP3    H130037   2.451   6.709  12.011 -0.3333 -1.4587  0.5442
 2874TIP3    H230038   2.554   6.742  11.905  0.4374 -0.9639  1.4450
 2875TIP3   OH230039   7.289   4.866   9.896 -0.5271  0.3464  0.2386
 2875TIP3    H130040   7.254   4.926   9.831  1.2271  0.9525 -0.1727
 2875TIP3    H230041   7.355   4.917   9.943  0.3736 -0.9926  0.4628
 2876TIP3   OH230042   6.168   7.066  10.117  0.0420  0.5425  0.3623
 2876TIP3    H130043   6.185   7.047  10.024 -1.2181 -0.0136  0.2176
 2876TIP3    H230044   6.148   7.159  10.119 -0.7950  0.3857 -0.0859
 2877TIP3   OH230045   7.278   6.522  12.581 -0.7557 -0.2600 -0.3427
 2877TIP3    H130046   7.222   6.465  12.528 -2.3483  2.1704 -1.3592
 2877TIP3    H230047   7.327   6.574  12.517 -1.1471  1.2262  0.5364
 2878TIP3   OH230048   3.486   1.596  13.485  0.0186  0.8827 -0.1026
 2878TIP3    H130049   3.479   1.502  13.502 -0.5821  1.1377  1.0853
 2878TIP3    H230050   3.523   1.601  13.397  0.3253 -0.4664 -0.0656
 2879TIP3   OH230051   4.214   2.596  10.501 -0.6583  0.3131 -0.2185
 2879TIP3    H130052   4.243   2.686  10.487  1.2000  0.2785  2.8704
 2879TIP3    H230053   4.250   2.548  10.427  0.4422  1.7061 -0.6232
 2880TIP3   OH230054   5.998   4.999  11.079  0.4312  0.2049 -0.0912
 2880TIP3    H130055   6.070   5.051  11.115 -0.1066  0.5435  0.4914
 2880TIP3    H230056   5.985   5.035  10.991  0.5754  0.5498  0.0263
 2881TIP3   OH230057   3.381   4.306  11.335  0.2075  0.4888 -0.0559
 2881TIP3    H130058   3.431   4.279  11.258 -1.0913 -0.3310 -0.6295
 2881TIP3    H230059   3.290   4.283  11.314  0.0141 -1.0117  2.2849
 2882TIP3   OH230060   1.792   7.109  11.179  0.5841 -0.0005  0.2597
 2882TIP3    H130061   1.810   7.039  11.116 -0.3109 -0.6172  0.6844
 2882TIP3    H230062   1.832   7.187  11.140 -0.3312 -0.2807 -1.2860
 2883TIP3   OH230063   3.440   4.114  10.876 -0.2265 -0.8671 -0.7264
 2883TIP3    H130064   3.370   4.087  10.818  0.6410 -1.6643 -1.4235
 2883TIP3    H230065   3.455   4.207  10.855 -2.3640 -0.1227  0.7977
 2884TIP3   OH230066   7.146   4.313  10.544  0.5602 -0.2417  1.0224
 2884TIP3    H130067   7.129   4.275  10.458 -0.1643 -1.6304  1.7644
 2884TIP3    H230068   7.240   4.330  10.545  0.9155 -2.0799  0.6976
 2885TIP3   OH230069   5.816   0.335  11.745 -0.5415 -0.2651 -0.1435
 2885TIP3    H130070   5.829   0.415  11.795  1.1128 -0.4635 -0.2368
 2885TIP3    H230071   5.882   0.338  11.675 -0.5732 -1.6117 -0.2581
 2886TIP3   OH230072   5.336   7.009  10.438  0.0372 -0.2155  0.1770
 2886TIP3    H130073   5.384   6.937  10.480  0.5180  0.0765  0.1319
 2886TIP3    H230074   5.402   7.076  10.423 -0.4769  0.3661  0.5037
 2887TIP3   OH230075   3.479   2.610  10.818 -0.0076  0.1387  0.5876
 2887TIP3    H130076   3.552   2.582  10.874  0.5331 -1.1565 -0.7448
 2887TIP3    H230077   3.518   2.622  10.732 -1.4577 -1.0629 -0.2502
 2888TIP3   OH230078   4.211   5.792   9.796 -0.2092  0.2943 -0.5202
 2888TIP3    H130079   4.278   5.724   9.804 -1.7093 -1.0242  1.2971
 2888TIP3    H230080   4.141   5.750   9.745 -0.2459  1.2157 -1.2414
 2889TIP3   OH230081   5.883   0.378  12.117  0.2745 -0.1490 -0.3382
 2889TIP3    H130082   5.788   0.368  12.116  0.3002 -0.6537  0.9726
 2889TIP3    H230083   5.899   0.468  12.089 -0.7088  0.6833  1.7052
 2890TIP3   OH230084   5.229   1.299  10.515  0.5322  0.6747  0.1716
 2890TIP3    H130085   5.250   1.325  10.605  1.1525  1.4496 -0.1940
 2890TIP3    H230086   5.155   1.239  10.524  2.2075 -1.2313  1.3865
 2891TIP3   OH230087   2.014   0.309  10.247  0.0461  0.3752  0.4803
 2891TIP3    H130088   2.106   0.282  10.240  0.3073  1.1006  1.0892
 2891TIP3    H230089   1.966   0.244  10.196  0.8542 -0.2602  0.5252
 2892TIP3   OH230090   2.535   5.537  12.443  0.1058 -0.0602 -0.2672
 2892TIP3    H130091   2.561   5.549  12.352 -0.2405  2.2420 -0.1014
 2892TIP3    H230092   2.616   5.551  12.493 -0.9459  5.6870  0.1582
 2893TIP3   OH230093   2.008   7.017  13.083 -0.1804 -0.1712  0.2082
 2893TIP3    H130094   1.941   7.009  13.015 -0.9610 -0.9238  1.0687
 2893TIP3    H230095   2.068   6.944  13.066  0.4625  0.5218 -0.5818
 2894TIP3   OH230096   5.881   1.146  10.877  0.2234 -0.2612 -0.3799
 2894TIP3    H130097   5.859   1.145  10.784  0.5072 -2.1916 -0.4524
 2894TIP3    H230098   5.834   1.222  10.912 -1.1098 -0.3993 -1.8039
 2895TIP3   OH230099   5.016   6.629  13.014 -0.4603 -0.0321  0.2045
 2895TIP3    H130100   5.043   6.720  13.005 -1.9690  0.4701  0.6882
 2895TIP3    H230101   4.964   6.626  13.094  0.5906 -1.5721  0.8602
 2896TIP3   OH230102   5.908   4.447  11.556  0.0191 -0.4121 -0.5029
 2896TIP3    H130103   5.824   4.434  11.600  0.1880 -0.4108 -0.1806
 2896TIP3    H230104   5.896   4.526  11.504  0.2098  0.2752  0.4905
 2897TIP3   OH230105   1.897   5.229  10.011  0.0433 -0.3209 -0.1872
 2897TIP3    H130106   1.937   5.240   9.925 -2.7431  0.4907 -1.4260
 2897TIP3    H230107   1.844   5.150  10.003 -0.1242 -0.3175  0.8497
 2898TIP3   OH230108   0.374   3.324  10.822  0.1134 -0.1360  0.4325
 2898TIP3    H130109   0.383   3.418  10.809 -0.5697  0.0155  1.0336
 2898TIP3    H230110   0.331   3.315  10.907 -1.4527 -0.9507 -0.4285
 2899TIP3   OH230111   5.983   0.321  12.739 -0.1869  0.8445 -0.4041
 2899TIP3    H130112   5.920   0.367  12.795  0.0147  2.4955 -1.4957
 2899TIP3    H230113   5.947   0.233  12.730 -0.7816  0.8655  1.4287
 2900TIP3   OH230114   6.011   6.094  13.592  0.4851  0.3874  0.0912
 2900TIP3    H130115   6.071   6.024  13.567 -0.2892  0.1697 -1.1971
 2900TIP3    H230116   6.040   6.120  13.679  2.5200  0.3556 -0.5417
 2901TIP3   OH230117   3.709   1.945  12.328 -0.7940  0.1053  0.0107
 2901TIP3    H130118   3.679   1.904  12.409 -0.3350  0.0381  0.1500
 2901TIP3    H230119   3.784   1.999  12.354 -0.1651 -0.5177 -0.4912
 2902TIP3   OH230120   5.542   1.713  14.125 -0.1509  0.0605 -0.6251
 2902TIP3    H130121   5.529   1.749  14.038  0.8780  0.4469 -0.6324
 2902TIP3    H230122   5.459   1.671  14.147 -0.7014  0.7136 -1.4314
 2903TIP3   OH230123   2.629   4.658  12.722  0.0626  0.6233  0.1981
 2903TIP3    H130124   2.629   4.620  12.634 -1.1207  1.5430 -0.2233
 2903TIP3    H230125   2.676   4.740  12.713 -2.0642  1.8471 -0.1226
 2904TIP3   OH230126   3.222   5.491  11.422  0.2461  0.2343  0.5401
 2904TIP3    H130127   3.178   5.504  11.338  0.6625 -2.8197 -0.2164
 2904TIP3    H230128   3.151   5.471  11.483  0.2153 -0.5612  0.2437
 2905TIP3   OH230129   6.273   6.728  12.059 -0.3391 -0.1282  0.4694
 2905TIP3    H130130   6.279   6.635  12.079  1.5879  0.2925  1.9761
 2905TIP3    H230131   6.306   6.737  11.970  1.7867 -0.6017  1.1862
 2906TIP3   OH230132   5.737   6.132  10.342 -0.3681  0.0675 -0.1575
 2906TIP3    H130133   5.684   6.212  10.341 -0.6251 -0.1005 -0.0364
 2906TIP3    H230134   5.694   6.074  10.278  0.7837  0.6500 -1.4824
 2907TIP3   OH230135   2.128   4.935  12.264  0.5745 -0.1064 -0.1327
 2907TIP3    H130136   2.082   5.013  12.296 -0.7977 -1.4480  1.1976
 2907TIP3    H230137   2.167   4.963  12.181  3.2603  3.1037  2.0998
 2908TIP3   OH230138   3.890   3.631  13.553  0.2382  0.2177  0.1097
 2908TIP3    H130139   3.802   3.666  13.568  0.5928  1.7159 -1.1988
 2908TIP3    H230140   3.882   3.538  13.573 -1.6460  0.3432  0.0453
 2909TIP3   OH230141   5.156   6.511  12.115 -0.2809  0.0208  0.4876
 2909TIP3    H130142   5.229   6.562  12.148  0.6095 -1.0332  0.1801
 2909TIP3    H230143   5.095   6.576  12.079  1.3675  0.8007 -0.9524
 2910TIP3   OH230144   4.781   4.961  13.010  0.0183 -0.3575  0.0909
 2910TIP3    H130145   4.792   4.971  12.915  2.3544  0.5593  0.4313
 2910TIP3    H230146   4.743   5.044  13.038  0.2168 -0.2659  0.0877
 2911TIP3   OH230147   0.616   2.743  12.609  0.1156 -0.1181 -0.8523
 2911TIP3    H130148   0.697   2.708  12.645 -0.7149 -1.1230  0.0718
 2911TIP3    H230149   0.643   2.792  12.531  1.6049 -0.3575 -0.4935
 2912TIP3   OH230150   4.165   6.058   9.916 -0.1098 -0.2343  0.2067
 2912TIP3    H130151   4.244   6.102   9.946 -0.3827  1.6531 -1.7488
 2912TIP3    H230152   4.197   5.986   9.862  0.2885  1.0979 -1.3611
 2913TIP3   OH230153   5.166   6.911  11.945  0.0892  0.2235  0.4194
 2913TIP3    H130154   5.100   6.903  12.014  0.6259  1.1971  1.0634
 2913TIP3    H230155   5.249   6.918  11.993  0.4355  1.1825 -0.3132
 2914TIP3   OH230156   4.468   0.340  12.101 -0.0801 -0.0941 -0.4063
 2914TIP3    H130157   4.531   0.317  12.034 -1.0142 -1.7790 -0.7498
 2914TIP3    H230158   4.413   0.407  12.061  0.6941  0.4643 -0.5461
 2915TIP3   OH230159   3.862   5.988   9.853 -0.2645  0.1925  0.4884
 2915TIP3    H130160   3.846   6.052   9.784  1.3024 -0.5398 -0.5758
 2915TIP3    H230161   3.957   5.989   9.865 -0.5648  1.1324  3.4550
 2916TIP3   OH230162   1.159   3.848  11.396  0.0773  0.6667 -0.1517
 2916TIP3    H130163   1.213   3.861  11.474 -1.4422  1.9221  0.7075
 2916TIP3    H230164   1.159   3.933  11.352  1.3825 -0.1674 -1.8541
 2917TIP3   OH230165   2.049   2.870  12.290  0.1755 -0.3316 -0.1163
 2917TIP3    H130166   2.062   2.954  12.246  0.8729 -0.4309 -0.1150
 2917TIP3    H230167   2.138   2.833  12.298  0.0247 -0.4672  1.0598
 2918TIP3   OH230168   5.555   4.871  11.661 -0.2667 -0.8060  0.0097
 2918TIP3    H130169   5.513   4.829  11.736  0.1918 -1.7245 -0.2451
 2918TIP3    H230170   5.592   4.799  11.610  1.6400 -0.0150  0.2394
 2919TIP3   OH230171   5.220   2.621  10.499 -0.0656 -0.3154  0.1810
 2919TIP3    H130172   5.261   2.577  10.425  0.1468 -0.8702  0.6228
 2919TIP3    H230173   5.160   2.556  10.536  0.1580 -0.1949  0.7631
 2920TIP3   OH230174   5.471   5.498  13.182  0.1649 -0.2056  0.1006
 2920TIP3    H130175   5.524   5.462  13.254  1.1412 -1.2848 -1.1397
 2920TIP3    H230176   5.483   5.436  13.110 -1.6923  0.2704 -0.6562
 2921TIP3   OH230177   3.584   6.000  10.973  0.1036  0.0869  0.1900
 2921TIP3    H130178   3.543   6.007  11.059 -1.6145 -1.3003 -0.4769
 2921TIP3    H230179   3.535   5.931  10.929  2.7848 -1.1912 -0.8941
 2922TIP3   OH230180   4.261   5.335  13.554 -0.0731 -0.0402 -0.0165
 2922TIP3    H130181   4.214   5.260  13.592 -0.1372  0.3054  0.6030
 2922TIP3    H230182   4.351   5.324  13.584 -0.2225  0.4939  0.6545
 2923TIP3   OH230183   4.615   4.501  11.214 -0.5277 -0.3175 -0.5368
 2923TIP3    H130184   4.650   4.428  11.164 -1.8210 -1.6125  0.4278
 2923TIP3    H230185   4.545   4.463  11.267  0.6299  1.0533  2.0695
 2924TIP3   OH230186   5.270   0.875  13.677 -0.5231  0.1489 -0.0051
 2924TIP3    H130187   5.275   0.970  13.664 -0.9284  0.0771 -0.7266
 2924TIP3    H230188   5.200   0.863  13.741  0.5248  0.4255  1.1956
 2925TIP3   OH230189   5.510   7.018  11.378  0.1977  0.2491 -0.6761
 2925TIP3    H130190   5.534   7.026  11.471 -1.1257  1.0909 -0.3825
 2925TIP3    H230191   5.492   7.108  11.351 -1.1502 -0.1866 -1.2641
 2926TIP3   OH230192   3.942   5.194  11.106  0.2938 -0.0346  0.4881
 2926TIP3    H130193   3.952   5.288  11.089 -1.2535  0.3718  1.7747
 2926TIP3    H230194   3.928   5.188  11.200  1.8852 -1.6979  0.6437
 2927TIP3   OH230195   4.422   5.943  10.558  0.1500  0.0357 -0.1198
 2927TIP3    H130196   4.408   6.023  10.609  0.5719  0.3629 -0.5119
 2927TIP3    H230197   4.350   5.941  10.496 -0.5540 -0.5382  0.6953
 2928TIP3   OH230198   5.819   5.899  10.057  0.4372  0.3270  0.3345
 2928TIP3    H130199   5.794   5.869   9.970 -0.9096  0.9846  0.4929
 2928TIP3    H230200   5.904   5.857  10.074 -0.6701 -2.1138 -0.0897
 2929TIP3   OH230201   3.382   4.827  10.844 -0.5037  0.1231 -0.1698
 2929TIP3    H130202   3.375   4.812  10.938 -2.3016  2.5800  0.1405
 2929TIP3    H230203   3.308   4.779  10.807 -0.7797  0.5361 -0.1538
 2930TIP3   OH230204   3.582   3.049  12.676  0.3342  0.0274  0.1854
 2930TIP3    H130205   3.640   3.035  12.751 -0.0170 -1.8650  0.1500
 2930TIP3    H230206   3.628   3.006  12.603 -0.3815 -0.1350 -0.1735
 2931TIP3   OH230207   1.879   2.704  10.583 -0.3466 -0.1594  0.1110
 2931TIP3    H130208   1.879   2.800  10.577  2.2968 -0.0476  1.3915
 2931TIP3    H230209   1.942   2.684  10.652 -0.9803 -2.8380 -0.0286
 2932TIP3   OH230210   4.516   6.599  10.070 -0.2018 -0.1799  0.0014
 2932TIP3    H130211   4.572   6.677  10.067  2.3938 -1.8295  2.7023
 2932TIP3    H230212   4.575   6.526  10.054 -1.8466 -1.8788  1.4382
 2933TIP3   OH230213   4.748   1.924  10.732 -0.3505  0.3143  0.1256
 2933TIP3    H130214   4.817   1.944  10.796  0.8124  1.2521 -1.3859
 2933TIP3    H230215   4.683   1.994  10.744 -0.8717 -0.3530  1.2856
 2934TIP3   OH230216   5.490   6.792  10.505 -0.0119 -0.3174  0.2496
 2934TIP3    H130217   5.540   6.720  10.543  2.0536  1.0643  0.2672
 2934TIP3    H230218   5.456   6.757  10.423  1.3056 -1.2017  0.0541
 2935TIP3   OH230219   7.084   6.641  12.839  0.2171  0.1315 -0.4099
 2935TIP3    H130220   7.156   6.607  12.786  0.0619 -1.3837  0.3427
 2935TIP3    H230221   7.007   6.632  12.784  0.2831 -0.0939 -0.4649
 2936TIP3   OH230222   4.853   5.299  12.430  0.0571  0.1937 -0.4433
 2936TIP3    H130223   4.779   5.333  12.379  0.2648 -2.3951 -2.5757
 2936TIP3    H230224   4.920   5.279  12.364  1.1325 -1.3094  1.0573
 2937TIP3   OH230225   3.714   3.071  11.488 -0.3414  0.9643 -0.5712
 2937TIP3    H130226   3.786   3.081  11.426  0.7690  1.3713  0.7681
 2937TIP3    H230227   3.756   3.046  11.570 -1.6559  1.9030  0.4084
 2938TIP3   OH230228   4.922   0.065   0.724 -0.0676 -0.5646 -0.6565
 2938TIP3    H130229   4.906   0.041   0.632 -0.9480  2.0934 -1.2299
 2938TIP3    H230230   4.973   0.146   0.719  1.9128 -1.6487  1.2326
 2939TIP3   OH230231   4.188   2.889  10.189  0.0848  0.5095 -0.1576
 2939TIP3    H130232   4.130   2.865  10.117 -1.4631 -0.2190  1.2943
 2939TIP3    H230233   4.130   2.924  10.256  1.4814  1.0054  0.8083
 2940TIP3   OH230234   2.640   4.045  10.308 -0.1016 -0.5508 -0.1196
 2940TIP3    H130235   2.666   3.956  10.329 -0.7643 -0.6351  0.3690
 2940TIP3    H230236   2.702   4.073  10.240  0.0831 -1.3899 -0.3038
 2941TIP3   OH230237   4.656   3.422  12.942 -0.0795  0.6876 -0.3250
 2941TIP3    H130238   4.596   3.472  12.997  1.5211 -0.2379  2.3787
 2941TIP3    H230239   4.652   3.333  12.977  1.8814  0.3461 -0.9050
 2942TIP3   OH230240   3.133   3.502  12.631  0.1405  0.0557 -0.0232
 2942TIP3    H130241   3.061   3.458  12.675  0.3530  0.4322  0.7185
 2942TIP3    H230242   3.186   3.432  12.594  1.8021 -0.4933  3.2001
 2943TIP3   OH230243   3.935   4.526  11.248  0.4208  0.1989 -0.0045
 2943TIP3    H130244   3.919   4.561  11.160  0.0817  0.4020  0.1338
 2943TIP3    H230245   3.859   4.556  11.299  0.5810  0.0204  0.3361
 2944TIP3   OH230246   4.868   0.586  12.255  0.0854  0.0083 -0.0555
 2944TIP3    H130247   4.774   0.591  12.271  0.2522 -0.3904  1.1463
 2944TIP3    H230248   4.876   0.541  12.171 -0.7893 -0.6474  0.1966
 2945TIP3   OH230249   4.351   3.154  12.655  0.1752 -0.0359  1.1419
 2945TIP3    H130250   4.296   3.230  12.635  0.3210 -0.0783  0.5803
 2945TIP3    H230251   4.291   3.093  12.699 -0.5254 -0.5702 -0.5222
 2946TIP3   OH230252   0.536   4.437  12.467  0.4431 -0.0488  0.3765
 2946TIP3    H130253   0.618   4.418  12.421  0.7603  0.0113  0.9131
 2946TIP3    H230254   0.558   4.428  12.560 -0.1655 -0.0540  0.5208
 2947TIP3   OH230255   4.012   6.922  12.857 -0.1167 -0.4522  0.2017
 2947TIP3    H130256   3.969   6.869  12.925  1.4071 -1.3949  0.4669
 2947TIP3    H230257   3.942   6.975  12.820 -1.1309 -0.4747  1.9984
 2948TIP3   OH230258   6.574   1.903  10.686  0.3440 -0.0825  0.0740
 2948TIP3    H130259   6.554   1.994  10.707  0.4535 -0.0519  0.0477
 2948TIP3    H230260   6.496   1.870  10.642  0.0399 -0.1984  0.6963
 2949TIP3   OH230261   3.177   5.526  12.478  0.6096  0.0108 -0.0783
 2949TIP3    H130262   3.188   5.583  12.402  0.0813 -0.6726 -0.6694
 2949TIP3    H230263   3.213   5.577  12.551  1.3204  0.5838 -0.8129
 2950TIP3   OH230264   4.863   3.577  10.185 -0.2584 -0.7885 -0.4514
 2950TIP3    H130265   4.859   3.583  10.090  2.0748 -0.1330 -0.5549
 2950TIP3    H230266   4.933   3.514  10.202  0.9690  0.8692  0.8149
 2951TIP3   OH230267   1.699   5.129  11.675 -0.6094 -0.3366  0.7219
 2951TIP3    H130268   1.753   5.060  11.637 -0.7152 -0.9843  1.7293
 2951TIP3    H230269   1.642   5.157  11.603 -1.0844 -1.8330  0.5029
 2952TIP3   OH230270   4.776   7.114   9.999 -0.2283  0.1850 -0.0949
 2952TIP3    H130271   4.803   7.164  10.076 -0.5673  1.1030 -0.5718
 2952TIP3    H230272   4.837   7.040   9.996  1.0340  1.2203 -0.0932
 2953TIP3   OH230273   4.813   6.567  10.172  0.3054 -0.7829  0.2793
 2953TIP3    H130274   4.795   6.528  10.086 -0.3094  0.6279 -0.2493
 2953TIP3    H230275   4.901   6.537  10.194  0.3734 -1.3584 -0.7280
 2954TIP3   OH230276   4.418   3.401  14.304 -0.3723 -0.0569  0.4419
 2954TIP3    H130277   4.500   3.352  14.296 -0.1446  0.5750 -1.2000
 2954TIP3    H230278   4.444   3.485  14.341 -0.5049 -0.4337  1.4146
 2955TIP3   OH230279   3.323   5.456  11.051 -0.2641 -0.4379  0.3134
 2955TIP3    H130280   3.259   5.525  11.069  0.4532  0.1447  0.6263
 2955TIP3    H230281   3.306   5.389  11.118  0.6919  0.5590  1.5700
 2956TIP3   OH230282   4.013   6.676  10.919 -0.4241  0.0836  0.7224
 2956TIP3    H130283   4.085   6.740  10.925  0.2053 -0.6314  0.9256
 2956TIP3    H230284   3.936   6.725  10.947  0.0794  0.7172  1.0442
 2957TIP3   OH230285   0.337   1.404  12.737 -0.5215  0.5292  0.1416
 2957TIP3    H130286   0.344   1.397  12.832 -3.1140  2.2009  0.5080
 2957TIP3    H230287   0.387   1.482  12.715 -0.6103  0.6114  0.2312
 2958TIP3   OH230288   4.490   4.542  12.304 -0.3663  0.1370 -0.1872
 2958TIP3    H130289   4.470   4.479  12.374  0.9878 -0.4506 -0.3263
 2958TIP3    H230290   4.585   4.539  12.295 -0.4677  0.7504 -1.5669
 2959TIP3   OH230291   4.990   6.325  11.633  0.0602  0.1469  0.3408
 2959TIP3    H130292   5.024   6.409  11.663 -0.3933  0.6700 -0.5664
 2959TIP3    H230293   4.895   6.332  11.645  0.1433 -0.7422  1.4949
 2960TIP3   OH230294   4.641   1.031  12.307  0.1382 -0.5043  0.4880
 2960TIP3    H130295   4.627   1.024  12.401 -0.6016 -0.2849  0.3939
 2960TIP3    H230296   4.605   1.116  12.283 -0.6132 -0.9992 -0.1620
 2961TIP3   OH230297   5.435   5.215  10.719  0.1536  0.3884 -0.1877
 2961TIP3    H130298   5.456   5.190  10.809  0.2997  0.5315 -0.1825
 2961TIP3    H230299   5.497   5.166  10.666 -1.4713 -1.5523 -0.3751
 2962TIP3   OH230300   6.720   0.517  10.224 -0.3943  0.0643  0.2153
 2962TIP3    H130301   6.629   0.530  10.252 -0.3433  2.0045 -0.4565
 2962TIP3    H230302   6.724   0.426  10.196 -2.7918  0.6471 -2.1559
 2963TIP3   OH230303   4.971   4.604  10.308 -0.0589 -0.5607  0.4264
 2963TIP3    H130304   5.033   4.606  10.381 -0.0577 -0.9334  0.4384
 2963TIP3    H230305   5.023   4.574  10.234  0.6535  2.6106 -0.4426
 2964TIP3   OH230306   3.846   0.492  10.636  0.0104 -0.0058 -0.2680
 2964TIP3    H130307   3.778   0.549  10.599 -0.7743 -0.1278  0.9703
 2964TIP3    H230308   3.838   0.503  10.731  0.7196 -1.1836 -0.0578
 2965TIP3   OH230309   5.525   6.358  13.354  0.3416  0.3686  0.0795
 2965TIP3    H130310   5.492   6.289  13.412  1.3699  1.5569  2.1049
 2965TIP3    H230311   5.547   6.312  13.273 -0.1890 -1.4728  0.9514
 2966TIP3   OH230312   2.784   4.612  11.245  0.0813  0.0285 -0.0905
 2966TIP3    H130313   2.824   4.558  11.177  0.0302  1.0626 -0.9504
 2966TIP3    H230314   2.855   4.667  11.278 -0.5760  1.8289 -1.5833
 2967TIP3   OH230315   5.410   5.194   9.773  0.4908 -0.5399 -0.4954
 2967TIP3    H130316   5.453   5.277   9.754 -0.3159  0.2285  0.9974
 2967TIP3    H230317   5.319   5.217   9.790  0.3950 -1.6637  0.5552
 2968TIP3   OH230318   7.232   5.869  10.285  0.3225  0.0083 -0.3593
 2968TIP3    H130319   7.197   5.816  10.356  0.2366  1.0903  0.4237
 2968TIP3    H230320   7.178   5.948  10.284  0.4924  0.1243 -1.4520
 2969TIP3   OH230321   3.677   5.367  12.089 -0.2109 -0.6665  0.2782
 2969TIP3    H130322   3.589   5.329  12.091 -0.2833 -0.5331 -0.2953
 2969TIP3    H230323   3.705   5.368  12.181 -2.1059  2.3836  0.9004
 2970TIP3   OH230324   2.464   3.363  10.532 -0.0027  0.2003 -0.3930
 2970TIP3    H130325   2.530   3.409  10.584  0.1700  0.3413 -0.7318
 2970TIP3    H230326   2.512   3.332  10.455 -0.3068  0.2045 -0.5848
 2971TIP3   OH230327   6.070   4.723  11.139 -0.1560  0.6059  1.0503
 2971TIP3    H130328   6.152   4.767  11.164  1.6834 -1.7059 -0.6801
 2971TIP3    H230329   6.012   4.794  11.114  1.0542  2.3569  3.0114
 2972TIP3   OH230330   6.622   3.888  11.444  0.3517 -0.7389 -0.4281
 2972TIP3    H130331   6.687   3.934  11.391  1.9530  0.2865  2.2749
 2972TIP3    H230332   6.654   3.798  11.450  1.5631 -0.2512  0.8419
 2973TIP3   OH230333   3.915   5.276  12.573  0.5981 -0.5283  0.0445
 2973TIP3    H130334   4.003   5.311  12.586  0.4150 -0.0897  0.1103
 2973TIP3    H230335   3.881   5.324  12.497  0.6310 -1.1084 -0.3474
 2974TIP3   OH230336   2.792   0.430  11.320 -0.0541  0.0311  0.2635
 2974TIP3    H130337   2.733   0.374  11.270 -0.9431  0.6405  0.6042
 2974TIP3    H230338   2.803   0.385  11.404  0.1584 -0.2029  0.1097
 2975TIP3   OH230339   4.926   5.658  10.404  0.6015  0.0438 -0.1415
 2975TIP3    H130340   5.008   5.694  10.439  0.8496 -0.2310 -0.4364
 2975TIP3    H230341   4.936   5.563  10.413  0.2456  0.0159 -0.0278
 2976TIP3   OH230342   0.477   3.185  13.501 -0.0606  0.4513 -0.3222
 2976TIP3    H130343   0.509   3.137  13.579 -0.5195 -2.2323 -1.7187
 2976TIP3    H230344   0.557   3.220  13.461  0.2969  0.8515  0.7066
 2977TIP3   OH230345   4.434   5.865  10.182 -0.9016  0.5001 -0.2811
 2977TIP3    H130346   4.448   5.857  10.277  0.7072  0.9052 -0.4829
 2977TIP3    H230347   4.480   5.790  10.145  1.2795  2.1481 -0.9918
 2978TIP3   OH230348   1.847   3.979  14.488  0.6046 -0.1408 -0.5511
 2978TIP3    H130349   1.894   3.920  14.547  0.1085  0.4520  0.4621
 2978TIP3    H230350   1.915   4.019  14.434  0.9210 -1.7763 -1.3832
 2979TIP3   OH230351   0.843   5.558  11.150  0.2214 -0.0511 -0.0240
 2979TIP3    H130352   0.776   5.544  11.217  1.3613 -0.2740  1.0739
 2979TIP3    H230353   0.824   5.493  11.083 -1.5105  0.7923 -0.3959
 2980TIP3   OH230354   5.439   3.390  10.264  0.2109 -0.1272 -0.7320
 2980TIP3    H130355   5.372   3.400  10.197 -0.2406 -2.4191 -0.6796
 2980TIP3    H230356   5.469   3.300  10.254  1.5419  0.1170  0.8585
 2981TIP3   OH230357   2.869   5.188  11.013  0.7489 -0.3588  0.3991
 2981TIP3    H130358   2.847   5.152  11.098  1.8189 -0.0957  0.7895
 2981TIP3    H230359   2.889   5.112  10.959 -0.0367 -0.5313  0.3413
 2982TIP3   OH230360   4.731   4.693  14.582  0.0675  0.0347  0.3644
 2982TIP3    H130361   4.637   4.688  14.564  0.1459 -0.1963  0.0331
 2982TIP3    H230362   4.750   4.616  14.635  0.2084 -0.2903 -0.1587
 2983TIP3   OH230363   4.904   5.015  12.773  0.6257 -0.0704  0.3304
 2983TIP3    H130364   4.951   4.955  12.715 -0.9583 -1.6723  0.6529
 2983TIP3    H230365   4.858   5.075  12.714  2.2959  0.9342  0.0093
 2984TIP3   OH230366   6.642   5.772  12.912  0.5527  0.2902 -0.2392
 2984TIP3    H130367   6.683   5.801  12.993  0.6967 -0.1386 -0.1562
 2984TIP3    H230368   6.548   5.770  12.933  0.3556  2.4724 -0.8046
 2985TIP3   OH230369   0.216   6.678  11.558  0.5643  0.3785  0.3030
 2985TIP3    H130370   0.157   6.677  11.482  2.8702 -2.1631 -1.5776
 2985TIP3    H230371   0.248   6.768  11.561 -3.0659  1.7294  1.1745
 2986TIP3   OH230372   6.144   4.895  15.072 -0.0815  0.0750 -0.1339
 2986TIP3    H130373   6.129   4.953  15.147  0.3426 -0.1230  0.1027
 2986TIP3    H230374   6.203   4.828  15.105 -0.3890 -0.3618 -0.4753
 2987TIP3   OH230375   0.261   4.752  12.657  0.1383 -0.0115  0.3446
 2987TIP3    H130376   0.267   4.669  12.610  0.1244  0.1235  0.1035
 2987TIP3    H230377   0.297   4.816  12.597  0.8523  0.0467  0.8201
 2988TIP3   OH230378   0.300   6.433  12.695  0.1992  0.3407 -0.0533
 2988TIP3    H130379   0.209   6.462  12.704  0.3892  0.5768  1.2241
 2988TIP3    H230380   0.299   6.342  12.723  0.0718 -0.1521 -1.6066
 2989TIP3   OH230381   0.614   6.800  12.033 -0.0913  0.2222  0.4407
 2989TIP3    H130382   0.539   6.854  12.008  0.0327  0.5925  0.8631
 2989TIP3    H230383   0.610   6.725  11.974 -0.9116  0.1381  0.5962
 2990TIP3   OH230384   1.775   0.840  10.763 -0.3695  0.2517 -0.1249
 2990TIP3    H130385   1.808   0.927  10.741 -1.6994  0.3415 -1.8165
 2990TIP3    H230386   1.760   0.797  10.679 -0.5217 -1.3248  0.6819
 2991TIP3   OH230387   7.037   3.152  11.843  0.1627 -0.3263 -0.0591
 2991TIP3    H130388   6.956   3.202  11.832  1.5244  2.1124  0.7151
 2991TIP3    H230389   7.077   3.152  11.756  0.0092 -0.3696 -0.1316
 2992TIP3   OH230390   2.860   5.226  10.152 -0.5627 -0.3897 -0.7047
 2992TIP3    H130391   2.823   5.139  10.139  0.0077 -0.7363 -0.0225
 2992TIP3    H230392   2.807   5.283  10.096 -1.8890 -0.9301 -0.0197
 2993TIP3   OH230393   5.180   0.332  10.453 -0.3751 -0.1303 -0.4686
 2993TIP3    H130394   5.125   0.355  10.378 -0.4207 -0.5572 -0.5672
 2993TIP3    H230395   5.182   0.236  10.453  1.0339 -0.1052 -0.9442
 2994TIP3   OH230396   6.008   4.333  10.750 -0.0362 -0.1425  0.5733
 2994TIP3    H130397   5.916   4.327  10.778 -0.1496 -1.4987 -0.0273
 2994TIP3    H230398   6.003   4.350  10.656  0.3308 -0.1683  0.5498
 2995TIP3   OH230399   6.995   7.147   9.891  0.1070 -0.1253 -0.1742
 2995TIP3    H130400   6.929   7.216   9.893  0.2934  0.0948 -1.1827
 2995TIP3    H230401   7.078   7.193   9.900  0.3814  0.0301 -3.2007
 2996TIP3   OH230402   1.632   0.641  12.279 -0.4965  0.1011 -0.5205
 2996TIP3    H130403   1.550   0.617  12.323  0.2324 -0.2325  0.6621
 2996TIP3    H230404   1.688   0.675  12.348 -0.0628  1.4762 -1.5285
 2997TIP3   OH230405   4.965   6.307  14.873  0.5991  0.1413  0.2509
 2997TIP3    H130406   4.985   6.231  14.819 -2.2513 -1.2845  1.1093
 2997TIP3    H230407   4.937   6.374  14.810  1.8660  0.0852 -0.3901
 2998TIP3   OH230408   6.251   4.123  10.204 -0.4113  0.4610 -0.3504
 2998TIP3    H130409   6.160   4.109  10.232 -0.0070 -1.4717  0.0726
 2998TIP3    H230410   6.250   4.107  10.110 -0.4705  0.3206 -0.3250
 2999TIP3   OH230411   6.030   5.387  10.879  0.2390 -0.0225 -0.3085
 2999TIP3    H130412   6.036   5.423  10.967 -2.1528 -1.1640  0.3652
 2999TIP3    H230413   5.941   5.410  10.850  0.4657 -0.9976 -1.8112
 3000TIP3   OH230414   6.697   0.338   9.998  0.2062  0.0833 -0.0226
 3000TIP3    H130415   6.612   0.298   9.979  0.0348  0.7351 -0.6466
 3000TIP3    H230416   6.759   0.265   9.994 -0.3267 -0.4053  0.4998
 3001TIP3   OH230417   0.644   1.553  14.185  0.1228  0.0558  0.2321
 3001TIP3    H130418   0.621   1.567  14.277 -2.5079  0.1004 -0.3822
 3001TIP3    H230419   0.655   1.458  14.176 -0.6841 -0.0577  0.3870
 3002TIP3   OH230420   0.839   6.786  12.375  0.2166 -0.6514  0.1916
 3002TIP3    H130421   0.888   6.704  12.367 -0.7219 -1.2204  0.1394
 3002TIP3    H230422   0.779   6.770  12.449 -0.7063 -0.3979 -0.4978
 3003TIP3   OH230423   7.028   5.720  14.719  0.5955  0.3808 -0.0442
 3003TIP3    H130424   7.007   5.666  14.643 -0.9479 -0.8059  1.2132
 3003TIP3    H230425   7.023   5.661  14.794  1.6653  1.6361  1.0533
 3004TIP3   OH230426   6.218   2.363  10.494  0.8915 -0.2411  0.0006
 3004TIP3    H130427   6.253   2.447  10.523 -0.1599 -0.3168  1.5731
 3004TIP3    H230428   6.126   2.381  10.477  0.6780 -1.0564  0.2974
 3005TIP3   OH230429   5.516   6.347  10.230  0.4757 -0.0961  0.3663
 3005TIP3    H130430   5.504   6.422  10.172  1.2737  0.0406  0.3670
 3005TIP3    H230431   5.427   6.319  10.252  0.1666  0.9652  0.5149
 3006TIP3   OH230432   1.071   0.267  13.207 -0.2531  0.1647 -0.1535
 3006TIP3    H130433   1.119   0.339  13.247 -1.6713  1.3441 -0.5156
 3006TIP3    H230434   1.025   0.225  13.280  0.1869 -0.0709 -0.0124
 3007TIP3   OH230435   1.098   1.490  11.719  0.6552 -0.2901  0.3483
 3007TIP3    H130436   1.117   1.579  11.689  0.5866 -0.4987 -0.3097
 3007TIP3    H230437   1.166   1.436  11.679 -0.5991 -0.8652 -1.0495
 3008TIP3   OH230438   1.681   6.605  10.515  0.1028 -0.1549 -0.1760
 3008TIP3    H130439   1.686   6.679  10.454 -1.5680  0.3358  0.2437
 3008TIP3    H230440   1.599   6.619  10.563 -0.3136 -2.3361 -0.1767
 3009TIP3   OH230441   3.468   4.125  11.581  0.3360 -0.0507 -0.3400
 3009TIP3    H130442   3.464   4.050  11.522  0.9874  0.4945 -1.0803
 3009TIP3    H230443   3.428   4.196  11.533  0.7807  0.3754 -0.0868
 3010TIP3   OH230444   1.827   5.354  11.435  0.2772 -0.0097  0.7063
 3010TIP3    H130445   1.908   5.376  11.480  0.4364  0.5951  0.1280
 3010TIP3    H230446   1.758   5.365  11.501  0.4173  1.6520  0.5912
 3011TIP3   OH230447   6.595   4.599  12.270  0.3451  0.5177 -0.3171
 3011TIP3    H130448   6.562   4.564  12.188  0.0283  1.0662 -0.4312
 3011TIP3    H230449   6.603   4.523  12.328 -1.6527  0.4374 -0.1075
 3012TIP3   OH230450   5.953   2.392  10.415 -0.2800  0.3807  0.3784
 3012TIP3    H130451   5.978   2.334  10.343 -4.8389 -0.7035 -0.5001
 3012TIP3    H230452   5.896   2.458  10.373 -0.4958  1.5535  2.4707
 3013TIP3   OH230453   0.272   6.580  11.011 -0.0430 -0.4544 -0.1309
 3013TIP3    H130454   0.213   6.619  10.947  0.4745 -0.7704 -0.8086
 3013TIP3    H230455   0.322   6.653  11.046  1.2209 -0.5593 -1.6992
 3014TIP3   OH230456   2.605   6.363  10.642 -0.0736 -0.6554 -0.5001
 3014TIP3    H130457   2.657   6.285  10.623  2.0252  0.5568  0.0221
 3014TIP3    H230458   2.662   6.436  10.617 -1.7287  0.7293 -0.3405
 3015TIP3   OH230459   5.541   5.446   9.820 -0.2325 -0.5899 -0.4490
 3015TIP3    H130460   5.561   5.532   9.783 -1.5596  0.9948  2.3912
 3015TIP3    H230461   5.625   5.400   9.820  1.0809  1.7315  0.5286
 3016TIP3   OH230462   0.474   5.477  12.095  0.5323 -0.1148  0.6206
 3016TIP3    H130463   0.549   5.469  12.154 -0.4711 -0.1381  1.9110
 3016TIP3    H230464   0.495   5.418  12.022  2.0962  0.4386  0.5915
 3017TIP3   OH230465   6.087   6.335  10.217 -0.4361 -0.0497 -0.4332
 3017TIP3    H130466   6.085   6.255  10.269  0.5584 -1.1712 -2.0551
 3017TIP3    H230467   6.005   6.379  10.237 -1.6983 -2.2326 -0.6617
 3018TIP3   OH230468   4.809   7.224  11.473  0.0274 -0.5911  0.1019
 3018TIP3    H130469   4.904   7.227  11.481 -0.1471  2.1099  2.2472
 3018TIP3    H230470   4.792   7.240  11.381  1.6567 -1.6429 -0.4058
 3019TIP3   OH230471   4.362   7.272  10.691  0.7408  0.1970  0.0887
 3019TIP3    H130472   4.281   7.264  10.641  1.1295  1.0784 -0.7166
 3019TIP3    H230473   4.372   7.366  10.705  1.0539  0.0120  1.1464
 3020TIP3   OH230474   1.691   1.321  12.383 -0.7458  0.3508 -0.0978
 3020TIP3    H130475   1.723   1.234  12.357 -0.0819  0.6513 -0.2919
 3020TIP3    H230476   1.596   1.314  12.379 -0.6993 -0.4598  0.1648
 3021TIP3   OH230477   5.284   4.259  12.238  0.2969 -0.8844  0.2594
 3021TIP3    H130478   5.379   4.252  12.231  0.6553  4.0903 -1.8585
 3021TIP3    H230479   5.251   4.227  12.154  0.4458  1.3575 -0.6828
 3022TIP3   OH230480   4.512   0.070  12.103 -0.3024 -0.2210 -0.8613
 3022TIP3    H130481   4.506   0.086  12.009 -2.8269  0.0568 -0.6708
 3022TIP3    H230482   4.489   0.153  12.143  2.4584  0.1678  0.0372
 3023TIP3   OH230483   0.083   6.425  10.280 -0.3463  0.1041  0.0713
 3023TIP3    H130484  -0.008   6.407  10.257 -0.4630  1.1911 -0.3883
 3023TIP3    H230485   0.134   6.368  10.224 -0.7286  0.2507 -0.4322
 3024TIP3   OH230486   6.848   2.236  11.492  0.8130  0.7034  0.1007
 3024TIP3    H130487   6.798   2.293  11.550  0.7173  0.5488  0.1712
 3024TIP3    H230488   6.903   2.184  11.550  1.3980  1.1974 -0.0089
 3025TIP3   OH230489   3.487   5.820  12.205 -0.3335 -0.0955 -0.4722
 3025TIP3    H130490   3.463   5.902  12.249 -0.4486  0.4168 -1.4742
 3025TIP3    H230491   3.570   5.840  12.161  0.2186 -0.8556  0.1963
 3026TIP3   OH230492   6.655   6.695  13.442 -0.3722  0.2720 -0.3221
 3026TIP3    H130493   6.615   6.781  13.455 -0.7747  0.1481 -0.7205
 3026TIP3    H230494   6.605   6.637  13.500 -0.0888  0.3110 -0.0388
 3027TIP3   OH230495   5.300   0.818  10.255 -0.1603  0.5157 -0.3320
 3027TIP3    H130496   5.345   0.735  10.243  0.6486  0.7377  1.0400
 3027TIP3    H230497   5.247   0.829  10.176  0.5031 -0.8115 -0.9658
 3028TIP3   OH230498   0.453   0.614  13.210  0.1823 -0.3006  0.4069
 3028TIP3    H130499   0.438   0.545  13.145 -0.0959  0.6986 -0.6288
 3028TIP3    H230500   0.394   0.593  13.282 -0.4229 -0.7570 -0.2094
 3029TIP3   OH230501   0.752   5.926  10.515 -0.4892 -0.0391  0.3856
 3029TIP3    H130502   0.688   5.882  10.569 -2.3453  1.1220 -0.8025
 3029TIP3    H230503   0.700   5.980  10.455  1.5370 -0.1877 -1.5776
 3030TIP3   OH230504   0.215   0.780  12.213 -0.0629  0.0734 -0.1660
 3030TIP3    H130505   0.227   0.706  12.153 -1.5614 -0.9607  0.7780
 3030TIP3    H230506   0.245   0.748  12.298  0.9440  1.1413 -0.1101
 3031TIP3   OH230507   2.876   4.841  12.633  0.0979 -0.7418  0.0048
 3031TIP3    H130508   2.878   4.827  12.538  1.2437  1.6090 -0.3577
 3031TIP3    H230509   2.965   4.825  12.662  0.2411  0.5827  0.3395
 3032TIP3   OH230510   0.290   3.094  11.662 -0.0680 -0.2464  0.7078
 3032TIP3    H130511   0.337   3.175  11.643 -0.4142  0.0892  1.2939
 3032TIP3    H230512   0.356   3.037  11.703  0.0725 -0.1205  0.6544
 3033TIP3   OH230513   6.246   6.564  15.243 -0.2592 -1.1096 -0.3766
 3033TIP3    H130514   6.222   6.500  15.309  1.7689  0.0692  1.5750
 3033TIP3    H230515   6.323   6.527  15.200  1.0833  0.0872  0.9400
 3034TIP3   OH230516   7.127   5.247  10.865  0.0097 -0.1658  0.1450
 3034TIP3    H130517   7.138   5.153  10.882 -0.2332 -0.1655  0.3077
 3034TIP3    H230518   7.208   5.286  10.897  0.2202 -0.3495 -0.1583
 3035TIP3   OH230519   5.674   3.498  12.571 -0.3525 -0.6319  0.3129
 3035TIP3    H130520   5.749   3.553  12.593 -1.2022  1.1201 -1.0777
 3035TIP3    H230521   5.697   3.412  12.607  3.1534 -0.6160 -1.6282
 3036TIP3   OH230522   6.523   0.756  13.891  0.0396  0.3266 -0.4579
 3036TIP3    H130523   6.589   0.823  13.872  1.1101 -0.8021 -0.7787
 3036TIP3    H230524   6.527   0.697  13.816 -1.4006  0.2845 -0.5081
 3037TIP3   OH230525   3.030   4.857  15.366 -0.3653 -0.1745  0.1901
 3037TIP3    H130526   3.001   4.842  15.456 -0.9793  0.6841  0.1523
 3037TIP3    H230527   3.064   4.773  15.336  2.2940  0.1850  2.1045
 3038TIP3   OH230528   3.513   4.611  11.762 -0.5752 -0.6384  0.1905
 3038TIP3    H130529   3.581   4.591  11.698 -0.3748  0.0810  0.1761
 3038TIP3    H230530   3.550   4.681  11.815 -1.2283 -0.3856  0.3124
 3039TIP3   OH230531   4.113   0.034   9.862 -0.3038  0.7494 -0.1445
 3039TIP3    H130532   4.071  -0.040   9.905 -1.1657  1.0985 -0.3675
 3039TIP3    H230533   4.206   0.012   9.862 -0.2201  0.8875  2.2099
 3040TIP3   OH230534   6.642   6.746   9.735  0.0610 -0.2797  0.1367
 3040TIP3    H130535   6.675   6.783   9.652  0.3931 -1.0179 -0.0684
 3040TIP3    H230536   6.550   6.773   9.738  0.1410  0.0579 -0.3021
 3041TIP3   OH230537   6.086   5.780  10.923 -0.1050  0.2139 -0.3882
 3041TIP3    H130538   6.009   5.812  10.969 -0.0472 -0.1558 -0.0220
 3041TIP3    H230539   6.053   5.744  10.841 -0.0407  2.1952 -1.2979
 3042TIP3   OH230540   4.986   5.737   9.901 -0.1279  0.2035  0.3818
 3042TIP3    H130541   5.053   5.672   9.923  0.5841  0.6637 -0.3780
 3042TIP3    H230542   5.036   5.813   9.871 -1.0031  0.4727 -0.4053
 3043TIP3   OH230543   0.604   6.561  10.660  0.0943 -0.0819  0.2761
 3043TIP3    H130544   0.691   6.552  10.621  0.0290 -0.2416  0.1661
 3043TIP3    H230545   0.589   6.478  10.704 -1.1049 -1.1097 -1.9621
 3044TIP3   OH230546   0.240   3.604  10.589 -0.4602  0.1921 -0.0856
 3044TIP3    H130547   0.239   3.601  10.685 -1.2881  0.2695 -0.0870
 3044TIP3    H230548   0.296   3.678  10.568 -0.5401  0.3785  0.3502
 3045TIP3   OH230549   0.251   4.129  10.612 -0.6867 -0.3983  0.0245
 3045TIP3    H130550   0.200   4.199  10.652  4.0032  3.2427  0.0851
 3045TIP3    H230551   0.247   4.147  10.518 -0.9186 -1.1118 -0.1073
 3046TIP3   OH230552   6.166   5.622  10.362 -0.5630  0.2665  0.5708
 3046TIP3    H130553   6.093   5.683  10.352 -1.5241 -1.0591 -0.6343
 3046TIP3    H230554   6.244   5.677  10.353 -1.4017  1.5836  1.1948
 3047TIP3   OH230555   1.665   3.754  10.380  0.1966  0.0632  0.6104
 3047TIP3    H130556   1.727   3.737  10.310 -1.5785  0.8303 -1.1807
 3047TIP3    H230557   1.691   3.694  10.450  1.6166 -1.1329 -0.9099
 3048TIP3   OH230558   5.540   6.383   9.603  0.5996 -0.1464  0.0897
 3048TIP3    H130559   5.621   6.361   9.558  0.3918  1.4102 -1.1241
 3048TIP3    H230560   5.554   6.472   9.635  0.5040 -1.0088  2.6102
 3049TIP3   OH230561   4.565   3.443  11.812  0.2741  0.1555  0.6015
 3049TIP3    H130562   4.536   3.488  11.891 -1.4251  0.6046 -0.2502
 3049TIP3    H230563   4.651   3.479  11.794 -0.6732  2.3933  0.4675
 3050TIP3   OH230564   6.938   5.215  11.403  0.2152 -0.2785  0.2040
 3050TIP3    H130565   6.850   5.187  11.376 -0.6090  2.0334  0.3940
 3050TIP3    H230566   6.988   5.219  11.322 -0.0858 -0.7617 -0.0120
 3051TIP3   OH230567   1.127   5.332  12.032 -0.2300  0.6427 -0.4642
 3051TIP3    H130568   1.098   5.284  11.954  0.8703  1.0960 -1.1658
 3051TIP3    H230569   1.154   5.417  11.999  1.3028  0.4538  0.2539
 3052TIP3   OH230570   1.145   3.487  11.160  0.2663 -0.3085 -0.6177
 3052TIP3    H130571   1.063   3.526  11.132  0.3121 -0.5771 -1.1449
 3052TIP3    H230572   1.152   3.508  11.253 -0.4581 -0.3924 -0.5417
 3053TIP3   OH230573   3.610   7.070  10.476  0.4231 -0.0917 -0.5023
 3053TIP3    H130574   3.608   7.074  10.571 -0.5140  0.5575 -0.5358
 3053TIP3    H230575   3.630   7.159  10.448  1.3885 -0.4317 -0.9004
 3054TIP3   OH230576   6.791   5.480  10.249 -0.6124  0.3307 -0.3717
 3054TIP3    H130577   6.794   5.422  10.173 -0.3689  0.2829 -0.3233
 3054TIP3    H230578   6.794   5.568  10.212 -0.2791  0.3048 -0.4050
 3055TIP3   OH230579   2.692   1.100  11.979  0.3102 -0.1885  0.1734
 3055TIP3    H130580   2.639   1.120  11.902  0.9636 -0.0047 -0.2362
 3055TIP3    H230581   2.647   1.144  12.051 -1.4380 -2.0498  0.2605
 3056TIP3   OH230582   7.199   6.343  13.447  0.4133 -0.4637  0.5531
 3056TIP3    H130583   7.176   6.293  13.369 -0.9080  1.1175 -0.1164
 3056TIP3    H230584   7.115   6.361  13.489  0.7069  2.0597  0.1876
 3057TIP3   OH230585   6.004   6.886  10.608  0.1459 -0.0216 -0.6304
 3057TIP3    H130586   6.023   6.915  10.519 -1.8102  0.8014 -0.7907
 3057TIP3    H230587   5.924   6.833  10.600  0.2288 -0.3525  0.5671
 3058TIP3   OH230588   1.577   6.178  10.469 -0.0482  0.0001  0.9187
 3058TIP3    H130589   1.494   6.225  10.473  0.1500  0.6469 -1.5628
 3058TIP3    H230590   1.637   6.241  10.428  1.0067 -1.3367  0.3789
 3059TIP3   OH230591   2.490   4.608  10.943  0.3493  0.1595 -0.6282
 3059TIP3    H130592   2.402   4.635  10.967 -0.5775 -2.3994 -1.0200
 3059TIP3    H230593   2.504   4.647  10.857 -0.5676  0.1945 -0.7677
 3060TIP3   OH230594   4.917   4.478  12.703 -0.3048  0.0514  0.1492
 3060TIP3    H130595   4.944   4.569  12.713  0.0189 -0.0492  0.1783
 3060TIP3    H230596   4.821   4.480  12.712 -0.3515  0.4698 -0.4226
 3061TIP3   OH230597   7.296   5.502  10.951  0.0474  0.2336  0.0461
 3061TIP3    H130598   7.384   5.498  10.989  0.2071  1.4204 -0.1813
 3061TIP3    H230599   7.287   5.592  10.920 -1.4194  0.2501  0.4724
 3062TIP3   OH230600   0.274   4.494  12.530 -0.4269 -0.6313  0.0306
 3062TIP3    H130601   0.369   4.486  12.524 -0.4102 -0.0124 -0.4934
 3062TIP3    H230602   0.240   4.425  12.473 -0.2843 -0.1153 -0.6900
 3063TIP3   OH230603   4.111   7.218  11.058  0.0412 -0.1649  0.1951
 3063TIP3    H130604   4.136   7.297  11.011  1.9604  0.2764  1.8516
 3063TIP3    H230605   4.032   7.242  11.105 -1.2259 -0.2578 -1.8392
 3064TIP3   OH230606   5.150   6.640   9.921  0.3899 -0.0425  0.1925
 3064TIP3    H130607   5.224   6.697   9.902 -0.6336  1.3041  0.2319
 3064TIP3    H230608   5.076   6.682   9.878 -0.3729 -1.3470  0.2105
 3065TIP3   OH230609   6.503   6.632  11.917  0.6495  0.4057  0.3294
 3065TIP3    H130610   6.553   6.701  11.874  0.6051  0.0949 -0.2286
 3065TIP3    H230611   6.441   6.602  11.850  1.3541 -0.8756  0.2311
 3066TIP3   OH230612   3.256   1.025  10.764  0.4896 -0.6330 -0.2766
 3066TIP3    H130613   3.238   0.968  10.838 -1.1012  1.2758  0.8527
 3066TIP3    H230614   3.301   0.969  10.700  0.9557 -2.5485  1.6965
 3067TIP3   OH230615   0.051   6.044  11.968 -0.3835 -0.2178 -0.3406
 3067TIP3    H130616   0.010   6.125  11.938 -1.1388 -0.5638 -0.2578
 3067TIP3    H230617   0.118   6.026  11.903  0.9439  1.3839  0.5510
 3068TIP3   OH230618   0.862   5.732  10.759 -0.1625  0.5503  0.3177
 3068TIP3    H130619   0.912   5.813  10.771  0.5407  0.3998 -1.4004
 3068TIP3    H230620   0.928   5.666  10.740 -0.6301 -0.7106  2.8332
 3069TIP3   OH230621   0.438   6.016  10.191 -0.6495  0.5032  0.8131
 3069TIP3    H130622   0.533   6.012  10.181 -0.7634  0.5618 -0.3617
 3069TIP3    H230623   0.409   6.075  10.121 -1.2888  2.6364  2.8089
 3070TIP3   OH230624   1.579   3.940  12.492  0.8389  0.4636  0.0496
 3070TIP3    H130625   1.659   3.890  12.474  0.0647 -0.7637 -0.1091
 3070TIP3    H230626   1.591   3.973  12.581  1.4019  0.0330  0.1405
 3071TIP3   OH230627   5.214   5.485  10.546 -0.6517 -0.3499  0.1708
 3071TIP3    H130628   5.304   5.487  10.578 -0.4804  0.1017 -0.3342
 3071TIP3    H230629   5.189   5.577  10.539 -1.1079 -0.4736  0.1768
 3072TIP3   OH230630   6.089   6.432   9.910 -0.2589 -0.0796  0.2819
 3072TIP3    H130631   6.150   6.494   9.870 -2.1408  0.9609 -1.0822
 3072TIP3    H230632   6.113   6.431  10.002  1.3650  0.8327 -0.1019
 3073TIP3   OH230633   1.561   6.659  12.875 -0.0334 -0.1513  0.4968
 3073TIP3    H130634   1.615   6.655  12.954  0.5736  0.0395  0.0967
 3073TIP3    H230635   1.595   6.734  12.826 -1.6774  0.9283  0.9572
 3074TIP3   OH230636   5.618   4.621  11.549 -1.0962  0.0732  0.2283
 3074TIP3    H130637   5.656   4.551  11.602 -2.4178 -0.0700  1.0173
 3074TIP3    H230638   5.530   4.590  11.528 -0.8014  0.3897 -1.5691
 3075TIP3   OH230639   6.145   6.755  10.037 -0.1978  0.5304 -0.1932
 3075TIP3    H130640   6.194   6.732   9.958  0.0880 -1.8378  0.6522
 3075TIP3    H230641   6.187   6.706  10.107 -2.1576  0.4547  0.9811
 3076TIP3   OH230642   6.833   4.985  12.480  0.3031 -0.1350  0.2451
 3076TIP3    H130643   6.928   4.969  12.484  0.3365 -0.6872 -2.0694
 3076TIP3    H230644   6.826   5.077  12.455  0.2412 -0.0522  0.5765
 3077TIP3   OH230645   6.385   5.279  10.553 -0.0501  0.2819  0.0292
 3077TIP3    H130646   6.395   5.287  10.459  0.8380  2.3594  0.2653
 3077TIP3    H230647   6.421   5.192  10.574  0.9369  0.3300 -1.3791
 3078TIP3   OH230648   5.645   4.329  11.216  0.3958  0.1952  0.2465
 3078TIP3    H130649   5.673   4.419  11.201 -0.3088  0.4631  0.5258
 3078TIP3    H230650   5.568   4.318  11.159  0.0412  0.0017  0.7538
 3079TIP3   OH230651   6.180   6.023  10.587  0.6571  0.1507  0.2608
 3079TIP3    H130652   6.177   6.094  10.651  0.2269  0.3358  0.0346
 3079TIP3    H230653   6.242   5.960  10.624  1.1847  0.7322  0.3734
 3080TIP3   OH230654   5.615   3.856  12.560 -0.4465 -0.1529  0.7183
 3080TIP3    H130655   5.701   3.896  12.576  0.7455 -2.2076 -0.4315
 3080TIP3    H230656   5.599   3.803  12.638 -0.3303 -0.3775  0.5876
 3081TIP3   OH230657   0.045   6.262  11.158  0.0058 -0.0771  0.2462
 3081TIP3    H130658   0.005   6.177  11.177 -0.4768  0.3233  1.0797
 3081TIP3    H230659   0.132   6.241  11.123 -0.6377 -0.9358 -0.8518
 3082TIP3   OH230660   0.809   0.117  12.100 -0.3166 -0.1982 -0.0204
 3082TIP3    H130661   0.720   0.151  12.096 -0.4571 -0.6582 -0.9970
 3082TIP3    H230662   0.864   0.191  12.077 -0.4212  0.1941  0.9885
 3083TIP3   OH230663   5.939   5.792   9.336 -0.2914  0.2262 -0.4126
 3083TIP3    H130664   6.003   5.828   9.397  0.1152 -0.6616 -0.3003
 3083TIP3    H230665   5.863   5.773   9.390  0.1677 -0.8181 -0.1218
 3084TIP3   OH230666   6.535   5.541  10.066  0.2181  0.4140 -0.1370
 3084TIP3    H130667   6.545   5.453  10.032  0.2790  0.5624 -0.4998
 3084TIP3    H230668   6.524   5.529  10.161 -0.9651 -0.0677 -0.3216
 3085TIP3   OH230669   5.153   6.568  10.754  0.3536  0.1864 -0.0168
 3085TIP3    H130670   5.162   6.532  10.666 -1.2208 -0.0621 -0.0911
 3085TIP3    H230671   5.059   6.562  10.773  0.7682 -0.4187  1.9544
 3086TIP3   OH230672   6.356   6.271   9.775 -0.0700  0.1841 -0.3150
 3086TIP3    H130673   6.297   6.320   9.832  0.8643  0.0511  0.7770
 3086TIP3    H230674   6.318   6.281   9.687 -3.2732 -2.2665  0.7296
 3087TIP3   OH230675   6.968   0.354  10.906  0.0744  0.0610 -0.2004
 3087TIP3    H130676   6.886   0.377  10.863 -0.0324 -2.5874 -1.4857
 3087TIP3    H230677   7.036   0.392  10.851 -0.2244  0.8177 -0.0491
 3088TIP3   OH230678   5.024   4.175  11.027  0.0415 -0.2121  0.0908
 3088TIP3    H130679   4.931   4.167  11.009 -0.1602  1.6483  0.2214
 3088TIP3    H230680   5.036   4.133  11.113 -0.9527  1.0012  0.8264
 3089TIP3   OH230681   7.077   0.167  11.397  0.3011  0.1322  0.3612
 3089TIP3    H130682   7.099   0.230  11.466  1.5056 -0.0717  0.1634
 3089TIP3    H230683   7.111   0.207  11.317  1.4417 -0.9765  0.2945
 3090TIP3   OH230684   1.165   4.047  12.500 -0.9965 -0.0038  0.4585
 3090TIP3    H130685   1.109   4.055  12.577 -1.4684  0.2222  0.0945
 3090TIP3    H230686   1.165   4.134  12.461  0.0252  0.1292  0.7385
 3091TIP3   OH230687   6.790   7.168  11.699  0.3105 -0.8455 -0.4375
 3091TIP3    H130688   6.763   7.260  11.701 -1.0033 -1.2232 -0.1801
 3091TIP3    H230689   6.714   7.122  11.662  0.6916 -1.9170  0.1037
 3092TIP3   OH230690   5.328   4.107  11.247  1.0212 -0.7999  0.3927
 3092TIP3    H130691   5.420   4.082  11.257  1.5331  1.6056  2.3396
 3092TIP3    H230692   5.313   4.169  11.319 -1.6978  0.0303 -0.8478
 3093TIP3   OH230693   6.898   4.831  12.716 -0.1072 -0.2960  0.2427
 3093TIP3    H130694   6.986   4.820  12.681 -0.0430  0.2187  0.2376
 3093TIP3    H230695   6.884   4.926  12.717 -1.0836 -0.4272 -0.7921
 3094TIP3   OH230696   6.378   0.037  10.731  0.0563 -0.0113 -0.2407
 3094TIP3    H130697   6.448   0.025  10.667  0.0672 -0.3722 -0.1587
 3094TIP3    H230698   6.309  -0.022  10.703  0.9274 -1.8646  1.3407
 3095TIP3   OH230699   7.257   0.026  10.710  0.5398 -0.6415 -0.6882
 3095TIP3    H130700   7.204   0.004  10.786  0.6333  0.2441 -0.3592
 3095TIP3    H230701   7.329  -0.037  10.711  0.0968 -1.1469 -0.5122
 3096TIP3   OH230702   0.134   4.884  10.775  0.5063 -0.0372  0.2911
 3096TIP3    H130703   0.197   4.916  10.840  0.1857  2.6567 -0.6389
 3096TIP3    H230704   0.120   4.959  10.717 -1.0141 -1.6519 -1.4951
 3097TIP3   OH230705   4.988   6.030   9.716  0.5031 -0.2873 -0.4408
 3097TIP3    H130706   4.905   6.044   9.761 -1.0583 -1.1220 -2.9996
 3097TIP3    H230707   5.041   5.981   9.779 -0.4194  1.4542  1.7380
 3098TIP3   OH230708   6.051   0.212  10.948  0.7286  0.2870  0.0681
 3098TIP3    H130709   6.089   0.128  10.974  1.1941  0.2836 -0.6365
 3098TIP3    H230710   5.974   0.221  11.005  2.1282  0.6097  1.9711
 3099TIP3   OH230711   4.139   6.359  11.559 -0.0651  0.0222 -0.6280
 3099TIP3    H130712   4.200   6.430  11.579 -0.3037 -0.4020  1.7556
 3099TIP3    H230713   4.053   6.400  11.558 -0.1532 -0.1477  0.2245
 3100TIP3   OH230714   0.008   3.307  11.135  0.2338 -0.1785 -0.3327
 3100TIP3    H130715  -0.056   3.365  11.095  0.5007 -0.5786 -1.3580
 3100TIP3    H230716  -0.003   3.224  11.088  1.2049 -0.3755 -0.2122
 3101TIP3   OH230717   6.750   6.974  13.804  0.2861  0.1034  0.3112
 3101TIP3    H130718   6.689   7.043  13.833  0.6603  0.6156 -0.0946
 3101TIP3    H230719   6.699   6.893  13.810 -0.0391  0.3578  1.1734
 3102TIP3   OH230720   6.129   3.319  13.049 -0.2018 -0.4432 -0.3554
 3102TIP3    H130721   6.146   3.233  13.011 -1.8616 -0.9595  0.0721
 3102TIP3    H230722   6.039   3.315  13.080 -0.2822  1.4405 -0.2987
 3103TIP3   OH230723   7.126   5.146   9.334 -0.1557 -0.3696 -0.1753
 3103TIP3    H130724   7.135   5.054   9.309  2.1566 -0.6606  1.5900
 3103TIP3    H230725   7.063   5.145   9.406 -2.4361 -0.1743 -2.0926
 3104TIP3   OH230726   6.758   2.958  14.759 -0.2723  0.4803  0.4820
 3104TIP3    H130727   6.748   2.905  14.839  0.1187  1.6157  1.2870
 3104TIP3    H230728   6.683   3.017  14.760 -0.6372  0.0337 -0.3500
 3105TIP3   OH230729   0.822   6.153  12.122 -0.2345 -0.3794  0.6170
 3105TIP3    H130730   0.748   6.202  12.157 -0.2862 -0.6947  0.9485
 3105TIP3    H230731   0.818   6.068  12.165 -1.2840 -1.3827 -1.4267
 3106TIP3   OH230732   5.649   6.599  12.497 -0.2711 -0.2041  0.3793
 3106TIP3    H130733   5.654   6.694  12.510 -0.5473  0.6025 -4.3566
 3106TIP3    H230734   5.738   6.568  12.513  0.2439  1.1426  0.1663
 3107TIP3   OH230735   5.151   5.782  10.824 -0.5128 -0.8184  0.4855
 3107TIP3    H130736   5.234   5.734  10.822 -0.3541 -0.5110 -1.1548
 3107TIP3    H230737   5.092   5.726  10.875  0.1294 -1.9791 -0.0157
 3108TIP3   OH230738   4.077   5.702  11.108  0.2607 -0.2948  0.5418
 3108TIP3    H130739   4.095   5.692  11.202  1.9081  1.4728  0.4545
 3108TIP3    H230740   3.996   5.753  11.104  0.3811 -0.0660  1.0118
 3109TIP3   OH230741   1.007   2.920  12.264  0.1198  0.2788 -0.2282
 3109TIP3    H130742   0.965   2.997  12.303  0.3266  0.3446 -0.1320
 3109TIP3    H230743   0.948   2.848  12.283 -0.0361  0.4001 -0.2466
 3110TIP3   OH230744   0.495   7.222  12.111 -0.3384  0.7687 -0.2632
 3110TIP3    H130745   0.457   7.272  12.038 -2.5319 -0.4352  0.0148
 3110TIP3    H230746   0.570   7.176  12.072  0.0399  2.1171 -1.1524
 3111TIP3   OH230747   5.696   5.131  11.222  0.1192 -0.0832 -0.0255
 3111TIP3    H130748   5.645   5.065  11.174  0.2735  0.6919 -1.2797
 3111TIP3    H230749   5.669   5.121  11.313 -1.1423 -0.7024 -0.4596
 3112TIP3   OH230750   5.194   6.251  12.235 -0.3780  0.2913 -0.2187
 3112TIP3    H130751   5.152   6.330  12.203 -0.1954  0.3384 -0.3390
 3112TIP3    H230752   5.271   6.281  12.283 -0.5443  0.2096  0.1039
 3113TIP3   OH230753   7.152   5.947   9.689  0.0690 -0.2536 -0.2115
 3113TIP3    H130754   7.132   5.987   9.773  2.9347  1.1796 -0.1529
 3113TIP3    H230755   7.211   5.875   9.710 -0.7532 -1.1222 -0.8310
 3114TIP3   OH230756   0.522   5.379  10.412  0.4927 -0.0729  0.3080
 3114TIP3    H130757   0.572   5.300  10.394  1.2967  0.5521 -0.2379
 3114TIP3    H230758   0.509   5.419  10.326 -1.5035 -0.5569  0.3681
 3115TIP3   OH230759   0.071   4.879  11.141 -0.4579 -0.0217 -0.4420
 3115TIP3    H130760   0.105   4.812  11.201  1.0680  2.0722  1.1626
 3115TIP3    H230761  -0.022   4.886  11.163 -0.6514 -1.6455 -0.6862
 3116TIP3   OH230762   1.057   6.173  10.429  0.3058 -0.3141  0.2918
 3116TIP3    H130763   1.010   6.191  10.511 -0.2364  1.9046 -0.4861
 3116TIP3    H230764   0.993   6.191  10.360  1.3035 -0.4547 -0.6811
 3117TIP3   OH230765   0.156   0.966  11.634  0.3377  0.4478  0.0295
 3117TIP3    H130766   0.080   0.935  11.684  0.1134  0.3046 -0.4018
 3117TIP3    H230767   0.229   0.959  11.696 -0.2264  1.9016  0.9060
 3118TIP3   OH230768   5.163   5.265  10.731  0.0061 -0.1718 -0.0488
 3118TIP3    H130769   5.146   5.344  10.680 -0.5618  0.1985  0.7101
 3118TIP3    H230770   5.251   5.238  10.705  0.2039  0.7071 -0.3000
 3119TIP3   OH230771   0.910   0.699  12.657 -0.3260 -0.5400  0.0329
 3119TIP3    H130772   0.877   0.641  12.588  2.1838 -2.4736  0.3932
 3119TIP3    H230773   1.003   0.709  12.638 -0.0444  0.6383  1.9148
 3120TIP3   OH230774   3.553   4.526  12.102 -0.3969 -1.1457 -0.2584
 3120TIP3    H130775   3.550   4.456  12.168  0.1859 -0.4892  0.4808
 3120TIP3    H230776   3.527   4.605  12.150 -0.8486 -0.8145 -1.0404
 3121TIP3   OH230777   4.601   5.766  10.384  0.2296  0.0995 -0.2560
 3121TIP3    H130778   4.560   5.689  10.424 -2.7932  0.8381 -1.7617
 3121TIP3    H230779   4.611   5.828  10.456  1.2921 -1.1194  0.6694
 3122TIP3   OH230780   5.911   2.232  13.893 -0.4174 -0.4696  0.4457
 3122TIP3    H130781   5.967   2.295  13.847 -1.4035 -0.8916 -1.4127
 3122TIP3    H230782   5.968   2.189  13.956  1.2986 -0.7355 -1.2547
 3123TIP3   OH230783   5.835   7.027  10.321 -0.1222 -0.0462 -0.4054
 3123TIP3    H130784   5.791   7.109  10.299  0.0773  0.1752 -0.0038
 3123TIP3    H230785   5.810   7.010  10.412 -1.2296 -1.1299 -0.8981
 3124TIP3   OH230786   6.700   0.041  10.745 -0.5815 -0.1399  0.3345
 3124TIP3    H130787   6.718   0.054  10.838 -0.8674 -0.4854  0.4392
 3124TIP3    H230788   6.728   0.122  10.703  2.5149 -1.1792  0.3120
 3125TIP3   OH230789   5.974   0.471   0.723  0.0255 -0.3825 -0.2473
 3125TIP3    H130790   6.027   0.547   0.697  1.7247 -1.3274  0.4163
 3125TIP3    H230791   5.950   0.489   0.814  0.5822 -0.7237 -0.0321
 3126TIP3   OH230792   6.331   4.843  11.229  0.1372  0.9972 -0.1020
 3126TIP3    H130793   6.386   4.874  11.301 -1.2512  0.4314  1.2354
 3126TIP3    H230794   6.392   4.806  11.166  1.3022  0.5900  1.2440
 3127TIP3   OH230795   2.131   5.467  12.859  0.4881  0.1092  0.2133
 3127TIP3    H130796   2.043   5.481  12.825  0.6165  0.8378  0.1827
 3127TIP3    H230797   2.187   5.524  12.807  0.8000  0.6089  1.0737
 3128TIP3   OH230798   5.473   4.780   9.715 -0.0017  0.3104 -0.5719
 3128TIP3    H130799   5.421   4.813   9.641 -0.3609  0.5115 -0.2342
 3128TIP3    H230800   5.509   4.859   9.756  1.4631  0.1033 -1.4480
 3129TIP3   OH230801   5.603   5.701   9.760  1.2935  0.2051  0.6025
 3129TIP3    H130802   5.679   5.756   9.778  1.5613 -0.0681  0.3158
 3129TIP3    H230803   5.547   5.756   9.705  1.7373  0.0600 -0.0033
 3130TIP3   OH230804   6.906   6.752  11.409 -0.1756  0.3570 -0.0341
 3130TIP3    H130805   6.920   6.657  11.407 -1.3456  0.1463  1.5012
 3130TIP3    H230806   6.813   6.763  11.390 -0.5077  1.0743  1.9443
 3131TIP3   OH230807   0.878   5.839  11.149  0.0282  0.0312 -0.4038
 3131TIP3    H130808   0.971   5.854  11.135  0.5986 -1.7622  1.1270
 3131TIP3    H230809   0.870   5.743  11.153 -2.1419  0.1206 -2.1580
 3132TIP3   OH230810   7.159   5.279   9.802  0.1104 -0.0441  0.6359
 3132TIP3    H130811   7.138   5.316   9.717  0.2098 -0.4080  0.4539
 3132TIP3    H230812   7.255   5.279   9.805  0.1824  4.2185  2.5776
 3133TIP3   OH230813   6.596   4.661  10.787 -0.3670  0.0184  0.0341
 3133TIP3    H130814   6.653   4.585  10.798  1.1133  1.2672  1.3941
 3133TIP3    H230815   6.640   4.714  10.720 -2.4236 -1.2367 -2.3631
 3134TIP3   OH230816   1.361   6.852  10.200  0.1404  0.1298 -0.3353
 3134TIP3    H130817   1.289   6.892  10.248 -0.5719 -0.6093 -0.7770
 3134TIP3    H230818   1.367   6.763  10.235 -0.2028 -0.3253 -1.4006
 3135TIP3   OH230819   4.570   3.375  13.734 -0.6817  0.4863  0.7735
 3135TIP3    H130820   4.530   3.331  13.808  0.3912 -1.6261  0.1346
 3135TIP3    H230821   4.505   3.370  13.664 -0.6701  0.1839  0.7866
 3136TIP3   OH230822   0.178   5.217   9.532  0.6170  0.2455 -0.4831
 3136TIP3    H130823   0.157   5.220   9.625 -0.6213 -0.4745 -0.7193
 3136TIP3    H230824   0.218   5.131   9.518  0.2391  0.1059 -0.7213
 3137TIP3   OH230825   3.816   5.376  14.170 -0.1445  0.3790  0.5425
 3137TIP3    H130826   3.852   5.451  14.123 -0.7206  0.4559  0.2079
 3137TIP3    H230827   3.852   5.383  14.259  1.0488  0.1578  0.0752
 3138TIP3   OH230828   6.663   1.165  10.917  0.3883  0.0176  0.1672
 3138TIP3    H130829   6.618   1.091  10.957 -1.0189 -0.0750 -1.4939
 3138TIP3    H230830   6.708   1.127  10.841  0.1355  0.7447 -0.3576
 3139TIP3   OH230831   1.778   2.814  12.111  0.7232 -0.1967 -0.1140
 3139TIP3    H130832   1.687   2.834  12.088  1.1041  0.8468 -0.7922
 3139TIP3    H230833   1.802   2.883  12.173  0.8392 -0.8719  0.5851
 3140TIP3   OH230834   6.184   2.647  13.449 -0.5614  0.0066 -0.0016
 3140TIP3    H130835   6.115   2.599  13.496 -0.8497  0.2355 -0.1832
 3140TIP3    H230836   6.201   2.594  13.372 -1.4677  0.6050 -0.6237
 3141TIP3   OH230837   0.118   4.092   0.590 -0.0153  0.2260  0.4124
 3141TIP3    H130838   0.071   4.168   0.623  1.7437  1.4008  0.2235
 3141TIP3    H230839   0.106   4.025   0.658  0.0122  1.2539  1.4412
 3142TIP3   OH230840   0.286   1.194  14.702 -0.3873  0.6085 -0.1472
 3142TIP3    H130841   0.199   1.157  14.716 -0.4819  1.2358  0.9346
 3142TIP3    H230842   0.270   1.279  14.661 -0.2557  0.5373 -0.3517
 3143TIP3   OH230843   5.053   0.377  11.230  0.2978  0.4908  0.1274
 3143TIP3    H130844   5.022   0.442  11.167  1.5919  1.1820  0.1924
 3143TIP3    H230845   5.113   0.426  11.286  0.4639 -0.5252  0.8322
 3144TIP3   OH230846   3.066   0.176  12.884 -0.1559 -0.3367 -0.6311
 3144TIP3    H130847   2.971   0.166  12.872 -0.2860  1.2144 -1.0420
 3144TIP3    H230848   3.103   0.149  12.800 -0.3443  0.3560 -0.9458
 3145TIP3   OH230849   0.095   5.633  12.935 -0.1349 -0.0397 -0.4469
 3145TIP3    H130850   0.190   5.643  12.942 -0.1889  0.2252 -0.0817
 3145TIP3    H230851   0.080   5.540  12.953 -0.0897  0.2406  1.1169
 3146TIP3   OH230852   1.125   3.260  13.327 -0.0507  0.0330 -0.0782
 3146TIP3    H130853   1.052   3.243  13.387  0.3828 -0.1530  0.4056
 3146TIP3    H230854   1.177   3.327  13.372  2.9777 -3.6081  2.0936
 3147TIP3   OH230855   3.272   6.771  10.516  0.9879  0.1821  0.0747
 3147TIP3    H130856   3.250   6.849  10.567  1.2759  0.0571  0.3923
 3147TIP3    H230857   3.330   6.803  10.447  0.9645  0.2781  0.0996
 3148TIP3   OH230858   2.972   0.362  13.601  0.4026  0.0326 -0.1663
 3148TIP3    H130859   2.946   0.301  13.671  2.1398 -0.1269  0.3508
 3148TIP3    H230860   2.991   0.305  13.526  0.9854  0.0148 -0.0057
 3149TIP3   OH230861   6.504   0.980  11.412 -0.3423  0.0605 -0.3417
 3149TIP3    H130862   6.438   0.917  11.385  0.8944 -1.0848 -0.7195
 3149TIP3    H230863   6.459   1.034  11.478 -1.6983 -0.5739 -0.7227
 3150TIP3   OH230864   1.060   7.007  15.066  0.1530  0.3088 -0.0822
 3150TIP3    H130865   0.990   7.047  15.117  0.7560 -0.3387  1.2784
 3150TIP3    H230866   1.141   7.028  15.114  0.6124 -1.3031 -0.1103
 3151TIP3   OH230867   7.072   0.131  12.433  0.2925 -0.0529 -0.5729
 3151TIP3    H130868   7.014   0.166  12.365  0.2060  0.5642 -0.1894
 3151TIP3    H230869   7.157   0.170  12.413  0.2514  0.1874 -0.2871
 3152TIP3   OH230870   1.335   0.082  11.975  0.3313  0.0483 -0.0177
 3152TIP3    H130871   1.402   0.082  11.907  0.7121 -0.3893  0.3515
 3152TIP3    H230872   1.336   0.171  12.010 -0.1284  0.3851 -0.8309
 3153TIP3   OH230873   3.186   6.748  12.006 -0.2468  0.6450 -0.0600
 3153TIP3    H130874   3.139   6.828  12.027  0.3385  1.1780 -0.7669
 3153TIP3    H230875   3.168   6.733  11.913 -0.2982 -0.0099  0.0488
 3154TIP3   OH230876   0.685   0.920  11.253 -0.5226  0.0814  0.3889
 3154TIP3    H130877   0.731   0.845  11.216  0.8122 -0.2629  2.6525
 3154TIP3    H230878   0.749   0.991  11.251 -0.7853  0.3424  1.0340
 3155TIP3   OH230879   6.283   1.462  13.518 -0.1829 -0.1431  0.5089
 3155TIP3    H130880   6.344   1.493  13.586  0.0895  0.2121  0.1067
 3155TIP3    H230881   6.242   1.384  13.556 -0.0797  0.0938  1.1060
 3156TIP3   OH230882   2.177   2.962  10.935  0.1373  0.1328  0.1745
 3156TIP3    H130883   2.242   3.032  10.949 -1.3926  1.9524 -1.4736
 3156TIP3    H230884   2.105   2.984  10.994 -0.1087 -0.3787  0.0649
 3157TIP3   OH230885   1.418   2.367  14.181 -0.6982 -0.0098 -0.2393
 3157TIP3    H130886   1.483   2.347  14.249 -0.6285 -1.2426 -0.6576
 3157TIP3    H230887   1.446   2.315  14.106 -2.4189 -0.8784 -0.2880
 3158TIP3   OH230888   1.959   0.927  10.390 -0.0377  0.1819 -0.0633
 3158TIP3    H130889   1.898   0.884  10.448  1.3014 -1.7478 -0.0363
 3158TIP3    H230890   1.920   0.919  10.303 -1.1589  1.4538  0.3189
 3159TIP3   OH230891   3.029   3.554  14.280  0.0540 -0.0860 -0.0715
 3159TIP3    H130892   3.083   3.475  14.293 -1.3158 -1.1643 -0.8237
 3159TIP3    H230893   3.081   3.609  14.221  0.7243 -0.7060 -0.0717
 3160TIP3   OH230894   0.019   0.184  12.338  0.3659 -0.5415 -0.1090
 3160TIP3    H130895   0.082   0.117  12.310  0.3435 -0.6683  0.1469
 3160TIP3    H230896   0.074   0.257  12.367  0.3898  0.4283 -2.4960
 3161TIP3   OH230897   1.443   1.632  10.932  0.4027 -0.0107 -0.0419
 3161TIP3    H130898   1.358   1.596  10.958  0.3704  1.0973  1.4832
 3161TIP3    H230899   1.429   1.668  10.844 -1.0500  1.2159  0.6661
 3162TIP3   OH230900   2.584   3.479  12.107  0.3574  0.1227  0.2583
 3162TIP3    H130901   2.569   3.533  12.029 -0.0920  0.1539  0.3657
 3162TIP3    H230902   2.600   3.542  12.177  3.1823  0.0595 -0.2926
 3163TIP3   OH230903   1.662   1.254  11.311  0.0818  0.0864 -0.5351
 3163TIP3    H130904   1.669   1.268  11.216 -0.4326 -0.1659 -0.6100
 3163TIP3    H230905   1.577   1.212  11.323  1.3260 -2.4752 -0.2463
 3164TIP3   OH230906   1.138   6.871  12.472 -0.1254  0.0703 -0.1442
 3164TIP3    H130907   1.119   6.786  12.433 -1.2841  0.5804 -0.7327
 3164TIP3    H230908   1.075   6.878  12.544  0.7142 -0.0463  0.6034
 3165TIP3   OH230909   2.949   1.834  11.568 -0.3567 -0.2122  0.1382
 3165TIP3    H130910   2.964   1.893  11.494  2.4224 -0.1520  0.6865
 3165TIP3    H230911   2.939   1.748  11.529  0.1450 -0.0380 -0.3751
 3166TIP3   OH230912   2.575   6.009  14.177  0.1633  0.1249 -1.0021
 3166TIP3    H130913   2.541   6.066  14.246  0.3703  0.2080 -0.9696
 3166TIP3    H230914   2.598   6.068  14.105  0.2632  0.0716 -1.0146
 3167TIP3   OH230915   3.400   5.442  12.914 -0.3635 -0.2745  0.6550
 3167TIP3    H130916   3.382   5.487  12.832 -0.3687 -0.3902  0.5940
 3167TIP3    H230917   3.371   5.503  12.982 -1.9716 -0.8760  0.5428
 3168TIP3   OH230918   2.806   0.488  13.430 -0.0986 -0.1417 -0.0385
 3168TIP3    H130919   2.853   0.460  13.508  0.1532 -1.0983 -0.5256
 3168TIP3    H230920   2.867   0.472  13.358 -0.9498 -0.8762 -0.6154
 3169TIP3   OH230921   1.238   6.484  12.084  0.5704  0.4097  0.5413
 3169TIP3    H130922   1.158   6.478  12.136  1.6718 -1.3939  2.1014
 3169TIP3    H230923   1.211   6.524  12.002 -1.9657 -0.3841  0.9668
 3170TIP3   OH230924   2.571   2.187  13.613  0.0332  0.2377 -0.0753
 3170TIP3    H130925   2.526   2.103  13.607 -0.3550  0.5128 -1.1808
 3170TIP3    H230926   2.530   2.241  13.546 -0.9510  1.8997  1.8070
 3171TIP3   OH230927   1.686   5.925  12.443 -0.0659 -0.0548 -0.1839
 3171TIP3    H130928   1.750   5.979  12.490 -0.7470 -0.5366  1.3424
 3171TIP3    H230929   1.602   5.969  12.458 -0.2383  0.0221 -1.3333
 3172TIP3   OH230930   6.843   6.915  14.201  0.2321  0.2197  0.3508
 3172TIP3    H130931   6.855   6.880  14.289  0.4820 -0.3158  0.1115
 3172TIP3    H230932   6.757   6.957  14.202  0.3236  0.3885  0.9063
 3173TIP3   OH230933   1.886   4.775  12.217  0.1648 -0.0271  0.3246
 3173TIP3    H130934   1.829   4.701  12.199 -1.7043  1.5783 -0.5118
 3173TIP3    H230935   1.975   4.740  12.206 -0.6821 -1.9700 -0.6339
 3174TIP3   OH230936   0.594   7.059  10.162  0.0790  0.0994  0.4273
 3174TIP3    H130937   0.544   7.126  10.116 -0.5240 -0.0975  0.7912
 3174TIP3    H230938   0.636   7.106  10.234  0.9988  0.4014 -0.2925
 3175TIP3   OH230939   1.614   1.441  12.654 -0.2282  0.5829  0.8900
 3175TIP3    H130940   1.519   1.451  12.647 -0.1632  1.0032  0.5793
 3175TIP3    H230941   1.626   1.357  12.696 -0.7442  0.5720  1.0189
 3176TIP3   OH230942   1.116   3.135  13.069  0.0089  0.1897 -0.1213
 3176TIP3    H130943   1.110   3.143  13.164 -1.1661  2.6128 -0.3725
 3176TIP3    H230944   1.025   3.121  13.040  0.3543 -0.5124 -0.9114
 3177TIP3   OH230945   6.013   0.091  11.867 -0.2272 -0.1937  1.0176
 3177TIP3    H130946   6.098   0.116  11.902 -0.3764  1.9324 -0.0249
 3177TIP3    H230947   5.977   0.173  11.832 -1.8226 -1.4544 -0.3633
 3178TIP3   OH230948   6.557   6.080  13.739 -0.3459  0.2672 -0.0915
 3178TIP3    H130949   6.480   6.035  13.703 -1.4146  2.5456 -0.7404
 3178TIP3    H230950   6.604   6.112  13.662  0.0921  0.7619  0.3766
 3179TIP3   OH230951   2.510   2.326  13.942  0.1222 -0.0623 -0.5421
 3179TIP3    H130952   2.492   2.411  13.901 -0.8243  0.0900  0.1800
 3179TIP3    H230953   2.445   2.319  14.012 -1.3794 -2.4696 -2.1488
 3180TIP3   OH230954   3.500   2.030  10.944 -0.2773  0.4378 -0.1048
 3180TIP3    H130955   3.523   2.076  11.024 -2.0156 -1.2246  1.4048
 3180TIP3    H230956   3.560   1.955  10.941 -0.9662 -0.1369  0.2682
 3181TIP3   OH230957   2.495   1.280  11.420 -0.3126 -0.6301  0.1747
 3181TIP3    H130958   2.531   1.192  11.431  1.5030  0.1862  0.9106
 3181TIP3    H230959   2.499   1.296  11.325 -1.1228 -1.5252 -0.0150
 3182TIP3   OH230960   4.728   0.605  13.441  0.0337 -0.6697  0.4432
 3182TIP3    H130961   4.670   0.681  13.446 -0.1092 -0.7935  0.6665
 3182TIP3    H230962   4.669   0.530  13.434  0.1692 -0.7844  0.5189
 3183TIP3   OH230963   0.790   2.531  13.381 -0.2489 -0.4031 -0.4094
 3183TIP3    H130964   0.855   2.564  13.318 -1.0415  2.5740  0.2449
 3183TIP3    H230965   0.840   2.475  13.440  1.0204 -1.0414 -2.0426
 3184TIP3   OH230966   1.702   3.420  13.698  0.7957  0.0302 -0.7751
 3184TIP3    H130967   1.612   3.405  13.670  0.6901 -1.2109  0.2374
 3184TIP3    H230968   1.698   3.502  13.748  0.5370  0.8649 -2.1160
 3185TIP3   OH230969   0.183   2.881  13.105 -0.2146  0.0945  0.2639
 3185TIP3    H130970   0.276   2.860  13.095 -0.3459 -0.7152  0.6626
 3185TIP3    H230971   0.137   2.800  13.080 -0.8823  0.9389 -1.3655
 3186TIP3   OH230972   6.906   3.204  13.539  0.2792 -0.7060  0.3893
 3186TIP3    H130973   6.846   3.158  13.598  1.9534 -3.0910  0.3004
 3186TIP3    H230974   6.993   3.176  13.566  1.2359  0.8903 -0.9726
 3187TIP3   OH230975   0.438   0.262  13.256 -0.1532  0.8318 -0.1103
 3187TIP3    H130976   0.424   0.182  13.205  1.2491 -0.0226  0.8200
 3187TIP3    H230977   0.512   0.305  13.212 -0.3266  1.1680 -0.0725
 3188TIP3   OH230978   5.393   0.046  13.754  0.0104  0.1038  0.3821
 3188TIP3    H130979   5.442   0.118  13.793  1.5556 -0.5252 -0.3396
 3188TIP3    H230980   5.460  -0.011  13.716 -1.2238 -1.3734  0.3558
 3189TIP3   OH230981   0.683   4.792  11.627 -0.1478 -1.1519 -0.4962
 3189TIP3    H130982   0.614   4.742  11.585 -1.3699  0.7641 -0.8283
 3189TIP3    H230983   0.661   4.883  11.609  2.0483 -0.4836  0.0494
 3190TIP3   OH230984   0.606   1.966  10.642 -0.4311 -0.3474 -0.1915
 3190TIP3    H130985   0.617   1.882  10.597  3.9169 -0.1332  0.3032
 3190TIP3    H230986   0.611   2.031  10.572  0.4044 -0.3203 -0.1143
 3191TIP3   OH230987   1.212   1.210  14.031  0.4315  0.2365  0.3147
 3191TIP3    H130988   1.289   1.179  13.983  1.2192  1.8263  0.4991
 3191TIP3    H230989   1.144   1.221  13.964 -0.0282 -2.3113  0.3294
 3192TIP3   OH230990   1.001   1.521  10.083  0.3662 -0.0123 -0.2384
 3192TIP3    H130991   1.085   1.482  10.059  0.2569  0.4159 -1.3496
 3192TIP3    H230992   0.940   1.447  10.088  0.8805 -0.3540  0.8584
 3193TIP3   OH230993   4.615   0.029  15.781  0.2238  0.6125  0.3363
 3193TIP3    H130994   4.668   0.109  15.777  0.5096  0.3955 -0.5304
 3193TIP3    H230995   4.612  -0.001  15.690  1.2390 -1.0913  0.8324
 3194TIP3   OH230996   6.712   1.669  13.849  0.1347 -0.4044  0.1524
 3194TIP3    H130997   6.638   1.722  13.878  1.0289  0.6778  0.4836
 3194TIP3    H230998   6.705   1.668  13.753 -0.1013  0.0113  0.1647
 3195TIP3   OH230999   6.496   0.144  10.212 -0.6794 -0.2960  0.0856
 3195TIP3    H131000   6.590   0.139  10.230 -0.5025  2.1033  0.0002
 3195TIP3    H231001   6.477   0.238  10.207 -3.2156 -0.7168  0.7438
 3196TIP3   OH231002   2.945   5.141   0.076 -0.3095  0.1744 -0.2420
 3196TIP3    H131003   2.910   5.052   0.081 -1.1121  0.4948  0.0724
 3196TIP3    H231004   2.910   5.176  -0.005 -1.7584  0.9122  0.6743
 3197TIP3   OH231005   2.817   0.315  11.574 -0.0075  0.0230  0.0783
 3197TIP3    H131006   2.848   0.362  11.652  0.9301  0.0243 -0.2839
 3197TIP3    H231007   2.808   0.224  11.602  1.1898 -0.1419 -0.0335
 3198TIP3   OH231008   2.118   6.975  10.174 -0.2459 -0.6743 -0.2291
 3198TIP3    H131009   2.196   6.921  10.188 -0.6337 -0.8820  1.1911
 3198TIP3    H231010   2.140   7.059  10.215 -0.7961 -0.7687  0.2665
 3199TIP3   OH231011   3.774   6.844  10.974 -0.5099 -0.1630  0.2934
 3199TIP3    H131012   3.765   6.868  11.066 -1.8459  1.5194 -0.2527
 3199TIP3    H231013   3.836   6.907  10.938  0.6228 -1.3022  0.1928
 3200TIP3   OH231014   0.138   0.057  10.271  0.2371 -0.0711  0.4178
 3200TIP3    H131015   0.195   0.060  10.348 -1.8747  2.6403  1.9556
 3200TIP3    H231016   0.173   0.125  10.213  0.1196 -0.1953  0.1974
 3201TIP3   OH231017   7.273   5.249  12.854 -0.4093  0.4160 -0.1212
 3201TIP3    H131018   7.272   5.306  12.777 -2.3921  1.2456  0.4949
 3201TIP3    H231019   7.193   5.197  12.846  0.9159 -1.7023 -0.1995
 3202TIP3   OH231020   1.837   6.907  10.122 -0.2112  0.2797 -0.1548
 3202TIP3    H131021   1.853   6.879  10.032  0.1967  2.8798 -0.9307
 3202TIP3    H231022   1.918   6.887  10.168  0.6354  1.5741 -1.0561
 3203TIP3   OH231023   3.314   2.662  12.960  0.2828  0.5453 -0.1559
 3203TIP3    H131024   3.373   2.704  12.898 -0.8224  1.9404 -0.2763
 3203TIP3    H231025   3.256   2.732  12.990 -0.2872 -0.4692  1.1598
 3204TIP3   OH231026   0.427   3.820   0.569  0.8692  0.3262 -0.1018
 3204TIP3    H131027   0.411   3.748   0.509  1.5735  0.3805 -0.3656
 3204TIP3    H231028   0.435   3.897   0.513 -2.2308  1.0252  0.3521
 3205TIP3   OH231029   1.376   0.341  14.197 -0.2653  0.1319  0.3459
 3205TIP3    H131030   1.326   0.330  14.116  1.4667 -1.6169 -0.5442
 3205TIP3    H231031   1.328   0.407  14.247 -1.7447  0.7343 -1.8079
 3206TIP3   OH231032   7.280   6.515  12.043 -0.2764  0.3353  0.9171
 3206TIP3    H131033   7.209   6.526  11.979  0.2622  0.2891  0.3044
 3206TIP3    H231034   7.288   6.601  12.085  1.5761  1.3790 -1.4172
 3207TIP3   OH231035   6.576   3.428  12.211  0.3593  0.0707 -0.2209
 3207TIP3    H131036   6.639   3.383  12.154 -0.6862 -0.8209 -0.6925
 3207TIP3    H231037   6.526   3.358  12.251  0.0927  0.7593  0.6554
 3208TIP3   OH231038   6.479   0.848  13.062 -0.0541  0.4732  0.1393
 3208TIP3    H131039   6.525   0.901  13.128  2.0288 -1.1324  0.0409
 3208TIP3    H231040   6.548   0.796  13.022 -1.6146 -0.0507 -1.9277
 3209TIP3   OH231041   0.354   0.354  13.920 -0.1231 -0.4065  0.4344
 3209TIP3    H131042   0.316   0.357  14.008 -2.1551  1.9711 -0.4723
 3209TIP3    H231043   0.300   0.292  13.872 -1.1986  0.9348 -0.1008
 3210TIP3   OH231044   6.750   3.624  12.913 -0.1315  0.3526  0.4922
 3210TIP3    H131045   6.676   3.611  12.973  0.4771  0.0649  1.1777
 3210TIP3    H231046   6.717   3.687  12.849 -1.0720  0.0111  0.6309
 3211TIP3   OH231047   1.477   2.421  10.991 -0.0414  0.2888  0.1253
 3211TIP3    H131048   1.387   2.439  10.963 -0.1029 -0.7379 -0.3845
 3211TIP3    H231049   1.519   2.385  10.913  0.7075  0.3976  0.4716
 3212TIP3   OH231050   0.451   2.014  15.537 -0.1644 -0.5455  0.3550
 3212TIP3    H131051   0.397   1.937  15.556 -0.1561 -0.7407 -0.3817
 3212TIP3    H231052   0.527   1.979  15.489  0.2899 -0.1924  0.8126
 3213TIP3   OH231053   2.263   7.283  11.726  0.3804  0.2804  0.3605
 3213TIP3    H131054   2.302   7.369  11.741 -1.5623  0.7153  3.3202
 3213TIP3    H231055   2.178   7.287  11.770 -0.8947 -2.2838 -1.7127
 3214TIP3   OH231056   4.398   1.276  13.199 -0.5470  0.3625  0.7548
 3214TIP3    H131057   4.492   1.292  13.213 -0.3765 -0.8654  1.0403
 3214TIP3    H231058   4.356   1.309  13.279 -0.3592  0.8426  0.6573
 3215TIP3   OH231059   1.529   1.171  15.370  0.1746 -0.4074 -0.9402
 3215TIP3    H131060   1.492   1.213  15.293 -0.3957  1.0722  0.0982
 3215TIP3    H231061   1.609   1.221  15.389  1.5562 -2.1948 -1.8796
 3216TIP3   OH231062   0.941   0.489  13.058 -0.3637  0.0498 -0.5023
 3216TIP3    H131063   0.979   0.449  13.135 -0.8510 -1.3007 -0.9493
 3216TIP3    H231064   1.014   0.500  12.997 -0.1588  0.2053 -0.2262
 3217TIP3   OH231065   6.667   0.384  11.547 -0.2226  0.3041  0.3943
 3217TIP3    H131066   6.753   0.407  11.510 -1.5765  2.2325 -1.6368
 3217TIP3    H231067   6.633   0.467  11.581 -0.9912 -0.5953  1.8461
 3218TIP3   OH231068   2.064   5.731  10.889  0.3114  0.3524  0.8034
 3218TIP3    H131069   2.100   5.820  10.890 -3.2548  1.8876  0.3923
 3218TIP3    H231070   2.034   5.719  10.799 -0.1228 -0.8796  1.1124
 3219TIP3   OH231071   6.184   1.525  13.941  0.7711  0.0495 -0.0095
 3219TIP3    H131072   6.218   1.454  13.995  0.9523  0.9399  1.0586
 3219TIP3    H231073   6.253   1.541  13.877  1.8375  1.0007  1.3635
 3220TIP3   OH231074   2.103   1.620  12.110 -0.2296 -0.0260  0.2094
 3220TIP3    H131075   2.071   1.592  12.196 -0.7018 -0.6296 -0.1595
 3220TIP3    H231076   2.054   1.701  12.092 -0.6621 -0.2887  0.1910
 3221TIP3   OH231077   3.194   4.019  11.484 -0.4781 -0.1321  0.0813
 3221TIP3    H131078   3.264   3.962  11.452  0.3813  1.2777 -0.5943
 3221TIP3    H231079   3.178   4.080  11.413 -2.2672 -0.2869  0.3122
 3222TIP3   OH231080   6.589   3.665  13.117 -0.4847  0.8994 -0.6873
 3222TIP3    H131081   6.641   3.639  13.193 -0.8963  1.2791 -0.2737
 3222TIP3    H231082   6.515   3.604  13.116 -0.5202  0.9430 -0.7419
 3223TIP3   OH231083   6.233   1.226  10.236 -0.5564  0.3461  0.1391
 3223TIP3    H131084   6.268   1.259  10.319  0.3504  0.1088 -0.1375
 3223TIP3    H231085   6.289   1.151  10.215 -0.0479  1.0903 -1.2490
 3224TIP3   OH231086   2.168   1.523  10.125 -0.5049  0.1694  0.2222
 3224TIP3    H131087   2.211   1.548  10.043  0.7340  1.1021  1.1383
 3224TIP3    H231088   2.136   1.434  10.109 -0.8412  0.5639 -1.4773
 3225TIP3   OH231089   1.517   1.398  14.552 -0.0537 -0.5259 -0.1341
 3225TIP3    H131090   1.446   1.405  14.488  1.1879  0.5745 -1.4317
 3225TIP3    H231091   1.560   1.315  14.530  0.1183 -0.3496 -0.4707
 3226TIP3   OH231092   2.293   6.762  13.052  0.1185 -0.0058 -0.2763
 3226TIP3    H131093   2.308   6.856  13.040  0.2962  0.0896  0.5904
 3226TIP3    H231094   2.339   6.720  12.980 -0.7018  0.6199 -1.1669
 3227TIP3   OH231095   1.292   6.668  11.607 -0.1280  0.0638 -0.7563
 3227TIP3    H131096   1.209   6.671  11.559  0.3065  0.1705 -1.4971
 3227TIP3    H231097   1.272   6.708  11.691 -1.0779 -0.7997 -0.5595
 3228TIP3   OH231098   5.673   2.522  10.352 -0.1394  0.1329 -0.7075
 3228TIP3    H131099   5.708   2.561  10.432 -0.6368 -0.5464 -0.1509
 3228TIP3    H231100   5.667   2.594  10.290 -1.6896  1.0734  0.5213
 3229TIP3   OH231101   0.794   6.495  12.985 -0.5806  0.4760  0.2363
 3229TIP3    H131102   0.874   6.522  12.940 -1.2488 -1.0992 -1.9599
 3229TIP3    H231103   0.725   6.548  12.947 -1.0003 -0.1659  0.0963
 3230TIP3   OH231104   0.870   1.696  10.744 -0.2880 -0.1545  0.0012
 3230TIP3    H131105   0.891   1.744  10.663 -0.9283 -1.4415 -0.9354
 3230TIP3    H231106   0.775   1.694  10.747 -0.2681 -1.1165  0.1778
 3231TIP3   OH231107   0.850   3.632  13.958  0.3995  0.0196 -0.8988
 3231TIP3    H131108   0.909   3.648  13.884  1.7644  0.2539  0.2274
 3231TIP3    H231109   0.765   3.663  13.927  1.1824  1.1745 -1.9649
 3232TIP3   OH231110   3.736   0.629  12.334 -0.3017 -0.4013 -0.6822
 3232TIP3    H131111   3.676   0.593  12.269 -1.5964 -2.5789  1.6320
 3232TIP3    H231112   3.791   0.555  12.360 -0.2875  0.2234  1.1835
 3233TIP3   OH231113   3.430   1.790  14.578 -0.0398  0.3077 -0.1258
 3233TIP3    H131114   3.337   1.777  14.600 -0.6764 -1.1278 -3.3983
 3233TIP3    H231115   3.440   1.885  14.573 -0.7995  0.5624  2.1974
 3234TIP3   OH231116   1.636   2.977  11.151 -0.0529  0.1530  0.3854
 3234TIP3    H131117   1.547   3.009  11.136  0.2942  0.8563 -0.2020
 3234TIP3    H231118   1.656   3.005  11.240 -0.5429 -0.2910  0.6361
 3235TIP3   OH231119   0.358   3.043  12.252  0.3730 -0.3771  0.5148
 3235TIP3    H131120   0.433   3.099  12.231  1.8736 -1.3429  3.0751
 3235TIP3    H231121   0.294   3.103  12.291 -0.3084  0.4745 -1.7948
 3236TIP3   OH231122   1.498   6.603  10.121 -0.1868  0.3929  0.1812
 3236TIP3    H131123   1.427   6.615  10.057 -0.6441  1.9952  0.9569
 3236TIP3    H231124   1.571   6.570  10.070 -1.2374 -0.5360 -0.7748
 3237TIP3   OH231125   0.993   6.612  11.577 -0.0321  0.6629  0.6564
 3237TIP3    H131126   0.937   6.547  11.618  1.5336 -0.2141  1.4305
 3237TIP3    H231127   0.979   6.692  11.628 -0.0683  0.2611  1.2802
 3238TIP3   OH231128   3.463   5.203  13.032 -0.0553  0.2496  0.2503
 3238TIP3    H131129   3.471   5.282  12.977  0.6163 -0.6354 -0.9387
 3238TIP3    H231130   3.554   5.179  13.051 -0.2712 -0.0327  0.9271
 3239TIP3   OH231131   2.420   6.753  13.292 -0.1551  0.2937 -0.0092
 3239TIP3    H131132   2.360   6.723  13.224  0.5757  0.2053 -0.6131
 3239TIP3    H231133   2.502   6.769  13.247  2.0416 -5.1157  1.7006
 3240TIP3   OH231134   2.402   0.148  14.111  0.3212 -0.0492 -0.4044
 3240TIP3    H131135   2.361   0.221  14.065 -0.1305 -1.0702 -1.6480
 3240TIP3    H231136   2.496   0.164  14.104  0.1940  1.6061  1.3152
 3241TIP3   OH231137   7.009   2.605  10.065 -0.4436 -0.2168  0.3425
 3241TIP3    H131138   6.945   2.636  10.001 -0.6791  0.5130  0.9268
 3241TIP3    H231139   7.078   2.671  10.062  0.6220 -1.3384 -0.7750
 3242TIP3   OH231140   0.703   5.502  12.236 -0.3220 -0.0674 -0.1467
 3242TIP3    H131141   0.784   5.553  12.237 -0.8400  0.8001 -1.5770
 3242TIP3    H231142   0.719   5.431  12.299  0.3553  1.8865  1.9472
 3243TIP3   OH231143   6.224   3.555  11.390 -0.1214  0.2453  0.2132
 3243TIP3    H131144   6.210   3.648  11.409 -2.0860 -0.1325  0.7332
 3243TIP3    H231145   6.204   3.547  11.296  0.8017  0.4857 -0.0053
 3244TIP3   OH231146   2.398   6.460  10.471 -0.3427  0.0310  0.1272
 3244TIP3    H131147   2.372   6.368  10.474  0.7968 -0.3217 -0.5072
 3244TIP3    H231148   2.437   6.477  10.557  1.8294 -0.8148 -0.6656
 3245TIP3   OH231149   6.929   1.598  12.249 -0.2509 -0.0141 -0.2762
 3245TIP3    H131150   6.876   1.555  12.317  1.1094 -1.3668 -0.0598
 3245TIP3    H231151   7.019   1.592  12.281  0.0870  2.1013 -0.7433
 3246TIP3   OH231152   0.067   7.178  12.186  0.3383  0.0438 -0.0378
 3246TIP3    H131153   0.050   7.208  12.276  0.4612 -0.0972  0.0324
 3246TIP3    H231154  -0.014   7.196  12.139  0.6710  1.2094 -0.1889
 3247TIP3   OH231155   4.081   0.983  10.984  0.0181  0.0809  0.5642
 3247TIP3    H131156   4.034   1.028  10.913  2.2455 -0.7507 -1.5033
 3247TIP3    H231157   4.034   1.008  11.063 -2.4628  1.1688 -1.1738
 3248TIP3   OH231158   1.897   1.090  10.695  0.3517  0.3395  0.4241
 3248TIP3    H131159   1.939   1.107  10.779  0.8173 -3.2573  1.0077
 3248TIP3    H231160   1.950   1.137  10.631  2.6228 -0.4864  1.6558
 3249TIP3   OH231161   1.757   7.055   1.010  0.5563  0.3915 -0.4852
 3249TIP3    H131162   1.745   6.981   0.951  0.3538 -0.6855  0.8727
 3249TIP3    H231163   1.828   7.106   0.971  1.1153 -0.8467 -1.1090
 3250TIP3   OH231164   5.022   1.327  15.625 -0.2602 -0.2449 -0.0056
 3250TIP3    H131165   5.002   1.420  15.614  1.0333  0.0915  0.3936
 3250TIP3    H231166   5.001   1.288  15.540 -3.8824 -0.1960  0.7564
 3251TIP3   OH231167   1.370   4.202  10.514 -0.0785 -0.3276  0.0828
 3251TIP3    H131168   1.409   4.115  10.515  1.0281  0.1532  0.2295
 3251TIP3    H231169   1.372   4.230  10.606 -0.6372 -0.2351  0.0689
 3252TIP3   OH231170   0.616   1.632  10.661  0.0510 -0.5030  0.1717
 3252TIP3    H131171   0.541   1.678  10.700  1.1290 -0.3927  2.1913
 3252TIP3    H231172   0.583   1.544  10.642 -0.9141 -0.0976 -0.0408
 3253TIP3   OH231173   6.402   2.279  13.995 -0.4230  0.9007  0.1077
 3253TIP3    H131174   6.441   2.203  14.038 -0.2037  0.7941 -0.2759
 3253TIP3    H231175   6.375   2.335  14.067  1.3079  1.4218  0.3909
 3254TIP3   OH231176   7.260   7.288  13.214  0.0364 -0.2236 -0.0841
 3254TIP3    H131177   7.232   7.263  13.302 -2.8224 -0.4114 -0.9843
 3254TIP3    H231178   7.285   7.205  13.172  1.1965 -0.1593  0.4496
 3255TIP3   OH231179   1.547   1.894  11.000  0.2530 -1.0006 -0.3068
 3255TIP3    H131180   1.527   1.924  10.911 -1.2758 -1.6299 -0.1965
 3255TIP3    H231181   1.505   1.808  11.005  0.5695 -1.0843  0.9388
 3256TIP3   OH231182   7.054   2.584  12.567 -0.0600 -0.1799 -0.7243
 3256TIP3    H131183   6.977   2.537  12.534  0.3805 -0.7803 -0.9140
 3256TIP3    H231184   7.120   2.572  12.499  0.0862  0.6468 -0.7274
 3257TIP3   OH231185   5.456   4.075  11.911  0.3406  0.3825 -0.2891
 3257TIP3    H131186   5.538   4.027  11.897 -0.6796 -2.0340  1.5395
 3257TIP3    H231187   5.473   4.129  11.988  0.9990  1.8370 -1.4318
 3258TIP3   OH231188   6.346   7.060  13.335  0.3117 -0.7692  0.6717
 3258TIP3    H131189   6.375   7.052  13.244 -1.4940 -0.4904  0.0429
 3258TIP3    H231190   6.334   7.154  13.348 -1.3746 -0.9637  0.5630
 3259TIP3   OH231191   6.071   6.743  13.665 -0.1281 -0.0021 -0.8861
 3259TIP3    H131192   6.138   6.801  13.629  0.1500 -0.2526 -0.7655
 3259TIP3    H231193   6.092   6.656  13.631  0.4614 -0.3472  0.3062
 3260TIP3   OH231194   3.664   6.299  10.623 -0.1908 -0.0354  0.1124
 3260TIP3    H131195   3.681   6.205  10.610 -0.5573 -0.0423 -0.3087
 3260TIP3    H231196   3.746   6.333  10.659  0.1425 -0.4056 -0.2906
 3261TIP3   OH231197   1.258   1.519  14.033 -0.3543 -0.1835 -0.4748
 3261TIP3    H131198   1.241   1.592  13.973 -2.1771 -0.2843 -0.1213
 3261TIP3    H231199   1.266   1.443  13.977 -0.4603 -0.0206 -0.7109
 3262TIP3   OH231200   2.252   1.806  14.881  0.1498  0.2757  0.0779
 3262TIP3    H131201   2.258   1.830  14.974 -0.8585  0.9350 -0.0250
 3262TIP3    H231202   2.343   1.795  14.854  0.4384 -0.5035  1.2923
 3263TIP3   OH231203   6.337   1.846  11.047  0.8191  0.2977 -0.2817
 3263TIP3    H131204   6.335   1.882  10.959  0.6218  1.9695  0.3888
 3263TIP3    H231205   6.368   1.918  11.102  1.4909 -0.9029  0.9301
 3264TIP3   OH231206   6.659   2.790   1.318 -0.2129 -0.1430  0.0958
 3264TIP3    H131207   6.748   2.782   1.354 -0.6887 -0.2259  1.2767
 3264TIP3    H231208   6.604   2.742   1.380 -1.1181  0.0925 -0.5142
 3265TIP3   OH231209   4.430   0.139  14.172 -0.0786  0.3374 -0.0151
 3265TIP3    H131210   4.459   0.228  14.190 -0.6350  0.4566  0.3104
 3265TIP3    H231211   4.341   0.135  14.208  0.1915 -0.5467  0.5899
 3266TIP3   OH231212   2.260   2.541  14.858 -0.6207  0.2727 -0.1856
 3266TIP3    H131213   2.228   2.602  14.792  1.5666  1.0794 -0.5265
 3266TIP3    H231214   2.224   2.456  14.830 -1.9389  1.0363 -0.8814
 3267TIP3   OH231215   1.798   1.365  12.055 -0.1292 -0.2866 -0.3968
 3267TIP3    H131216   1.862   1.332  12.119  0.0515 -1.1143 -1.0034
 3267TIP3    H231217   1.714   1.359  12.101  0.1974  0.6208  0.3343
 3268TIP3   OH231218   2.434   1.921  10.975  0.1629  0.0563 -0.2033
 3268TIP3    H131219   2.512   1.866  10.979 -0.3620 -0.6318  0.7048
 3268TIP3    H231220   2.387   1.889  10.898 -0.1023 -0.7307  0.2758
 3269TIP3   OH231221   1.151   7.194  14.766  0.4158  0.3928 -1.1781
 3269TIP3    H131222   1.223   7.186  14.828 -0.1680  1.5144 -0.3399
 3269TIP3    H231223   1.123   7.104  14.750  1.9408 -0.0469 -1.4490
 3270TIP3   OH231224   1.254   0.930  10.389 -0.2541  0.1144 -0.0227
 3270TIP3    H131225   1.217   1.013  10.421 -0.2388  0.0677  0.1172
 3270TIP3    H231226   1.241   0.869  10.462 -0.1184  0.0353 -0.0656
 3271TIP3   OH231227   0.596   2.247  14.841  0.0580 -0.1471  0.2733
 3271TIP3    H131228   0.628   2.164  14.805  0.8992 -0.1987  1.1298
 3271TIP3    H231229   0.676   2.294  14.865 -0.4324  0.7849  0.0726
 3272TIP3   OH231230   1.180   1.819  10.499  0.9092 -0.4169  0.2715
 3272TIP3    H131231   1.250   1.867  10.455 -2.9097  1.3436 -4.3044
 3272TIP3    H231232   1.158   1.747  10.440 -0.8068 -1.2527  1.8559
 3273TIP3   OH231233   0.343   0.391  11.415 -0.1986  0.1444 -0.1258
 3273TIP3    H131234   0.256   0.428  11.428 -0.5405 -0.4779 -0.6577
 3273TIP3    H231235   0.351   0.380  11.321  0.1794 -0.4715 -0.0237
 3274TIP3   OH231236   5.945   1.316  15.111 -0.6693 -0.6092  0.1467
 3274TIP3    H131237   6.040   1.302  15.111 -0.8811 -2.2231  0.6420
 3274TIP3    H231238   5.919   1.301  15.201 -1.6075 -1.8214 -0.3124
 3275TIP3   OH231239   2.749   6.492  13.372 -0.5069 -0.2519  0.1741
 3275TIP3    H131240   2.738   6.575  13.417 -0.1859  0.4189 -0.9847
 3275TIP3    H231241   2.663   6.449  13.382 -0.7983  0.3745  0.4185
 3276TIP3   OH231242   0.475   7.255  10.865 -0.2695  0.1335 -0.0154
 3276TIP3    H131243   0.519   7.259  10.780  0.0056  2.2276  0.1978
 3276TIP3    H231244   0.545   7.269  10.928 -0.5626 -0.8693  0.5375
 3277TIP3   OH231245   2.364   5.862  12.652 -0.0098  0.5023  0.5011
 3277TIP3    H131246   2.288   5.905  12.690 -1.7422 -1.6686 -0.3527
 3277TIP3    H231247   2.439   5.903  12.695 -1.6354  2.7452  1.3150
 3278TIP3   OH231248   2.833   4.370  14.033 -0.1101  0.0819 -0.2047
 3278TIP3    H131249   2.834   4.462  14.059  1.5946 -0.3384  1.2892
 3278TIP3    H231250   2.894   4.327  14.093  0.3491 -1.7345 -1.9043
 3279TIP3   OH231251   3.608   2.243  13.133 -0.0110 -0.1325  0.0812
 3279TIP3    H131252   3.522   2.215  13.164 -0.4322  0.3208 -0.6612
 3279TIP3    H231253   3.666   2.169  13.155 -0.8223 -0.9720 -0.5404
 3280TIP3   OH231254   0.612   1.278  11.669  0.3554  0.1017  0.0372
 3280TIP3    H131255   0.546   1.300  11.734  0.9286  1.2546  0.2599
 3280TIP3    H231256   0.690   1.327  11.697  0.8513 -0.0609 -1.0352
 3281TIP3   OH231257   3.824   1.386  10.992 -0.1235 -0.0560  0.6171
 3281TIP3    H131258   3.916   1.411  11.001 -0.7208  2.2154  0.6337
 3281TIP3    H231259   3.789   1.389  11.081 -1.0798  2.6707  0.1960
 3282TIP3   OH231260   5.777   6.362  11.919  0.3251  0.1905  0.0825
 3282TIP3    H131261   5.730   6.422  11.862  2.3474  1.5637 -0.1930
 3282TIP3    H231262   5.776   6.278  11.872 -1.7445  0.2108  0.0592
 3283TIP3   OH231263   2.802   0.909  12.144  0.0833 -0.1728  0.2435
 3283TIP3    H131264   2.715   0.869  12.152  0.6739 -1.7814 -1.1534
 3283TIP3    H231265   2.787   0.989  12.094 -0.9988  1.0349  2.4299
 3284TIP3   OH231266   3.848   5.181  11.381  0.3381  0.3320  0.5699
 3284TIP3    H131267   3.915   5.135  11.432 -0.0356 -0.8711 -0.0167
 3284TIP3    H231268   3.778   5.117  11.369  0.1299  0.8279 -0.8819
 3285TIP3   OH231269   0.268   1.811  15.550 -0.0544 -0.0865  0.2427
 3285TIP3    H131270   0.254   1.834  15.458  0.7200  1.6333  0.5241
 3285TIP3    H231271   0.187   1.767  15.576  0.3182 -1.9748 -1.6629
 3286TIP3   OH231272   6.043   5.447  13.591 -0.0809 -0.1705 -0.3096
 3286TIP3    H131273   5.966   5.482  13.637  0.5787  0.1925  0.5287
 3286TIP3    H231274   6.080   5.383  13.651  0.3391 -0.2592 -0.6613
 3287TIP3   OH231275   5.049   6.711  15.909  0.0319 -0.1480  0.7177
 3287TIP3    H131276   5.086   6.757  15.984  1.4491  0.7816 -0.5320
 3287TIP3    H231277   4.954   6.722  15.918  0.2883  1.8348  1.1831
 3288TIP3   OH231278   1.603   4.076  13.942  0.2931  0.1136 -0.2999
 3288TIP3    H131279   1.594   3.987  13.909  0.6669  0.0812 -0.3224
 3288TIP3    H231280   1.526   4.122  13.910 -0.2607 -0.3825  0.3135
 3289TIP3   OH231281   0.930   1.384  13.780 -0.0959 -0.2939 -0.3375
 3289TIP3    H131282   0.861   1.377  13.713 -0.4248 -1.0830  0.0740
 3289TIP3    H231283   0.904   1.459  13.833 -0.9348 -0.8895  0.1270
 3290TIP3   OH231284   6.593   3.768   0.364 -0.5250 -0.8489 -0.2932
 3290TIP3    H131285   6.547   3.722   0.434  2.5009 -2.1545  0.9567
 3290TIP3    H231286   6.678   3.723   0.358  1.2419  2.4487 -1.3446
 3291TIP3   OH231287   4.632   7.241  14.176 -0.2967  0.4209  0.0194
 3291TIP3    H131288   4.704   7.280  14.227 -1.2889  0.2365  1.5941
 3291TIP3    H231289   4.559   7.302  14.187 -1.2124 -0.7723  0.7237
 3292TIP3   OH231290   0.522   0.068  13.798 -0.4020 -0.0042 -0.7260
 3292TIP3    H131291   0.505   0.130  13.728 -0.2684 -0.4814 -1.1825
 3292TIP3    H231292   0.557  -0.010  13.754 -1.1810 -0.6453 -0.2247
 3293TIP3   OH231293   1.513   1.997  10.768 -0.4444 -0.0863 -0.3077
 3293TIP3    H131294   1.435   2.048  10.746  0.8680  1.2122 -2.0574
 3293TIP3    H231295   1.545   1.964  10.685  1.8308  0.8162  0.1699
 3294TIP3   OH231296   7.049   3.059  11.218  0.0967 -0.1212 -0.1942
 3294TIP3    H131297   6.965   3.053  11.263 -0.4991  1.3227 -1.0894
 3294TIP3    H231298   7.026   3.070  11.125  1.2433  1.0416 -0.3512
 3295TIP3   OH231299   3.719   1.023  11.045  0.1756 -0.4527  0.8230
 3295TIP3    H131300   3.789   1.082  11.074  0.0728  1.6841 -2.9347
 3295TIP3    H231301   3.638   1.063  11.078  0.0804  1.7747 -1.9280
 3296TIP3   OH231302   6.887   4.748  10.996  0.2714  0.0989 -0.2575
 3296TIP3    H131303   6.859   4.694  11.069 -0.6860  0.9920  0.0450
 3296TIP3    H231304   6.930   4.823  11.037  0.3427  0.2644 -0.6355
 3297TIP3   OH231305   1.225   6.987  12.111  0.6467  0.3975 -0.0165
 3297TIP3    H131306   1.295   7.043  12.077  0.8533  0.9531  1.2721
 3297TIP3    H231307   1.155   7.049  12.136  0.3039 -0.0311  0.0941
 3298TIP3   OH231308   3.724   6.732  11.535  0.0554 -0.7572 -0.1361
 3298TIP3    H131309   3.669   6.738  11.457 -2.1963  2.3397  1.5833
 3298TIP3    H231310   3.743   6.822  11.559  0.2356 -1.6030  3.1987
 3299TIP3   OH231311   1.745   0.735  10.500  0.2119  0.5977 -0.0841
 3299TIP3    H131312   1.791   0.669  10.448 -0.4426  0.2090 -0.1698
 3299TIP3    H231313   1.653   0.727  10.474 -0.1904  0.1116  1.4235
 3300TIP3   OH231314   3.038   7.086  10.718  0.4684  0.1428 -0.6154
 3300TIP3    H131315   3.109   7.035  10.758  1.0133  0.0006 -1.7535
 3300TIP3    H231316   3.027   7.048  10.631 -0.7909  0.3787 -0.5644
 3301TIP3   OH231317   2.908   0.465  12.976 -0.6221  0.2870  0.6092
 3301TIP3    H131318   2.894   0.374  12.947 -1.7125  0.3865  0.8276
 3301TIP3    H231319   2.866   0.518  12.909 -0.3299  0.6284  0.6940
 3302TIP3   OH231320   1.490   3.833  11.143 -0.3784  0.3438  0.0290
 3302TIP3    H131321   1.573   3.879  11.154 -1.2325  1.7054  0.8957
 3302TIP3    H231322   1.424   3.902  11.142 -1.6984 -0.8659  1.5357
 3303TIP3   OH231323   1.202   1.945  14.596  0.0106 -0.4988 -0.4519
 3303TIP3    H131324   1.180   1.942  14.503 -2.3951 -1.1594  0.1130
 3303TIP3    H231325   1.196   1.855  14.626  1.0066 -0.3247  0.3009
 3304TIP3   OH231326   2.405   5.147  12.355 -0.4501  0.2405 -0.3752
 3304TIP3    H131327   2.371   5.181  12.438 -1.3498  0.4255 -0.8175
 3304TIP3    H231328   2.327   5.121  12.306  0.0913 -0.0562 -1.0820
 3305TIP3   OH231329   1.834   0.937  11.289 -0.0084 -0.6822  0.3570
 3305TIP3    H131330   1.923   0.902  11.286 -0.2993 -1.3413 -0.7888
 3305TIP3    H231331   1.840   1.021  11.243  0.1528 -0.4132  0.8631
 3306TIP3   OH231332   0.379   6.570  12.153 -0.3232  0.8284 -0.2089
 3306TIP3    H131333   0.329   6.610  12.081 -1.9528  0.0925  0.4858
 3306TIP3    H231334   0.457   6.536  12.111 -0.8937  1.0870 -1.5141
 3307TIP3   OH231335   0.064   1.993  11.760 -0.0611 -0.7040  0.1713
 3307TIP3    H131336   0.088   2.085  11.745 -2.3281 -0.1596 -0.3136
 3307TIP3    H231337   0.123   1.964  11.830  1.5868  0.7074 -0.6006
 3308TIP3   OH231338   1.079   4.096  15.784  0.0708 -0.3954  0.1643
 3308TIP3    H131339   1.097   4.013  15.828  2.4040  0.2110  0.4041
 3308TIP3    H231340   1.044   4.152  15.853  1.3793 -0.2261  0.6964
 3309TIP3   OH231341   2.579   1.583   0.601  0.0409 -0.5847  0.1681
 3309TIP3    H131342   2.488   1.603   0.581  0.6267  0.3733 -1.7137
 3309TIP3    H231343   2.616   1.667   0.630  0.8990 -0.4046 -1.3954
 3310TIP3   OH231344   6.715   1.515  12.431 -0.1671  0.2005 -0.1525
 3310TIP3    H131345   6.663   1.540  12.354  0.1509  1.2154 -0.0428
 3310TIP3    H231346   6.731   1.422  12.419 -0.1274  0.3470 -1.3254
 3311TIP3   OH231347   2.191   0.638  14.921  0.2737  0.2529  0.6631
 3311TIP3    H131348   2.187   0.553  14.877 -1.6176  0.1051  1.0927
 3311TIP3    H231349   2.283   0.646  14.948  0.9628 -0.6428 -1.3117
 3312TIP3   OH231350   5.176   0.804  11.306  0.2854 -0.0838 -0.4018
 3312TIP3    H131351   5.166   0.870  11.375 -0.2675 -1.5442  0.9447
 3312TIP3    H231352   5.246   0.747  11.337  1.2262  0.2382 -1.8756
 3313TIP3   OH231353   6.521   0.929  10.975 -0.3973  0.1185  0.0384
 3313TIP3    H131354   6.484   0.965  10.894 -0.7546  1.3444  0.7227
 3313TIP3    H231355   6.484   0.841  10.982 -0.7846  0.2092 -0.8589
 3314TIP3   OH231356   6.259   6.986   0.608 -0.1037  0.2707  0.4809
 3314TIP3    H131357   6.211   7.010   0.529  0.3945 -2.1959 -0.6397
 3314TIP3    H231358   6.351   6.981   0.579 -0.0898 -2.0180  0.8415
 3315TIP3   OH231359   2.328   0.013  12.518  0.6276 -0.1253  0.0763
 3315TIP3    H131360   2.294  -0.068  12.480  0.3348 -0.0460  0.1664
 3315TIP3    H231361   2.254   0.048  12.568  0.5940  0.4564 -0.3775
 3316TIP3   OH231362   6.422   0.818  11.672 -0.7827  0.3895  0.0729
 3316TIP3    H131363   6.405   0.912  11.669 -3.1827  0.0405  1.2932
 3316TIP3    H231364   6.394   0.786  11.586  0.2602  0.8022 -0.4318
 3317TIP3   OH231365   5.307   0.658  14.666  0.2476 -0.2874  0.3699
 3317TIP3    H131366   5.350   0.578  14.696 -1.8393 -2.0818 -1.2949
 3317TIP3    H231367   5.242   0.678  14.734 -0.2276 -0.8505  0.0871
 3318TIP3   OH231368   0.178   0.074  13.517 -0.1507  0.0289 -0.2474
 3318TIP3    H131369   0.170   0.155  13.465 -0.6528  0.0602 -0.1222
 3318TIP3    H231370   0.119   0.088  13.591 -0.6853 -0.6937 -0.5328
 3319TIP3   OH231371   4.015   6.896  13.859 -0.0421 -0.1358  0.4566
 3319TIP3    H131372   4.029   6.810  13.819 -0.6348 -0.4392  0.8771
 3319TIP3    H231373   3.944   6.935  13.807  1.5298  0.9098 -0.9473
 3320TIP3   OH231374   2.948   0.280  10.724 -0.1871  0.5134 -0.3361
 3320TIP3    H131375   2.855   0.283  10.747 -0.4043 -0.9642 -0.9578
 3320TIP3    H231376   2.949   0.284  10.629  0.4091  0.9635 -0.3097
 3321TIP3   OH231377   1.867   6.231  11.040 -0.7180 -0.4519  0.5172
 3321TIP3    H131378   1.893   6.321  11.022  0.6618 -1.0181 -0.4859
 3321TIP3    H231379   1.800   6.212  10.975  1.0531 -1.0431 -1.2105
 3322TIP3   OH231380   1.606   3.960  11.891  0.0561 -0.2271 -0.0786
 3322TIP3    H131381   1.598   3.867  11.911 -0.6249  0.1570  1.5098
 3322TIP3    H231382   1.599   4.004  11.976  2.6258  1.1518 -0.5332
 3323TIP3   OH231383   5.393   0.856  14.048  0.0348  0.0209 -0.1892
 3323TIP3    H131384   5.300   0.847  14.028 -0.1487 -0.3151  0.8059
 3323TIP3    H231385   5.430   0.897  13.969 -1.0070  0.4656 -0.4603
 3324TIP3   OH231386   6.834   3.760  13.835  0.1384  0.5232  0.6898
 3324TIP3    H131387   6.760   3.809  13.871  2.0544  1.2524  3.8104
 3324TIP3    H231388   6.812   3.668  13.852 -1.1909  0.5483 -0.7356
 3325TIP3   OH231389   6.959   2.070  14.300  0.2881  0.3327  0.3833
 3325TIP3    H131390   6.983   1.989  14.254  0.6008 -0.1649  1.4065
 3325TIP3    H231391   7.013   2.138  14.259  2.3219 -0.5013  1.5912
 3326TIP3   OH231392   0.904   7.273  10.591 -0.9080 -0.5988  0.8499
 3326TIP3    H131393   0.940   7.229  10.668  0.0841  0.5919  1.0613
 3326TIP3    H231394   0.979   7.313  10.547 -1.2723 -2.2553 -1.4177
 3327TIP3   OH231395   0.356   1.536  14.206 -0.1858 -0.2980  0.3788
 3327TIP3    H131396   0.272   1.525  14.251  0.2571 -0.9697  1.0408
 3327TIP3    H231397   0.422   1.520  14.273  0.4770  0.1703 -0.1569
 3328TIP3   OH231398   2.217   4.379  11.570  0.2084  0.1233  0.2280
 3328TIP3    H131399   2.260   4.338  11.645  1.9463 -0.6497 -1.1342
 3328TIP3    H231400   2.280   4.367  11.498 -2.2277 -0.8715 -1.8005
 3329TIP3   OH231401   2.751   2.303  13.260  0.2073  0.4953 -0.3538
 3329TIP3    H131402   2.767   2.210  13.278  0.0017  0.5699  0.2259
 3329TIP3    H231403   2.838   2.343  13.266  0.0094  0.6913  1.5436
 3330TIP3   OH231404   0.413   4.118  14.743  0.1848  0.2204 -0.0283
 3330TIP3    H131405   0.489   4.137  14.798 -0.4055  2.7102 -0.0110
 3330TIP3    H231406   0.422   4.025  14.721  1.8912 -0.1383  2.0014
 3331TIP3   OH231407   7.033   0.885  15.528 -0.0447  0.0698  0.1353
 3331TIP3    H131408   7.001   0.918  15.612  1.1818  1.7799 -0.0412
 3331TIP3    H231409   7.110   0.939  15.509 -0.3423 -0.2693 -2.1252
 3332TIP3   OH231410   1.452   1.653  12.091 -0.8751  0.4687  0.2317
 3332TIP3    H131411   1.465   1.571  12.043  2.1404 -0.5417  2.6020
 3332TIP3    H231412   1.460   1.721  12.024  1.2264 -0.9692 -1.0650
 3333TIP3   OH231413   3.550   1.032  13.413  0.5156 -0.4209 -0.3074
 3333TIP3    H131414   3.456   1.023  13.424  0.5921  0.1836  0.9697
 3333TIP3    H231415   3.584   0.943  13.423  0.0996 -0.6011 -0.5132
 3334TIP3   OH231416   6.827   3.730  11.079  0.8427  0.0510 -0.7175
 3334TIP3    H131417   6.888   3.718  11.152  1.0110  0.1911 -0.8365
 3334TIP3    H231418   6.750   3.679  11.104  1.0277 -0.1700 -0.5922
 3335TIP3   OH231419   1.044   6.458  14.480  0.2839  0.5214  0.1094
 3335TIP3    H131420   1.029   6.494  14.567  1.9765  0.3052  0.5021
 3335TIP3    H231421   0.957   6.434  14.449 -0.2788  0.1241  1.9397
 3336TIP3   OH231422   1.561   7.001  14.821 -0.8142 -0.4146  0.2717
 3336TIP3    H131423   1.573   6.978  14.913  0.1732 -2.3777 -0.3155
 3336TIP3    H231424   1.646   6.983  14.780 -0.7250  2.0231 -0.7354
 3337TIP3   OH231425   0.293   0.911   0.774  0.0952 -0.3848 -0.1306
 3337TIP3    H131426   0.251   0.907   0.860  2.3073  0.8408  1.0728
 3337TIP3    H231427   0.251   0.984   0.729 -1.1233 -1.0757 -0.1265
 3338TIP3   OH231428   1.532   6.274  12.078  0.5091 -0.1333 -0.1184
 3338TIP3    H131429   1.538   6.368  12.062 -0.7467 -0.1831 -0.9301
 3338TIP3    H231430   1.623   6.245  12.084  0.9010  1.1429  0.2030
 3339TIP3   OH231431   2.726   2.890  10.856  0.7462 -0.3611  0.1400
 3339TIP3    H131432   2.805   2.930  10.821  1.4859 -0.9925  1.0709
 3339TIP3    H231433   2.687   2.958  10.910  1.1055 -0.3325  0.3652
 3340TIP3   OH231434   0.696   5.202  10.982 -0.6548  0.0228  0.3887
 3340TIP3    H131435   0.612   5.179  10.942 -0.5320  0.7446 -0.3013
 3340TIP3    H231436   0.705   5.296  10.966  0.1676 -0.0074  0.6708
 3341TIP3   OH231437   4.493   0.249  10.908 -0.3619 -0.1169  0.3208
 3341TIP3    H131438   4.535   0.307  10.844  1.3413 -1.8384 -0.1828
 3341TIP3    H231439   4.400   0.252  10.885 -0.1153  1.3308 -0.5609
 3342TIP3   OH231440   2.354   6.935  12.425 -0.2033  0.3234  0.4999
 3342TIP3    H131441   2.353   6.934  12.520 -1.7267 -0.2169  0.4986
 3342TIP3    H231442   2.278   6.988  12.400 -0.8497 -0.9622 -0.3896
 3343TIP3   OH231443   7.173   0.565  14.455 -0.1888  0.2602  0.2485
 3343TIP3    H131444   7.104   0.500  14.441  2.8498 -2.7426 -1.7534
 3343TIP3    H231445   7.138   0.646  14.417 -1.1068 -2.1645 -4.5168
 3344TIP3   OH231446   4.779   6.613  11.613  0.5477  0.3407 -0.1648
 3344TIP3    H131447   4.701   6.666  11.631  0.7380  0.3511  0.6345
 3344TIP3    H231448   4.745   6.535  11.569 -0.0383 -0.1827  1.2093
 3345TIP3   OH231449   2.163   0.760  11.551  0.0957 -0.4209  0.4600
 3345TIP3    H131450   2.240   0.760  11.495 -0.4433 -2.1265 -0.2954
 3345TIP3    H231451   2.199   0.761  11.640  0.9818 -0.9595  0.1136
 3346TIP3   OH231452   4.727   0.379  14.635  0.3111  0.1976 -0.3785
 3346TIP3    H131453   4.762   0.414  14.717 -0.0137 -3.0498  1.2604
 3346TIP3    H231454   4.635   0.360  14.654  0.2996 -0.8075 -1.3713
 3347TIP3   OH231455   4.695   3.157  11.969  0.2329 -0.0276  0.0917
 3347TIP3    H131456   4.599   3.158  11.971  0.2234 -1.0931  0.9845
 3347TIP3    H231457   4.717   3.067  11.944  0.9957 -0.3275  1.7501
 3348TIP3   OH231458   2.238   6.566  10.261 -0.0554 -0.1199  0.7249
 3348TIP3    H131459   2.255   6.549  10.353 -2.0726  1.8065  1.4846
 3348TIP3    H231460   2.201   6.654  10.259 -0.9701 -0.5232 -1.8301
 3349TIP3   OH231461   2.616   0.065  12.048  0.4902  0.1967  0.0388
 3349TIP3    H131462   2.524   0.048  12.070  0.7970  1.1785  2.2355
 3349TIP3    H231463   2.625   0.036  11.958 -1.8303 -0.5011  0.0017
 3350TIP3   OH231464   5.151   6.922  11.402 -0.2210 -0.6558 -0.2476
 3350TIP3    H131465   5.141   7.015  11.382  0.6180 -0.5427 -0.1494
 3350TIP3    H231466   5.220   6.892  11.344  0.8472 -0.7764  1.0714
 3351TIP3   OH231467   2.365   5.247  13.652  0.4712 -0.3026 -0.1247
 3351TIP3    H131468   2.393   5.210  13.736  1.4104  0.2693 -0.1744
 3351TIP3    H231469   2.408   5.192  13.586 -1.1298 -1.4206 -0.2573
 3352TIP3   OH231470   6.929   0.924   9.948 -1.1678  0.5680  0.0247
 3352TIP3    H131471   6.894   0.835   9.956 -1.4675  0.6693 -0.1735
 3352TIP3    H231472   6.880   0.963   9.876  0.3914  0.1967 -1.2865
 3353TIP3   OH231473   2.959   1.279  14.878  0.6849 -0.3743  0.1343
 3353TIP3    H131474   2.904   1.356  14.868  0.8256 -0.3581 -0.5623
 3353TIP3    H231475   3.043   1.303  14.838  0.9329 -0.6706  0.4705
 3354TIP3   OH231476   1.885   1.862  13.468  0.1046  0.0050  0.4756
 3354TIP3    H131477   1.964   1.855  13.523  1.5395 -0.9801 -1.6700
 3354TIP3    H231478   1.815   1.829  13.524  1.2409  0.5857  2.3081
 3355TIP3   OH231479   3.045   5.936  11.288 -0.0486  0.3616 -0.1711
 3355TIP3    H131480   3.064   5.998  11.217  0.5729  1.1493  0.6711
 3355TIP3    H231481   3.017   5.992  11.361  1.9286 -0.2516  1.0745
 3356TIP3   OH231482   1.244   0.081  12.738  0.5119 -1.6090 -0.2637
 3356TIP3    H131483   1.303   0.118  12.804  0.3045  2.1825 -2.0839
 3356TIP3    H231484   1.159   0.076  12.781  0.5990 -0.1124  0.0950
 3357TIP3   OH231485   0.779   1.342  15.373 -0.0355 -0.0179  0.1621
 3357TIP3    H131486   0.789   1.412  15.438 -1.4034  0.6192 -0.3166
 3357TIP3    H231487   0.755   1.387  15.292 -0.9607 -1.0482 -0.1395
 3358TIP3   OH231488   2.008   1.855   9.954 -0.3391  0.0864  0.0376
 3358TIP3    H131489   2.055   1.895  10.028  0.4711 -0.5071 -0.1553
 3358TIP3    H231490   1.931   1.911   9.942  0.1776  0.9146  0.5294
 3359TIP3   OH231491   6.425   4.623  14.816  0.6860  0.2157  0.2113
 3359TIP3    H131492   6.469   4.567  14.752  1.0421 -0.2252  0.8408
 3359TIP3    H231493   6.347   4.575  14.842 -0.6597  1.3639 -1.5347
 3360TIP3   OH231494   4.141   6.663  14.144  0.1434 -0.0226 -0.5339
 3360TIP3    H131495   4.110   6.594  14.085 -0.6985 -0.7989  0.7689
 3360TIP3    H231496   4.093   6.741  14.116  0.4903 -0.1542 -1.5043
 3361TIP3   OH231497   0.146   0.187  13.797  0.4062  0.1015  0.0288
 3361TIP3    H131498   0.107   0.259  13.747  0.7535 -0.0894 -0.5232
 3361TIP3    H231499   0.072   0.132  13.822  0.1331  0.6741  0.4934
 3362TIP3   OH231500   2.714   4.918  14.317  0.2675  0.8437 -0.1294
 3362TIP3    H131501   2.795   4.885  14.356  0.2115  2.6302  1.5670
 3362TIP3    H231502   2.732   5.010  14.298 -0.6258  0.6780 -1.8303
 3363TIP3   OH231503   5.056   0.089  11.583 -0.5141 -0.5854 -0.7932
 3363TIP3    H131504   5.076   0.055  11.670 -0.6919 -0.8340 -0.8488
 3363TIP3    H231505   5.096   0.176  11.582 -0.3372 -0.6617 -0.5351
 3364TIP3   OH231506   2.407   1.974  13.550 -0.3701 -0.5626 -0.5078
 3364TIP3    H131507   2.371   1.987  13.462  0.1285 -0.9505 -0.7738
 3364TIP3    H231508   2.467   1.900  13.541  0.3835 -0.0235 -0.0490
 3365TIP3   OH231509   5.793   1.357  13.459 -0.4991 -0.2980 -0.2376
 3365TIP3    H131510   5.801   1.448  13.431 -3.1869  0.4326  1.2414
 3365TIP3    H231511   5.880   1.333  13.490 -0.3389  2.5633  1.6675
 3366TIP3   OH231512   4.427   0.177   9.876 -0.8415 -0.2512  0.0214
 3366TIP3    H131513   4.500   0.212   9.928 -0.9117 -2.4112  1.6102
 3366TIP3    H231514   4.356   0.240   9.890 -0.5693 -0.3097  1.8071
 3367TIP3   OH231515   2.042   5.065  12.982  0.0786 -0.5053  0.2744
 3367TIP3    H131516   2.112   5.130  12.977 -0.1053  0.0679  3.9003
 3367TIP3    H231517   2.087   4.981  12.970  0.9647  0.0092 -0.1006
 3368TIP3   OH231518   5.624   6.706  14.743 -0.0539  0.3658  0.1271
 3368TIP3    H131519   5.713   6.672  14.744  0.2155  1.0519 -0.3743
 3368TIP3    H231520   5.629   6.787  14.693 -0.8943  0.5930  0.3928
 3369TIP3   OH231521   1.633   3.230  14.131  0.3905 -0.0426 -0.3256
 3369TIP3    H131522   1.643   3.217  14.226 -1.2111 -0.0859 -0.1519
 3369TIP3    H231523   1.657   3.146  14.093 -1.9630 -1.0131  0.2587
 3370TIP3   OH231524   0.863   2.135  12.781  0.1237  0.3605 -0.1877
 3370TIP3    H131525   0.818   2.055  12.809  0.6067 -0.2265 -1.0545
 3370TIP3    H231526   0.797   2.204  12.791 -0.5106 -0.2551 -0.0658
 3371TIP3   OH231527   2.888   6.273  14.379  0.0209  0.2429  0.5824
 3371TIP3    H131528   2.849   6.234  14.457 -0.6163 -2.1196 -0.8590
 3371TIP3    H231529   2.921   6.199  14.329  1.6435  1.8312 -0.7579
 3372TIP3   OH231530   3.218   6.266  13.545 -0.9223  0.6195 -0.2634
 3372TIP3    H131531   3.226   6.201  13.615 -0.5888 -0.8951 -1.6668
 3372TIP3    H231532   3.280   6.335  13.568  0.1404 -0.4954  0.2491
 3373TIP3   OH231533   1.294   6.051  13.730  0.1818 -0.5116 -0.4507
 3373TIP3    H131534   1.310   6.057  13.824  0.6583  0.4263 -0.5793
 3373TIP3    H231535   1.236   5.976  13.720 -1.6187  0.6582  0.8208
 3374TIP3   OH231536   5.387   6.422  10.685 -0.2843  0.3621 -0.0339
 3374TIP3    H131537   5.336   6.463  10.755  1.1007 -0.6811  1.6236
 3374TIP3    H231538   5.322   6.399  10.619 -1.4476  2.5980  0.2781
 3375TIP3   OH231539   2.032   1.833  14.024  0.3921 -0.1183  0.1626
 3375TIP3    H131540   2.067   1.748  13.998  1.4890  0.5653 -0.6239
 3375TIP3    H231541   2.106   1.880  14.062 -0.1442  0.5785  0.3715
 3376TIP3   OH231542   1.077   6.378  15.281 -0.0447 -0.4305  0.5775
 3376TIP3    H131543   1.069   6.415  15.369 -0.2336  0.6953  0.0976
 3376TIP3    H231544   0.998   6.325  15.271 -0.7768  0.6563  0.5285
 3377TIP3   OH231545   2.423   0.059  10.936  0.0172 -0.2840 -0.2014
 3377TIP3    H131546   2.375   0.008  10.871  0.0761  0.5084 -0.8695
 3377TIP3    H231547   2.469   0.126  10.886 -0.0483  0.4288  0.6601
 3378TIP3   OH231548   4.952   4.250  13.929 -0.7036  0.2556 -0.1943
 3378TIP3    H131549   4.984   4.184  13.990 -0.5427 -0.3187 -0.9008
 3378TIP3    H231550   4.858   4.258  13.948 -0.5012  0.6370  0.6485
 3379TIP3   OH231551   4.161   2.740  13.427  0.3387  0.0054  0.1802
 3379TIP3    H131552   4.127   2.655  13.397 -0.1939  1.0341 -2.2474
 3379TIP3    H231553   4.235   2.718  13.483  0.0334 -2.0754 -0.1878
 3380TIP3   OH231554   2.043   6.768  10.419 -0.7773 -0.2384  0.1953
 3380TIP3    H131555   1.992   6.702  10.372 -1.2699 -0.2549  0.7421
 3380TIP3    H231556   1.979   6.836  10.441 -0.7847 -0.7126  1.7406
 3381TIP3   OH231557   4.246   3.329  11.737 -0.0303 -0.7247  0.3828
 3381TIP3    H131558   4.220   3.246  11.777  0.5770 -0.6830  0.8810
 3381TIP3    H231559   4.342   3.326  11.737  0.0105  0.3615  1.2209
 3382TIP3   OH231560   3.556   1.471  13.803  0.3682  0.2088 -0.3909
 3382TIP3    H131561   3.633   1.523  13.781 -0.5860  0.8984 -2.2510
 3382TIP3    H231562   3.524   1.508  13.885  1.3560  0.6703 -0.2116
 3383TIP3   OH231563   2.753   0.682  11.891 -0.2109 -0.4056  0.3699
 3383TIP3    H131564   2.827   0.736  11.864 -0.8621  0.5367  0.4580
 3383TIP3    H231565   2.676   0.739  11.882 -0.9093 -1.3176  0.4381
 3384TIP3   OH231566   5.861   3.211  13.045 -0.2280 -0.6963  0.4146
 3384TIP3    H131567   5.865   3.251  12.958  0.7475 -1.1809  0.2310
 3384TIP3    H231568   5.775   3.236  13.078 -0.3583  0.0321 -0.4274
 3385TIP3   OH231569   4.547   6.760  12.944 -0.2014  0.4267  0.0124
 3385TIP3    H131570   4.636   6.794  12.950  0.4797 -1.2617 -0.0625
 3385TIP3    H231571   4.519   6.748  13.034 -0.0616  0.2753  0.0375
 3386TIP3   OH231572   3.690   1.820  12.588  0.4508 -0.3801 -0.4888
 3386TIP3    H131573   3.707   1.726  12.592  0.4486 -0.4072 -1.1401
 3386TIP3    H231574   3.599   1.830  12.616 -0.2372 -0.7814 -2.5053
 3387TIP3   OH231575   6.745   2.770  10.049 -0.4366 -0.0247  0.3685
 3387TIP3    H131576   6.679   2.838  10.042 -1.2175 -0.8208 -0.0571
 3387TIP3    H231577   6.825   2.812  10.016 -0.6050  1.0837  1.3342
 3388TIP3   OH231578   5.719   6.437  10.422  0.1700 -0.3155 -0.8056
 3388TIP3    H131579   5.791   6.439  10.359  0.8120 -1.8530 -0.1330
 3388TIP3    H231580   5.640   6.427  10.369  0.8251 -3.1086 -1.2894
 3389TIP3   OH231581   3.326   6.353  11.564 -0.3715 -0.4409  0.2707
 3389TIP3    H131582   3.327   6.390  11.476 -0.2543 -1.9257 -0.3852
 3389TIP3    H231583   3.419   6.343  11.587 -0.3619  2.3583  1.6549
 3390TIP3   OH231584   0.623   4.388  10.793  0.7295  0.2012 -0.2857
 3390TIP3    H131585   0.632   4.293  10.787  0.5645  0.2448 -1.2838
 3390TIP3    H231586   0.650   4.420  10.707 -0.7686  0.9381 -0.5045
 3391TIP3   OH231587   1.893   0.424  12.116 -0.0543  0.2509  0.1224
 3391TIP3    H131588   1.910   0.516  12.134 -0.5946  0.2352  0.7265
 3391TIP3    H231589   1.883   0.384  12.202 -0.6240 -0.2182 -0.1621
 3392TIP3   OH231590   4.040   0.001  14.599 -0.4024 -0.5216  0.2727
 3392TIP3    H131591   4.067  -0.027  14.687  0.4213  1.5916  0.7315
 3392TIP3    H231592   4.113  -0.026  14.543  0.9320  1.6406  0.8945
 3393TIP3   OH231593   6.032   1.748  11.052 -0.4924  0.1237 -0.5275
 3393TIP3    H131594   5.991   1.675  11.006 -1.1891  0.2936 -0.1810
 3393TIP3    H231595   6.108   1.771  10.998 -0.9126 -0.1282 -1.2260
 3394TIP3   OH231596   5.228   0.305  13.633  0.1693  0.1499 -1.0607
 3394TIP3    H131597   5.291   0.241  13.667 -2.1592 -2.7271 -2.0060
 3394TIP3    H231598   5.253   0.317  13.542  1.0205  1.1597 -0.7087
 3395TIP3   OH231599   2.993   2.968  13.316  0.0420  0.0069  0.6497
 3395TIP3    H131600   3.068   2.955  13.374 -0.0184 -1.8137  0.3686
 3395TIP3    H231601   2.923   2.915  13.355 -0.4484 -0.0297 -0.2652
 3396TIP3   OH231602   3.626   7.009  11.466 -0.6651 -0.1776  0.4507
 3396TIP3    H131603   3.538   6.985  11.440 -0.8091  1.4864 -0.7190
 3396TIP3    H231604   3.622   7.104  11.481  0.9410 -0.0339  0.1736
 3397TIP3   OH231605   3.444   2.663  12.001 -0.0766 -0.3082  0.2465
 3397TIP3    H131606   3.536   2.674  12.025  0.5754 -0.7655 -1.9023
 3397TIP3    H231607   3.411   2.752  11.991  0.6564 -0.1416 -0.8130
 3398TIP3   OH231608   4.542   6.381  10.520 -0.0902  0.5711 -0.0347
 3398TIP3    H131609   4.622   6.426  10.546  0.8082 -0.8937 -0.1913
 3398TIP3    H231610   4.549   6.374  10.425  1.1593 -2.3408  0.2076
 3399TIP3   OH231611   2.130   2.003  10.800 -0.5815  0.3072  0.2284
 3399TIP3    H131612   2.167   2.058  10.869 -2.5000  0.5085  1.1278
 3399TIP3    H231613   2.189   1.928  10.795  0.7836  1.3208  0.5757
 3400TIP3   OH231614   1.523   1.340  12.071  0.0282  0.5225  0.2327
 3400TIP3    H131615   1.492   1.307  12.154  1.4045  0.7704  0.8669
 3400TIP3    H231616   1.449   1.330  12.011 -0.4867 -1.0502  1.1021
 3401TIP3   OH231617   3.003   6.240  12.122  0.0661 -0.1241 -0.2773
 3401TIP3    H131618   2.999   6.154  12.163 -0.7848 -0.4457 -1.0198
 3401TIP3    H231619   3.088   6.276  12.149  0.7468 -1.4998 -0.5802
 3402TIP3   OH231620   4.991   3.253  15.417  0.3575 -0.5027 -0.3200
 3402TIP3    H131621   4.992   3.166  15.456 -0.3318 -0.1441  0.5040
 3402TIP3    H231622   5.061   3.300  15.461  0.0144 -0.3044  0.0163
 3403TIP3   OH231623   3.419   4.315  14.950  0.3271 -0.3418 -0.4456
 3403TIP3    H131624   3.375   4.296  14.867 -1.8198 -2.4505  1.1180
 3403TIP3    H231625   3.455   4.231  14.978  0.0617  0.1107  1.3091
 3404TIP3   OH231626   1.525   0.499  14.501 -0.0417 -0.1666  0.5547
 3404TIP3    H131627   1.444   0.546  14.519 -0.8634 -1.2745 -0.2058
 3404TIP3    H231628   1.509   0.410  14.531  0.6603 -0.5591 -0.2013
 3405TIP3   OH231629   4.230   1.866  13.396 -0.3102  0.0595  0.0624
 3405TIP3    H131630   4.219   1.799  13.329  1.1407  0.5114 -0.6408
 3405TIP3    H231631   4.259   1.944  13.348 -0.2570  0.6795  1.0809
 3406TIP3   OH231632   4.153   0.349  13.840 -0.7194 -0.2227  0.3859
 3406TIP3    H131633   4.125   0.284  13.775 -2.4867  0.8171  0.0659
 3406TIP3    H231634   4.192   0.419  13.787  1.4601 -1.0963  0.7484
 3407TIP3   OH231635   3.597   3.465  12.428 -0.1065 -0.0267 -0.0328
 3407TIP3    H131636   3.601   3.560  12.434  0.1585 -0.1768  2.3193
 3407TIP3    H231637   3.687   3.438  12.409 -0.0008  0.1279  0.2512
 3408TIP3   OH231638   4.674   4.704  13.020  0.0834 -0.3320 -0.0642
 3408TIP3    H131639   4.717   4.789  13.009 -0.4184 -0.1112 -0.3298
 3408TIP3    H231640   4.614   4.717  13.094  1.0306 -0.8636  0.8198
 3409TIP3   OH231641   5.275   6.993  12.377  0.5630  0.0402  0.2923
 3409TIP3    H131642   5.280   6.989  12.473 -0.5580 -1.3617  0.3051
 3409TIP3    H231643   5.207   7.058  12.360  0.1476 -0.3504  0.4599
 3410TIP3   OH231644   1.821   4.226  14.277 -0.2237 -0.1048 -0.0469
 3410TIP3    H131645   1.888   4.168  14.240  0.0703 -2.0235  3.3382
 3410TIP3    H231646   1.742   4.172  14.281 -0.7029  0.6263  0.4450
 3411TIP3   OH231647   2.938   3.322  12.288  0.2701  0.1535 -0.0704
 3411TIP3    H131648   2.995   3.305  12.363  1.4785 -1.2407 -1.2798
 3411TIP3    H231649   2.952   3.248  12.229 -3.5308 -0.7484  0.0086
 3412TIP3   OH231650   2.380   1.201  13.693 -0.5293  0.2161 -0.3109
 3412TIP3    H131651   2.338   1.232  13.613  1.6017  0.2631 -1.4606
 3412TIP3    H231652   2.308   1.170  13.748 -2.1530  1.4943 -1.6512
 3413TIP3   OH231653   0.792   4.876   0.031 -0.6129 -0.4649  0.6395
 3413TIP3    H131654   0.736   4.808   0.069 -1.0668  0.0413  0.8692
 3413TIP3    H231655   0.788   4.859  -0.064 -0.6272 -0.8415  0.7076
 3414TIP3   OH231656   6.395   1.121  11.629 -0.0760 -0.1454 -0.0092
 3414TIP3    H131657   6.303   1.145  11.615  0.6234  0.9196 -2.9009
 3414TIP3    H231658   6.444   1.200  11.609  1.6927 -1.6542 -1.7889
 3415TIP3   OH231659   0.703   4.717  13.310 -0.2758  0.2107 -0.4156
 3415TIP3    H131660   0.760   4.794  13.303  0.1642 -0.1893 -1.2956
 3415TIP3    H231661   0.615   4.753  13.314  0.0679  0.8778  1.7998
 3416TIP3   OH231662   1.175   2.362  13.934  0.0987 -0.5124  0.4731
 3416TIP3    H131663   1.167   2.338  13.842 -3.2265  1.5982  0.1217
 3416TIP3    H231664   1.218   2.448  13.933 -0.7754 -0.0659  0.8072
 3417TIP3   OH231665   4.939   3.813   9.952  0.4391  0.4042 -0.4406
 3417TIP3    H131666   4.856   3.766   9.944  0.7054 -0.2338  0.4681
 3417TIP3    H231667   4.913   3.905   9.959 -0.1833  0.2363 -0.4543
 3418TIP3   OH231668   2.186   6.837  11.875  0.4102 -0.2022 -0.0862
 3418TIP3    H131669   2.235   6.889  11.939 -0.7656  0.0303  0.6373
 3418TIP3    H231670   2.143   6.770  11.927  0.4172 -0.7551 -0.7942
 3419TIP3   OH231671   4.635   7.139  12.155  0.8367 -0.1355  0.0398
 3419TIP3    H131672   4.582   7.218  12.142 -0.7090 -1.2735 -0.6204
 3419TIP3    H231673   4.658   7.111  12.067  0.6299 -0.9574  0.2507
 3420TIP3   OH231674   2.230   1.526  11.896 -0.6467 -0.5285  0.1000
 3420TIP3    H131675   2.182   1.537  11.978 -2.3668  0.0413 -0.9562
 3420TIP3    H231676   2.184   1.457  11.849 -0.7596  0.3532 -1.1359
 3421TIP3   OH231677   1.347   0.379  15.420 -0.4808 -0.2233 -0.4210
 3421TIP3    H131678   1.413   0.400  15.354  1.6692 -2.4963  0.9078
 3421TIP3    H231679   1.332   0.461  15.466 -0.0010  0.7533 -1.9702
 3422TIP3   OH231680   0.619   1.281  10.403  0.2741  0.6072 -0.5825
 3422TIP3    H131681   0.540   1.290  10.457  0.5049 -0.6810 -0.0157
 3422TIP3    H231682   0.657   1.369  10.400 -0.2581  0.8786  0.5568
 3423TIP3   OH231683   3.073   2.967  15.215 -0.2136  0.1607 -0.0780
 3423TIP3    H131684   3.134   2.894  15.208  1.1409  1.4445 -2.0768
 3423TIP3    H231685   3.048   2.968  15.307  0.3719 -2.2963  0.1593
 3424TIP3   OH231686   3.207   1.238  11.443  0.8799 -0.2765 -0.3006
 3424TIP3    H131687   3.218   1.331  11.420  1.1496 -0.1524  0.3301
 3424TIP3    H231688   3.198   1.238  11.538  0.4510 -0.8607 -0.3387
 3425TIP3   OH231689   0.561   5.881  13.777  0.2856  0.1350  0.2426
 3425TIP3    H131690   0.616   5.904  13.702 -0.5206  2.2383  0.2413
 3425TIP3    H231691   0.617   5.898  13.853 -0.3549  2.3871  0.2463
 3426TIP3   OH231692   0.598   6.028  14.488  0.0355 -0.0463 -1.1812
 3426TIP3    H131693   0.644   5.945  14.474 -1.3922 -0.9256 -0.7828
 3426TIP3    H231694   0.617   6.051  14.579 -0.3003 -0.4002 -1.0215
 3427TIP3   OH231695   6.001   0.129  12.212 -0.6736  0.9654 -0.6400
 3427TIP3    H131696   6.089   0.118  12.178 -0.2161  1.9937  0.1965
 3427TIP3    H231697   5.970   0.211  12.175 -0.6508  1.4479  0.3860
 3428TIP3   OH231698   5.713   5.830  15.911 -0.0869  0.0228 -0.2988
 3428TIP3    H131699   5.629   5.795  15.883  0.3122 -0.5965 -0.7490
 3428TIP3    H231700   5.758   5.853  15.830  1.0769 -1.7796 -0.2040
 3429TIP3   OH231701   2.556   0.244  13.807  0.7409 -0.0263 -0.4354
 3429TIP3    H131702   2.515   0.161  13.829 -0.5893 -0.2453 -3.5807
 3429TIP3    H231703   2.506   0.309  13.856  0.0291 -0.8051 -0.1240
 3430TIP3   OH231704   4.033   1.378  10.182 -0.2191 -0.4791  0.6624
 3430TIP3    H131705   3.952   1.327  10.177 -0.2104 -0.5045  0.7713
 3430TIP3    H231706   4.099   1.322  10.141 -0.1913 -0.5936  0.8650
 3431TIP3   OH231707   4.331   3.093  12.327  0.2798 -0.0204 -0.0923
 3431TIP3    H131708   4.237   3.080  12.316  0.5593  0.3503 -3.5396
 3431TIP3    H231709   4.340   3.184  12.358 -0.4522  0.3609 -0.9831
 3432TIP3   OH231710   1.848   0.517  12.739 -0.4353  0.4768  0.1797
 3432TIP3    H131711   1.919   0.551  12.686  0.2752  0.3988  1.0633
 3432TIP3    H231712   1.837   0.580  12.809 -1.1443  0.4140  0.1342
 3433TIP3   OH231713   1.386   7.265  13.741  0.0807  0.6220  0.7895
 3433TIP3    H131714   1.302   7.258  13.697 -0.1352  3.7131  0.6357
 3433TIP3    H231715   1.444   7.208  13.690 -1.2704  0.5299 -0.6855
 3434TIP3   OH231716   4.727   6.225  11.794  0.3140  0.2936 -0.4896
 3434TIP3    H131717   4.733   6.199  11.886  0.4668  2.7889  0.2479
 3434TIP3    H231718   4.775   6.157  11.747 -0.8334 -1.6947  1.1128
 3435TIP3   OH231719   3.401   4.686  12.377 -0.3573 -0.3815  0.2905
 3435TIP3    H131720   3.399   4.592  12.356 -1.0868 -0.1232 -0.8011
 3435TIP3    H231721   3.490   4.700  12.410  0.2115 -1.2009 -0.8159
 3436TIP3   OH231722   5.769   1.069  10.606 -0.2107  0.4583 -0.3928
 3436TIP3    H131723   5.735   0.980  10.618  0.0914  0.0862 -2.1511
 3436TIP3    H231724   5.692   1.124  10.596 -0.3754  0.1622 -0.7521
 3437TIP3   OH231725   3.189   5.241   0.935  0.2798  0.1153 -0.0862
 3437TIP3    H131726   3.208   5.237   1.029 -2.1356  1.4258  0.5144
 3437TIP3    H231727   3.275   5.248   0.893  1.4547 -1.6403  1.9248
 3438TIP3   OH231728   6.163   4.281  15.512 -0.0196 -0.5474 -0.0795
 3438TIP3    H131729   6.135   4.373  15.516 -1.0912 -0.8522 -0.4238
 3438TIP3    H231730   6.257   4.284  15.527  0.0995  0.6989 -0.9749
 3439TIP3   OH231731   2.645   6.080  11.586  0.3186 -0.5587 -0.1184
 3439TIP3    H131732   2.599   6.120  11.660 -1.6345 -0.6945 -1.2457
 3439TIP3    H231733   2.637   5.986  11.600  0.4235 -0.5839 -0.2191
 3440TIP3   OH231734   0.872   1.897  11.799 -0.1921 -0.0571 -0.4680
 3440TIP3    H131735   0.832   1.930  11.718 -0.4283 -0.3511 -0.4726
 3440TIP3    H231736   0.819   1.822  11.823  0.4643 -0.5571 -0.5660
 3441TIP3   OH231737   2.150   7.119  12.372 -0.1058 -0.0856 -0.0716
 3441TIP3    H131738   2.057   7.099  12.360  0.0309 -0.9723  0.3336
 3441TIP3    H231739   2.166   7.194  12.314 -1.6921  1.8478  1.9321
 3442TIP3   OH231740   3.043   0.292  10.289  0.1908 -0.1048 -0.4874
 3442TIP3    H131741   2.991   0.311  10.212 -1.5014  1.7734  1.0787
 3442TIP3    H231742   2.985   0.242  10.346 -0.5029  3.2221  1.8858
 3443TIP3   OH231743   6.844   0.108  12.588 -0.4906  0.2864  1.1236
 3443TIP3    H131744   6.807   0.025  12.558 -1.7255  0.7260  1.4204
 3443TIP3    H231745   6.921   0.122  12.533 -1.2048 -0.2508 -0.0116
 3444TIP3   OH231746   5.705   1.849  10.930  0.4826 -0.1044 -0.6046
 3444TIP3    H131747   5.720   1.856  10.836  0.5561  2.0132 -0.4538
 3444TIP3    H231748   5.756   1.921  10.968 -0.8417  0.0695  0.9030
 3445TIP3   OH231749   0.853   1.793  10.263 -0.0410 -0.2546  0.5781
 3445TIP3    H131750   0.931   1.738  10.257  0.5209  0.4801  0.9734
 3445TIP3    H231751   0.833   1.815  10.172  2.1711  2.2172  0.6267
 3446TIP3   OH231752   4.049   7.181  11.942  0.1006  0.0862 -0.1410
 3446TIP3    H131753   3.979   7.145  11.887 -0.0742  0.3346 -0.0823
 3446TIP3    H231754   4.122   7.195  11.882 -0.2585  0.8394 -0.4124
 3447TIP3   OH231755   4.512   1.185   0.925 -0.0624  0.3127  0.8285
 3447TIP3    H131756   4.520   1.187   0.829 -1.6502 -3.1788  0.5508
 3447TIP3    H231757   4.601   1.202   0.956  1.2254 -1.9744 -1.3776
 3448TIP3   OH231758   3.153   0.552  12.592 -0.4398 -0.3417  0.1853
 3448TIP3    H131759   3.184   0.472  12.551 -1.8684 -1.0921  0.5326
 3448TIP3    H231760   3.068   0.570  12.551 -1.5919 -0.7477  2.2835
 3449TIP3   OH231761   4.856   7.211  10.245 -0.2749 -0.6453 -0.2939
 3449TIP3    H131762   4.901   7.133  10.277 -1.3145 -1.0186  0.2682
 3449TIP3    H231763   4.923   7.280  10.246  0.7967 -1.6430 -1.3260
 3450TIP3   OH231764   3.521   2.044  12.163  0.1889 -1.1156  0.2471
 3450TIP3    H131765   3.591   2.003  12.214  1.2005 -0.0982 -0.2982
 3450TIP3    H231766   3.552   2.133  12.146 -1.3836 -0.5422  0.2725
 3451TIP3   OH231767   3.015   2.650  11.934  0.0827  0.0163 -0.0879
 3451TIP3    H131768   2.965   2.687  11.861  0.2371  0.3837 -0.0092
 3451TIP3    H231769   2.980   2.562  11.945  1.4324 -0.7817 -1.9122
 3452TIP3   OH231770   1.564   2.781  10.485  0.0013  0.1311  0.1445
 3452TIP3    H131771   1.563   2.873  10.459  1.5351  0.1357  0.0557
 3452TIP3    H231772   1.578   2.783  10.580 -1.8649  0.0230  0.4414
 3453TIP3   OH231773   0.935   2.443  15.229 -0.0897  0.0193 -0.1619
 3453TIP3    H131774   0.983   2.377  15.178  1.6364 -0.0514  1.4860
 3453TIP3    H231775   0.939   2.522  15.176 -0.4325 -0.6881 -1.2459
 3454TIP3   OH231776   2.537   1.738  14.910  0.4838  0.1406  0.2767
 3454TIP3    H131777   2.573   1.663  14.863  0.0502  0.6858 -0.9629
 3454TIP3    H231778   2.589   1.812  14.880 -1.5581  0.9225 -1.4594
 3455TIP3   OH231779   2.404   6.152  12.689  0.4092  0.3387 -0.3538
 3455TIP3    H131780   2.333   6.206  12.722  0.9526  0.1384  1.1959
 3455TIP3    H231781   2.427   6.190  12.605 -0.6639  1.1838 -0.2687
 3456TIP3   OH231782   1.164   4.338  12.034 -0.4397 -0.1353 -0.5315
 3456TIP3    H131783   1.235   4.396  12.007  0.4537 -0.6191  0.6842
 3456TIP3    H231784   1.208   4.257  12.059 -1.1608  0.3128  2.4093
 3457TIP3   OH231785   4.384   6.977  11.743  0.3260  0.1746  0.3050
 3457TIP3    H131786   4.404   7.070  11.730 -0.0287  0.2685  0.4157
 3457TIP3    H231787   4.379   6.941  11.654 -0.1687  0.3999  0.2377
 3458TIP3   OH231788   1.671   1.148  10.418  0.1565 -0.4509  0.7568
 3458TIP3    H131789   1.591   1.148  10.469 -0.5981 -0.6530 -0.4091
 3458TIP3    H231790   1.741   1.155  10.483 -0.8601  1.5114  1.6810
 3459TIP3   OH231791   2.165   3.839  10.992  0.7360  0.4903  0.5962
 3459TIP3    H131792   2.092   3.778  10.983 -1.3579  2.7621  1.6227
 3459TIP3    H231793   2.157   3.874  11.081  2.2026  1.8801  0.2170
 3460TIP3   OH231794   3.567   1.176  12.385 -0.2631 -0.3286 -0.1287
 3460TIP3    H131795   3.475   1.152  12.371 -0.3371 -0.0481 -0.1303
 3460TIP3    H231796   3.605   1.175  12.297 -0.2338 -0.5799 -0.1123
 3461TIP3   OH231797   5.044   6.846  14.214 -0.3980  0.7766 -0.0727
 3461TIP3    H131798   4.956   6.808  14.205  0.2418 -1.2140  1.7523
 3461TIP3    H231799   5.028   6.936  14.243 -1.8083 -0.5038  3.3298
 3462TIP3   OH231800   3.546   6.699  11.343 -0.1748  0.1365 -0.0399
 3462TIP3    H131801   3.566   6.610  11.316  2.2547  1.0789 -1.6088
 3462TIP3    H231802   3.533   6.747  11.261 -0.9182  1.3202  0.7561
 3463TIP3   OH231803   4.827   3.973  12.379 -0.1143  0.7703  0.2007
 3463TIP3    H131804   4.839   4.001  12.470 -1.9013 -0.5193  0.8561
 3463TIP3    H231805   4.887   3.899  12.368  0.3198  1.1150  0.2265
 3464TIP3   OH231806   1.885   0.308  13.689  0.1809  0.1165 -0.5683
 3464TIP3    H131807   1.963   0.267  13.653  0.4180  1.7942 -2.0055
 3464TIP3    H231808   1.872   0.386  13.637 -1.2210  1.0158  1.0627
 3465TIP3   OH231809   3.805   0.283  12.552 -0.4608 -0.1663 -0.3128
 3465TIP3    H131810   3.857   0.327  12.620  0.3057 -0.6397 -0.5861
 3465TIP3    H231811   3.841   0.315  12.470 -0.5130 -0.6041 -0.5070
 3466TIP3   OH231812   1.306   0.642  15.502 -0.1402  0.0611 -0.0185
 3466TIP3    H131813   1.297   0.726  15.457 -1.0059  0.1942  0.3924
 3466TIP3    H231814   1.240   0.645  15.571 -1.4528 -1.7106 -1.1526
 3467TIP3   OH231815   7.042   6.350  15.494 -0.1027 -0.0396  0.0967
 3467TIP3    H131816   7.010   6.304  15.417 -0.4115  1.5118 -0.7161
 3467TIP3    H231817   6.964   6.367  15.547  0.3328 -2.9723  1.8510
 3468TIP3   OH231818   2.422   5.697  13.345 -0.1333 -0.2386  0.6417
 3468TIP3    H131819   2.445   5.610  13.375 -0.6775 -0.6392 -0.0698
 3468TIP3    H231820   2.364   5.682  13.270  0.9249  0.7225 -0.3950
 3469TIP3   OH231821   6.167   4.653  15.863  0.2231  0.0996 -0.1429
 3469TIP3    H131822   6.248   4.617  15.901 -0.7855 -1.6559  0.4123
 3469TIP3    H231823   6.146   4.727  15.920  0.4598 -0.5520  0.8211
 3470TIP3   OH231824   4.609   1.124  10.960  0.1117  0.3432  0.1761
 3470TIP3    H131825   4.518   1.113  10.988  0.4407 -1.0212  0.7353
 3470TIP3    H231826   4.605   1.195  10.895 -1.1726  1.1232  1.0584
 3471TIP3   OH231827   1.937   4.364  11.519  0.1679  0.2272  0.2443
 3471TIP3    H131828   1.918   4.382  11.611  0.5878  1.6647  0.0514
 3471TIP3    H231829   2.030   4.384  11.509  1.2234 -3.9140  0.4611
 3472TIP3   OH231830   1.292   1.691  12.317  0.4704 -0.3585  0.4118
 3472TIP3    H131831   1.354   1.665  12.248  0.1796 -3.4451  1.2619
 3472TIP3    H231832   1.210   1.650  12.292 -0.3207  0.6712  1.2620
 3473TIP3   OH231833   2.262   6.930  14.070  0.2386 -0.1730 -0.6322
 3473TIP3    H131834   2.170   6.928  14.096  0.3509  1.0093 -0.0796
 3473TIP3    H231835   2.281   7.023  14.057  1.4276 -0.3824 -0.4834
 3474TIP3   OH231836   0.472   4.303  12.909  0.2315 -0.4950 -0.4138
 3474TIP3    H131837   0.386   4.284  12.946  1.0895 -1.3905  1.2067
 3474TIP3    H231838   0.522   4.222  12.922  1.7624  0.4897  0.0187
 3475TIP3   OH231839   4.047   6.912  13.219  0.6314  0.6621  0.3530
 3475TIP3    H131840   4.088   6.987  13.175 -0.1885 -0.3281 -2.2240
 3475TIP3    H231841   4.101   6.837  13.193 -0.9301 -0.2005 -0.5041
 3476TIP3   OH231842   2.860   6.275   9.879 -0.5684 -0.5134 -0.1374
 3476TIP3    H131843   2.809   6.198   9.856 -1.0847  0.0222 -0.8484
 3476TIP3    H231844   2.853   6.283   9.974 -0.9153 -1.0571 -0.1200
 3477TIP3   OH231845   4.247   6.394  14.803 -0.0065 -0.0989 -0.0310
 3477TIP3    H131846   4.165   6.439  14.820  0.4523  0.8400 -0.2747
 3477TIP3    H231847   4.313   6.463  14.799  0.7213 -0.7908 -0.3182
 3478TIP3   OH231848   2.995   0.562  14.541 -0.1471 -0.5849 -0.0884
 3478TIP3    H131849   2.964   0.604  14.461  0.4036 -0.9713 -0.5102
 3478TIP3    H231850   3.049   0.629  14.584 -1.9960  0.2786  0.9256
 3479TIP3   OH231851   0.196   6.883   9.865 -0.3477  0.0545  1.0624
 3479TIP3    H131852   0.163   6.970   9.845 -0.3445 -0.3779 -1.0329
 3479TIP3    H231853   0.121   6.825   9.851  0.0109 -0.4180  1.0912
 3480TIP3   OH231854   0.240   7.008  13.130 -0.3268  0.2637 -0.0945
 3480TIP3    H131855   0.273   7.048  13.210 -1.9738 -0.6063  1.0508
 3480TIP3    H231856   0.147   6.993  13.147 -0.5190 -0.7082 -1.8519
 3481TIP3   OH231857   2.252   5.487  12.323  0.3476 -0.3242 -0.4637
 3481TIP3    H131858   2.211   5.537  12.394  1.5730 -1.2125  0.8991
 3481TIP3    H231859   2.330   5.447  12.363  2.0887  0.6267 -2.7541
 3482TIP3   OH231860   1.119   3.050  10.818 -0.4772 -0.2353 -0.3784
 3482TIP3    H131861   1.046   3.087  10.768 -0.3802 -0.5668 -0.7743
 3482TIP3    H231862   1.146   3.120  10.878 -0.6194  0.1542 -0.7679
 3483TIP3   OH231863   5.265   5.711  12.562 -0.4506  0.0533 -0.3088
 3483TIP3    H131864   5.333   5.649  12.537  0.2724  1.2784 -1.4329
 3483TIP3    H231865   5.306   5.766  12.629 -0.8053 -0.1363  0.0654
 3484TIP3   OH231866   3.443   0.045  12.835 -0.2456  0.0666  0.3176
 3484TIP3    H131867   3.523  -0.008  12.831 -0.4359 -0.2827  1.1537
 3484TIP3    H231868   3.373  -0.016  12.813 -0.6470 -0.4484  2.8647
 3485TIP3   OH231869   3.905   6.500  11.603  0.3387  0.3694 -0.1560
 3485TIP3    H131870   3.940   6.572  11.550 -0.2005 -0.5116 -1.7470
 3485TIP3    H231871   3.812   6.518  11.611  0.2681  0.0491 -0.2367
 3486TIP3   OH231872   2.125   2.275   0.061  0.1415 -0.8652 -0.1733
 3486TIP3    H131873   2.203   2.330   0.072 -0.3499 -0.1983 -0.0163
 3486TIP3    H231874   2.159   2.192   0.027  0.7197  0.0369 -1.8411
 3487TIP3   OH231875   2.876   5.870  14.118  0.5792  0.2705 -0.0507
 3487TIP3    H131876   2.941   5.919  14.168 -1.5578  0.2101  2.9577
 3487TIP3    H231877   2.863   5.921  14.038  2.2204  1.7758  0.6196
 3488TIP3   OH231878   3.652   6.546  11.719 -0.1103 -0.5369 -0.2629
 3488TIP3    H131879   3.577   6.538  11.779  0.8799 -0.0350  1.0617
 3488TIP3    H231880   3.640   6.631  11.678 -0.3574 -0.5317 -0.1841
 3489TIP3   OH231881   5.846   5.048  14.130 -0.3634  0.1293 -0.7278
 3489TIP3    H131882   5.854   5.140  14.157 -1.3711 -0.4354  1.5654
 3489TIP3    H231883   5.756   5.040  14.099 -0.5739 -0.3165 -0.0048
 3490TIP3   OH231884   1.134   7.078  12.950 -0.1369 -0.4822 -0.1161
 3490TIP3    H131885   1.173   7.044  12.869 -0.0891  1.6724 -1.0321
 3490TIP3    H231886   1.085   7.155  12.923  2.4088  2.1183  2.2939
 3491TIP3   OH231887   3.227   2.358  11.555  0.4758 -0.1450 -0.1761
 3491TIP3    H131888   3.180   2.300  11.496 -0.1438 -0.9405  1.0761
 3491TIP3    H231889   3.308   2.311  11.576  0.6568  0.0970 -0.3382
 3492TIP3   OH231890   2.207   2.023  10.133  0.0101 -0.2686  0.2403
 3492TIP3    H131891   2.298   2.018  10.104 -0.0952 -0.9764  0.0056
 3492TIP3    H231892   2.168   2.093  10.081  0.4187  0.0206  0.3262
 3493TIP3   OH231893   3.269   5.244  11.283  0.1057 -0.2115 -0.2036
 3493TIP3    H131894   3.336   5.214  11.345  0.4270  0.2764 -0.3063
 3493TIP3    H231895   3.214   5.304  11.333 -1.2246 -1.8380  0.3066
 3494TIP3   OH231896   6.609   6.179  13.467 -0.7694  0.2549 -0.0382
 3494TIP3    H131897   6.702   6.188  13.490 -0.5994  0.4679 -0.8038
 3494TIP3    H231898   6.608   6.173  13.372 -1.4297 -1.2567  0.0597
 3495TIP3   OH231899   3.171   0.129  11.389  0.3638  0.1819  0.1494
 3495TIP3    H131900   3.126   0.146  11.306  1.5672 -0.4073 -0.6231
 3495TIP3    H231901   3.103   0.094  11.446 -0.5907  1.0810 -0.4216
 3496TIP3   OH231902   1.434   0.245  11.762  0.2113  0.3039 -0.7045
 3496TIP3    H131903   1.475   0.326  11.793 -1.4440  0.1511  2.0174
 3496TIP3    H231904   1.507   0.184  11.755  1.0299  1.1125  0.4243
 3497TIP3   OH231905   2.636   7.049  10.578 -0.0886  0.2757 -0.6081
 3497TIP3    H131906   2.701   7.007  10.521 -0.0562 -0.1045 -0.2959
 3497TIP3    H231907   2.665   7.027  10.666 -1.1980 -0.7332 -0.4901
 3498TIP3   OH231908   3.111   6.340  10.217  0.0485 -0.1374 -0.2110
 3498TIP3    H131909   3.021   6.334  10.184  0.4895 -0.7502 -1.3426
 3498TIP3    H231910   3.162   6.287  10.155  1.3250  0.9756 -0.1148
 3499TIP3   OH231911   2.553   0.148  14.727 -0.1932 -0.4863 -0.7298
 3499TIP3    H131912   2.531   0.241  14.714  0.4244 -0.2314  0.0126
 3499TIP3    H231913   2.648   0.145  14.718 -0.2114 -1.0460 -0.7218
 3500TIP3   OH231914   1.937   1.098  14.795  0.3273  0.0706  0.6136
 3500TIP3    H131915   1.990   1.098  14.714  0.5894  1.2664  0.7685
 3500TIP3    H231916   1.925   1.006  14.816  1.4797 -0.2333 -0.0095
 3501TIP3   OH231917   4.082   0.371  10.796  0.5802  0.0641  0.1871
 3501TIP3    H131918   4.040   0.397  10.878 -0.2059 -0.6115  0.0077
 3501TIP3    H231919   4.029   0.411  10.728  0.5392 -0.3547 -0.0293
 3502TIP3   OH231920   4.489   6.342  11.159 -0.3003  0.1329  0.4569
 3502TIP3    H131921   4.444   6.406  11.104 -1.7258 -0.3685  1.0114
 3502TIP3    H231922   4.535   6.286  11.098 -1.0896  0.1626 -0.1803
 3503TIP3   OH231923   2.967   5.735  12.442 -0.2902  0.0111  0.4852
 3503TIP3    H131924   2.879   5.754  12.474 -0.9195 -1.4306 -0.3831
 3503TIP3    H231925   3.021   5.730  12.522 -0.9886  0.7983  1.0171
 3504TIP3   OH231926   1.665   2.866  12.445  0.0881  0.5135  0.7857
 3504TIP3    H131927   1.591   2.892  12.499 -3.0459  0.1869 -3.1557
 3504TIP3    H231928   1.638   2.783  12.405  1.7191  1.3409 -2.2051
 3505TIP3   OH231929   7.181   2.633  12.324  0.0864  0.0287  0.2301
 3505TIP3    H131930   7.167   2.721  12.290  3.4995  0.2508 -0.8329
 3505TIP3    H231931   7.156   2.575  12.253  1.1969  0.2778 -0.3730
 3506TIP3   OH231932   4.076   6.659  13.718  0.3144 -0.4277  0.2313
 3506TIP3    H131933   4.131   6.693  13.647  0.1256 -2.2342 -0.7996
 3506TIP3    H231934   4.110   6.571  13.735 -0.5103 -0.5204  1.4629
 3507TIP3   OH231935   2.482   5.507  15.213 -0.2532 -0.4244  0.2855
 3507TIP3    H131936   2.499   5.425  15.259  0.6918 -1.0604 -1.1746
 3507TIP3    H231937   2.520   5.494  15.126 -1.0182  1.1791 -0.2976
 3508TIP3   OH231938   1.346   0.498   1.282  0.4107  0.3005  0.1294
 3508TIP3    H131939   1.354   0.553   1.360 -0.4126 -0.5519  0.8228
 3508TIP3    H231940   1.252   0.492   1.266  0.6326  2.3075 -2.2689
 3509TIP3   OH231941   4.571   2.197  10.239  0.0894  0.4087  0.6734
 3509TIP3    H131942   4.576   2.106  10.211 -1.8577  0.5565 -0.2244
 3509TIP3    H231943   4.622   2.200  10.320  1.8769 -1.0294 -0.3568
 3510TIP3   OH231944   2.027   1.242  10.344 -0.4267 -0.2381  0.3630
 3510TIP3    H131945   1.984   1.278  10.267  1.2334  0.8093 -0.1055
 3510TIP3    H231946   2.009   1.149  10.341 -0.2514 -0.2328 -1.3906
 3511TIP3   OH231947   1.443   6.390  10.964 -0.0503 -0.7231 -0.4318
 3511TIP3    H131948   1.521   6.340  10.986 -0.4582 -0.7796  0.9022
 3511TIP3    H231949   1.462   6.479  10.996 -0.5587 -0.7577 -0.0269
 3512TIP3   OH231950   4.590   5.035  12.454 -0.3074  0.0544  0.2273
 3512TIP3    H131951   4.497   5.047  12.471 -0.7423 -0.5723 -1.6048
 3512TIP3    H231952   4.615   5.112  12.403  0.4901  0.8558  1.7793
 3513TIP3   OH231953   2.213   1.627  14.034 -0.2694 -0.4093 -0.4075
 3513TIP3    H131954   2.240   1.717  14.054 -1.0206  0.1359 -1.6948
 3513TIP3    H231955   2.250   1.574  14.104  0.7942  0.8145 -0.0196
 3514TIP3   OH231956   4.831   4.073  11.653  0.0208 -0.2145 -0.2557
 3514TIP3    H131957   4.850   4.135  11.582  0.1161 -0.4175 -0.4070
 3514TIP3    H231958   4.833   4.126  11.732  0.0680 -0.0157 -0.3910
 3515TIP3   OH231959   2.504   5.311  13.128 -0.8570  0.0512  0.1695
 3515TIP3    H131960   2.531   5.370  13.198 -2.4303  2.5797 -1.2630
 3515TIP3    H231961   2.442   5.362  13.076 -0.5943 -2.1253 -2.4220
 3516TIP3   OH231962   4.589   0.558  12.809 -0.0673 -0.5586  0.4644
 3516TIP3    H131963   4.516   0.586  12.866 -0.3967 -1.0623  0.2913
 3516TIP3    H231964   4.546   0.517  12.734  0.3761 -0.0843 -0.0524
 3517TIP3   OH231965   4.714   7.172  11.172 -0.4180  0.2174 -0.9704
 3517TIP3    H131966   4.718   7.261  11.138  1.9589  0.1888 -0.8401
 3517TIP3    H231967   4.803   7.138  11.161 -0.9920 -1.7095  0.1131
 3518TIP3   OH231968   2.346   3.663  12.031  0.3507  0.2584 -0.5215
 3518TIP3    H131969   2.402   3.630  11.961  1.0853 -0.1353  0.2292
 3518TIP3    H231970   2.395   3.738  12.067 -0.5853  1.2132 -1.2071
 3519TIP3   OH231971   3.369   0.255  12.665  0.1710 -0.3773 -0.2470
 3519TIP3    H131972   3.427   0.302  12.605  0.8431  0.2329  0.8685
 3519TIP3    H231973   3.420   0.179  12.693 -0.3414 -0.9542 -0.8467
 3520TIP3   OH231974   2.141   0.668  14.223  0.4323 -0.3786 -0.0381
 3520TIP3    H131975   2.124   0.761  14.211  0.2197 -0.3939  0.1350
 3520TIP3    H231976   2.165   0.660  14.315 -4.0191 -1.1303  1.1968
 3521TIP3   OH231977   2.718   1.644  13.131 -0.1405 -0.6200 -0.1263
 3521TIP3    H131978   2.810   1.643  13.158  0.5765 -1.4484 -2.4528
 3521TIP3    H231979   2.706   1.560  13.086 -1.5203  0.2887 -1.5051
 3522TIP3   OH231980   3.173   6.237  12.762  0.4311  0.1509 -0.1327
 3522TIP3    H131981   3.187   6.224  12.668 -0.2430  0.8439 -0.3323
 3522TIP3    H231982   3.079   6.227  12.774  0.5698 -0.4204  0.5578
 3523TIP3   OH231983   2.527   1.548  11.194  0.4480 -0.0529 -0.5904
 3523TIP3    H131984   2.529   1.460  11.157  1.7839 -0.2005 -0.2042
 3523TIP3    H231985   2.443   1.553  11.241  0.7557 -1.4311  0.1373
 3524TIP3   OH231986   1.365   1.249  14.253 -0.0897 -0.2982  0.0282
 3524TIP3    H131987   1.455   1.261  14.222 -0.8250  0.3526 -1.9609
 3524TIP3    H231988   1.314   1.235  14.173 -1.8385 -0.1221  1.0854
 3525TIP3   OH231989   1.449   7.132  12.041  0.1996 -0.1121 -0.1541
 3525TIP3    H131990   1.415   7.216  12.010  0.4493 -0.3905 -1.1890
 3525TIP3    H231991   1.493   7.095  11.965 -0.0285 -1.2437  0.2689
 3526TIP3   OH231992   2.061   3.840  12.190  0.5083 -0.2808  0.7687
 3526TIP3    H131993   2.082   3.885  12.272  1.4910 -0.5686  0.6892
 3526TIP3    H231994   2.137   3.784  12.174 -0.3707 -1.4214  0.4866
 3527TIP3   OH231995   4.679   7.086  14.951  0.3030 -0.2169 -0.4716
 3527TIP3    H131996   4.737   7.147  14.905  1.0154 -1.3601 -1.1325
 3527TIP3    H231997   4.667   7.125  15.037  1.7369  0.2605 -0.4608
 3528TIP3   OH231998   0.296   5.043  11.417 -0.2221  0.1498  0.0917
 3528TIP3    H131999   0.275   4.970  11.359  1.8299  0.9426 -1.7265
 3528TIP3    H232000   0.211   5.079  11.442 -1.2111 -1.8104 -0.3266
 3529TIP3   OH232001   2.798   0.453  14.687  0.0089  0.1841  0.8297
 3529TIP3    H132002   2.771   0.409  14.607 -0.6752  1.6117  0.2604
 3529TIP3    H232003   2.870   0.510  14.660 -1.0303  1.5885  0.9791
 3530TIP3   OH232004   4.407   0.417  13.127 -0.4194 -0.0588 -0.2797
 3530TIP3    H132005   4.413   0.452  13.215  1.4436 -1.5039  0.1877
 3530TIP3    H232006   4.362   0.333  13.137 -3.2633  1.2761 -1.1725
 3531TIP3   OH232007   1.448   6.678  12.169  0.0269 -0.1627 -0.2233
 3531TIP3    H132008   1.374   6.617  12.162  1.2824 -1.9941  1.8051
 3531TIP3    H232009   1.427   6.733  12.244 -0.3104  0.7936 -1.0171
 3532TIP3   OH232010   4.843   4.249  12.148  0.0776 -0.4364 -0.0619
 3532TIP3    H132011   4.870   4.255  12.240 -0.5226 -0.7563  0.1401
 3532TIP3    H232012   4.863   4.158  12.123 -0.8770 -0.7025  0.1159
 3533TIP3   OH232013   6.651   4.450  13.304  0.4098  0.0717 -0.3364
 3533TIP3    H132014   6.650   4.459  13.209 -1.4875 -0.5664 -0.4077
 3533TIP3    H232015   6.595   4.521  13.336 -0.2625 -0.6713  0.1796
 3534TIP3   OH232016   3.559   0.229  14.150 -0.0382  0.0773 -0.4985
 3534TIP3    H132017   3.574   0.159  14.086  1.8492  0.5051 -0.5583
 3534TIP3    H232018   3.603   0.199  14.229 -1.6148 -0.0473  0.3570
 3535TIP3   OH232019   6.859   6.646   0.219 -0.0965  0.7768 -0.0077
 3535TIP3    H132020   6.821   6.654   0.131 -1.0400 -1.0806  0.2027
 3535TIP3    H232021   6.941   6.600   0.205  0.1497  1.2111 -0.0010
 3536TIP3   OH232022   5.197   6.827  10.845  0.3269 -0.2153 -0.1134
 3536TIP3    H132023   5.225   6.736  10.853  1.5346  0.1054 -0.5054
 3536TIP3    H232024   5.127   6.825  10.780  1.3897 -0.6755 -1.2709
 3537TIP3   OH232025   2.032   6.031  10.852 -0.1546 -0.9636  0.0076
 3537TIP3    H132026   2.099   6.086  10.893  0.1147  1.4714 -3.4107
 3537TIP3    H232027   1.950   6.059  10.892 -0.1184  2.6451 -2.2068
 3538TIP3   OH232028   3.539   0.554  13.290 -0.3051 -0.8550  0.0680
 3538TIP3    H132029   3.454   0.542  13.248  0.3125 -0.4306 -1.3549
 3538TIP3    H232030   3.602   0.532  13.221  0.7436  0.2214  0.6715
 3539TIP3   OH232031   0.978   6.379  12.159 -0.5496  0.4047 -0.2909
 3539TIP3    H132032   0.940   6.400  12.245 -0.5246 -2.7309  0.5151
 3539TIP3    H232033   0.967   6.285  12.150  4.0247 -0.0953 -1.5350
 3540TIP3   OH232034   0.230   0.606  11.031  0.2790  0.6958  0.0896
 3540TIP3    H132035   0.201   0.520  11.001  2.4718 -0.2466  0.6214
 3540TIP3    H232036   0.180   0.621  11.112 -1.4149  0.7478 -0.9252
 3541TIP3   OH232037   0.847   7.178  13.882 -0.3526 -0.2959  0.5142
 3541TIP3    H132038   0.906   7.209  13.950  1.1487  0.1336 -0.9615
 3541TIP3    H232039   0.762   7.172  13.926  0.2976  1.2767  2.0757
 3542TIP3   OH232040   6.531   0.406  10.476 -0.1068  0.0987 -0.2392
 3542TIP3    H132041   6.454   0.368  10.517 -0.1602  0.2850 -0.1646
 3542TIP3    H232042   6.506   0.418  10.384 -0.8035  1.8026  0.1451
 3543TIP3   OH232043   5.373   5.125  13.137 -0.1140  0.0438  0.1934
 3543TIP3    H132044   5.419   5.041  13.135 -0.7878 -0.3135 -0.5749
 3543TIP3    H232045   5.360   5.142  13.230  0.4616 -0.4629  0.3766
 3544TIP3   OH232046   3.101   0.580  12.101  0.0357  0.2338 -0.6270
 3544TIP3    H132047   3.007   0.584  12.118  0.0742  0.7345 -0.5297
 3544TIP3    H232048   3.124   0.668  12.071  0.2385 -0.2224 -1.8631
 3545TIP3   OH232049   2.637   1.733  12.390  0.0064  0.1081  0.0230
 3545TIP3    H132050   2.549   1.735  12.426  0.0134  0.5668  0.0267
 3545TIP3    H232051   2.632   1.792  12.314 -0.4331 -2.0962 -1.6986
 3546TIP3   OH232052   3.601   1.569  12.188 -1.0384  0.7027 -1.0868
 3546TIP3    H132053   3.586   1.567  12.283  1.0677 -0.9715 -0.7616
 3546TIP3    H232054   3.648   1.651  12.173 -1.0922  0.8175 -0.6520
 3547TIP3   OH232055   2.640   0.738  14.662 -0.5705  0.0065 -0.1917
 3547TIP3    H132056   2.589   0.813  14.691 -0.2723 -0.2995  1.1611
 3547TIP3    H232057   2.728   0.754  14.695 -0.6613 -1.2532  0.7338
 3548TIP3   OH232058   5.969   1.509  12.578  1.4150 -0.0406  0.2264
 3548TIP3    H132059   5.994   1.474  12.493 -0.8259 -2.1229  0.3589
 3548TIP3    H232060   5.904   1.577  12.558 -0.8417 -2.0926  0.2901
 3549TIP3   OH232061   1.700   3.635  12.913  0.1322  0.4524 -0.1232
 3549TIP3    H132062   1.651   3.660  12.991 -0.7618 -0.5277 -0.3547
 3549TIP3    H232063   1.742   3.552  12.937 -1.2270 -0.5436 -1.1080
 3550TIP3   OH232064   6.040   0.579  12.610 -0.4124  0.7503 -0.3620
 3550TIP3    H132065   5.992   0.516  12.664 -0.2617  1.4012  0.5382
 3550TIP3    H232066   6.020   0.664  12.648  2.6002  0.9355  0.9654
 3551TIP3   OH232067   1.666   1.794  13.611 -0.0011 -0.5154  0.2652
 3551TIP3    H132068   1.591   1.822  13.559  0.0451  1.9867  1.4674
 3551TIP3    H232069   1.627   1.749  13.686 -0.1987 -0.9878 -0.1131
 3552TIP3   OH232070   3.804   2.306  11.653 -0.4893  0.1279  0.5002
 3552TIP3    H132071   3.891   2.274  11.627 -0.9954 -1.4358  0.7434
 3552TIP3    H232072   3.774   2.244  11.719 -1.3093  1.3310  1.2679
 3553TIP3   OH232073   6.828   0.199  15.020 -0.2805  0.1493  0.5612
 3553TIP3    H132074   6.735   0.207  15.039 -0.5814 -0.6382 -0.5740
 3553TIP3    H232075   6.854   0.118  15.065 -0.2921 -0.0095  0.2777
 3554TIP3   OH232076   1.070   0.019  15.564 -0.1804 -0.1648  0.1672
 3554TIP3    H132077   1.050   0.047  15.475  2.9496 -0.4126 -0.6545
 3554TIP3    H232078   1.105   0.097  15.607  2.3491 -1.0753 -0.1562
 3555TIP3   OH232079   3.262   7.236  14.070 -0.2293 -0.3437 -0.1636
 3555TIP3    H132080   3.358   7.228  14.068 -0.0112  2.1822 -1.6375
 3555TIP3    H232081   3.246   7.325  14.099 -2.2093 -1.2715  1.7342
 3556TIP3   OH232082   3.336   5.103  13.293 -0.1947 -0.8856 -0.2965
 3556TIP3    H132083   3.401   5.113  13.224  1.1544 -2.9223  0.6559
 3556TIP3    H232084   3.355   5.174  13.354 -0.7865  0.3314 -1.4813
 3557TIP3   OH232085   3.891   6.396  11.862 -0.5703 -0.0146  0.3903
 3557TIP3    H132086   3.844   6.426  11.783 -0.5439 -2.1724 -0.4731
 3557TIP3    H232087   3.924   6.477  11.902 -0.1210  1.1050 -2.1078
 3558TIP3   OH232088   2.868   1.421  10.069 -0.0010  0.2697  0.4757
 3558TIP3    H132089   2.902   1.493  10.016 -1.1873  0.3946 -0.1197
 3558TIP3    H232090   2.845   1.461  10.152 -1.0403  0.6612  0.0028
 3559TIP3   OH232091   0.634   1.557  12.132  0.5881 -0.4777 -0.1886
 3559TIP3    H132092   0.678   1.577  12.215 -0.6461  0.1130  0.3358
 3559TIP3    H232093   0.618   1.463  12.136 -0.4465 -0.2747  0.7421
 3560TIP3   OH232094   4.926   6.140  12.402 -0.0281  0.4785 -0.2463
 3560TIP3    H132095   4.861   6.170  12.338  1.4624  1.0444 -1.5330
 3560TIP3    H232096   4.877   6.129  12.483 -2.5144 -2.8932 -2.1164
 3561TIP3   OH232097   1.645   1.746  13.884  0.1106  0.5855  0.3008
 3561TIP3    H132098   1.675   1.834  13.905 -1.7114  1.4826 -0.6724
 3561TIP3    H232099   1.581   1.726  13.952 -2.2213  1.5481 -1.5454
 3562TIP3   OH232100   1.996   1.241  12.554 -0.3732 -0.2152 -0.1640
 3562TIP3    H132101   1.929   1.221  12.620  1.4300 -0.8249  1.5053
 3562TIP3    H232102   2.079   1.237  12.602  1.0351 -1.4605 -2.6295
 3563TIP3   OH232103   6.945   3.131  12.515  0.6493  0.3707 -0.0469
 3563TIP3    H132104   6.951   3.158  12.423 -0.7253 -0.9874 -0.5590
 3563TIP3    H232105   6.898   3.202  12.558  1.2835  1.0035 -0.3811
 3564TIP3   OH232106   3.009   2.221  12.581 -0.4506 -0.3110 -0.2229
 3564TIP3    H132107   2.949   2.295  12.589  1.2974  1.0050  1.1368
 3564TIP3    H232108   3.087   2.257  12.538  0.6617 -1.1913  0.9899
 3565TIP3   OH232109   1.462   1.030  11.969 -0.0369 -0.2419 -0.3998
 3565TIP3    H132110   1.386   1.071  12.011 -0.6229 -2.3582  0.6793
 3565TIP3    H232111   1.434   0.940  11.952  2.0134 -0.8621 -0.6212
 3566TIP3   OH232112   2.227   6.840  11.156  0.2801  0.5199 -0.0579
 3566TIP3    H132113   2.260   6.756  11.126  2.0412  0.8253  0.9386
 3566TIP3    H232114   2.146   6.820  11.202 -0.5118 -0.3577 -1.8381
 3567TIP3   OH232115   3.157   3.839  15.056  0.4024 -0.3474  0.1393
 3567TIP3    H132116   3.092   3.907  15.036  0.0482 -1.4279 -2.5900
 3567TIP3    H232117   3.120   3.794  15.132  0.5770  2.3603  1.9237
 3568TIP3   OH232118   0.906   2.616  11.121 -0.2058 -0.3805  0.1052
 3568TIP3    H132119   0.855   2.536  11.129 -1.3395  0.4174  1.0567
 3568TIP3    H232120   0.841   2.686  11.116  0.7724  0.7044  1.8638
 3569TIP3   OH232121   2.464   6.700  12.831 -0.0752 -0.1991 -0.3697
 3569TIP3    H132122   2.504   6.758  12.765 -1.1969  2.0052  0.8216
 3569TIP3    H232123   2.527   6.629  12.842  1.8559  1.3485 -1.1020
 3570TIP3   OH232124   1.147   2.710  12.697  0.2581  0.1116  0.3466
 3570TIP3    H132125   1.197   2.669  12.626  0.7003 -0.5428  1.0242
 3570TIP3    H232126   1.070   2.654  12.707 -0.3212  0.7875 -0.3042
 3571TIP3   OH232127   4.059   7.102  13.556  0.3275  0.3985 -0.3971
 3571TIP3    H132128   3.999   7.096  13.481 -2.4074 -1.8525  1.8351
 3571TIP3    H232129   4.026   7.177  13.607  0.7813  0.5273 -0.2927
 3572TIP3   OH232130   4.312   1.390  13.467  0.4711  0.3135  0.4695
 3572TIP3    H132131   4.219   1.408  13.456  0.5002 -0.1058 -0.5070
 3572TIP3    H232132   4.321   1.367  13.560 -0.3142  0.8168  0.6766
 3573TIP3   OH232133   4.420   1.343   0.484 -0.4518 -0.3748  0.0510
 3573TIP3    H132134   4.373   1.395   0.549  1.6028  0.4672  0.8732
 3573TIP3    H232135   4.450   1.265   0.531  1.2007  0.3259  0.1815
 3574TIP3   OH232136   5.244   5.147  14.229 -0.1637  0.2744 -0.2162
 3574TIP3    H132137   5.259   5.236  14.195 -0.5456  1.1042  1.7174
 3574TIP3    H232138   5.156   5.150  14.265 -0.9786 -1.5068 -1.9606
 3575TIP3   OH232139   4.603   2.278  11.760 -0.1641  0.2621 -0.2106
 3575TIP3    H132140   4.551   2.231  11.696 -2.2041  1.0843  0.8101
 3575TIP3    H232141   4.590   2.370  11.739 -1.7485  0.5859  2.0281
 3576TIP3   OH232142   4.195   3.399  12.573  0.2847 -0.6085 -1.0374
 3576TIP3    H132143   4.100   3.405  12.562  0.3322  2.7952 -0.1274
 3576TIP3    H232144   4.230   3.427  12.488  0.4699  1.9349 -0.1496
 3577TIP3   OH232145   3.560   6.987  13.969  0.4663  0.4140 -0.4386
 3577TIP3    H132146   3.653   7.011  13.968  0.6991 -0.5007 -1.4247
 3577TIP3    H232147   3.550   6.927  13.895 -0.1395 -2.3962  1.8620
 3578TIP3   OH232148   5.989   0.997  13.297  0.7338  0.2593 -0.1771
 3578TIP3    H132149   6.032   1.076  13.266 -0.5516  0.9195 -0.3446
 3578TIP3    H232150   5.985   1.008  13.393  1.2651  0.0298 -0.1323
 3579TIP3   OH232151   6.981   6.565  14.464 -0.1816 -0.4561 -0.7261
 3579TIP3    H132152   6.901   6.568  14.517 -0.2905  2.3266 -0.9803
 3579TIP3    H232153   6.976   6.481  14.418 -1.9648 -1.2130  0.7613
 3580TIP3   OH232154   4.506   0.360  14.314 -0.0782  0.0238 -0.4028
 3580TIP3    H132155   4.478   0.451  14.300  0.0174 -0.0829 -1.3376
 3580TIP3    H232156   4.597   0.367  14.342  0.5101  0.1464 -2.2617
 3581TIP3   OH232157   4.303   1.074  13.011  0.2688 -0.3844 -0.8823
 3581TIP3    H132158   4.235   1.032  13.065 -1.8423  0.5700 -2.7003
 3581TIP3    H232159   4.309   1.163  13.046  2.9491 -1.3571  1.3443
 3582TIP3   OH232160   5.430   0.321  13.900  0.0575  0.4678 -0.2207
 3582TIP3    H132161   5.356   0.381  13.901  0.4546  0.9491  0.7765
 3582TIP3    H232162   5.480   0.346  13.822  0.4134  1.6867  0.3820
 3583TIP3   OH232163   5.592   0.495  11.382 -0.4076  0.2611 -0.2420
 3583TIP3    H132164   5.558   0.453  11.461  0.9852 -1.3703 -0.4782
 3583TIP3    H232165   5.620   0.422  11.326  0.7808  1.4643 -1.2451
 3584TIP3   OH232166   5.218   1.275  11.580 -0.1246 -0.2792  0.5833
 3584TIP3    H132167   5.147   1.245  11.637 -1.5360  1.3906 -0.2440
 3584TIP3    H232168   5.235   1.365  11.608  1.4798 -0.5687  0.5652
 3585TIP3   OH232169   4.297   6.845  12.229  0.2049  0.4373  0.1216
 3585TIP3    H132170   4.341   6.847  12.143  0.0209  0.3843  0.0260
 3585TIP3    H232171   4.249   6.928  12.233 -0.0581  0.2903  0.0292
 3586TIP3   OH232172   0.995   4.581  12.418 -0.0774  0.2208 -0.0893
 3586TIP3    H132173   0.953   4.639  12.482  0.1086  0.6000 -0.3121
 3586TIP3    H232174   0.973   4.619  12.333  0.1584  0.0407 -0.2324
 3587TIP3   OH232175   5.295   6.786  14.091  0.5605  0.0296 -0.5766
 3587TIP3    H132176   5.293   6.752  14.002 -2.2757  0.6300 -0.8074
 3587TIP3    H232177   5.203   6.781  14.120  1.6027 -1.3668  2.7506
 3588TIP3   OH232178   0.025   0.964  12.182  0.3679 -0.1243 -0.1580
 3588TIP3    H132179  -0.063   0.931  12.201  0.8169 -0.0789  2.1573
 3588TIP3    H232180   0.083   0.890  12.199  0.8155 -0.0785 -1.4266
 3589TIP3   OH232181   5.130   6.757  12.756  0.0035  0.1632  0.5588
 3589TIP3    H132182   5.040   6.751  12.725  1.2094 -1.3156 -2.8763
 3589TIP3    H232183   5.168   6.828  12.704  1.5732 -1.1515 -0.1170
 3590TIP3   OH232184   6.186   0.714  11.846  0.7085  0.1616  0.3110
 3590TIP3    H132185   6.186   0.776  11.919 -0.4825  0.7631 -0.1873
 3590TIP3    H232186   6.133   0.757  11.778  0.9355 -0.8479 -0.5192
 3591TIP3   OH232187   2.235   1.582  12.432 -0.2632  0.3243 -0.5784
 3591TIP3    H132188   2.287   1.623  12.363  1.0806  0.6946  0.6403
 3591TIP3    H232189   2.196   1.654  12.480  1.9186  0.2348  1.4227
 3592TIP3   OH232190   6.219   0.373   0.136  0.3989 -0.6188 -0.2437
 3592TIP3    H132191   6.217   0.279   0.153  0.9449 -0.1709  2.6125
 3592TIP3    H232192   6.312   0.393   0.124  0.3751 -0.2810  0.1437
 3593TIP3   OH232193   5.747   3.798  14.248 -0.0178 -0.1290 -0.6165
 3593TIP3    H132194   5.715   3.828  14.162 -0.4578 -1.8568 -1.0721
 3593TIP3    H232195   5.834   3.762  14.230 -0.1790 -0.6464 -0.3677
 3594TIP3   OH232196   4.158   3.512  12.932  0.1109 -0.3107  0.7582
 3594TIP3    H132197   4.068   3.521  12.963  0.3464 -0.4155  1.4918
 3594TIP3    H232198   4.155   3.442  12.868  0.0057 -1.6258  2.1801
 3595TIP3   OH232199   5.622   2.548  11.829  0.0275  0.3626 -0.6819
 3595TIP3    H132200   5.667   2.530  11.911 -2.1117  1.6377  0.8193
 3595TIP3    H232201   5.686   2.526  11.761  2.3093  0.6073  1.3370
 3596TIP3   OH232202   5.243   5.489  14.182  0.1198  1.0147  0.5979
 3596TIP3    H132203   5.155   5.496  14.145  0.5208  1.5957 -0.2708
 3596TIP3    H232204   5.236   5.529  14.269 -0.6452  0.3721  0.8343
 3597TIP3   OH232205   6.004   4.963  11.999  0.8551  0.4158  0.1398
 3597TIP3    H132206   6.086   4.918  11.981 -0.4015 -2.3664  1.2151
 3597TIP3    H232207   5.954   4.953  11.918  0.3716 -0.6058  0.5573
 3598TIP3   OH232208   6.699   3.895  12.768 -0.2171 -0.1378 -0.1134
 3598TIP3    H132209   6.775   3.947  12.740  0.4763 -1.6455 -1.1165
 3598TIP3    H232210   6.695   3.907  12.862  0.8538  0.5452 -0.1501
 3599TIP3   OH232211   6.557   3.036  15.972 -0.7980 -0.2197 -0.1314
 3599TIP3    H132212   6.619   2.992  16.031 -0.9811  1.3277  1.2313
 3599TIP3    H232213   6.604   3.041  15.888  0.4482 -0.1271  0.5654
 3600TIP3   OH232214   5.520   1.864  10.495 -0.1087 -0.1633  0.0109
 3600TIP3    H132215   5.504   1.957  10.481 -1.3397 -0.2084  0.9936
 3600TIP3    H232216   5.483   1.821  10.418 -0.8563  0.0647  0.2340
 3601TIP3   OH232217   3.322   7.138  13.502  0.0477  0.2192 -0.1574
 3601TIP3    H132218   3.343   7.202  13.571  0.5662 -0.5813  0.4355
 3601TIP3    H232219   3.230   7.117  13.516 -0.2280  1.1033 -0.5835
 3602TIP3   OH232220   6.392   2.603  11.051 -0.2654 -0.2602  0.6389
 3602TIP3    H132221   6.299   2.603  11.025  0.1018 -1.3741 -0.7295
 3602TIP3    H232222   6.399   2.676  11.113 -1.9442  0.1939  0.3366
 3603TIP3   OH232223   6.275   1.901  14.487  0.3577 -0.6740  0.9888
 3603TIP3    H132224   6.229   1.852  14.418  0.0383  1.6600 -0.4967
 3603TIP3    H232225   6.352   1.847  14.507  0.0005 -1.8080 -0.5716
 3604TIP3   OH232226   6.339   0.854  10.076 -0.5883  0.2816 -0.4162
 3604TIP3    H132227   6.352   0.766  10.111  0.6717  0.7923  0.4199
 3604TIP3    H232228   6.366   0.912  10.147 -0.0075  1.3355 -1.4950
 3605TIP3   OH232229   0.566   1.277  10.006  0.1049  0.6055 -0.7544
 3605TIP3    H132230   0.539   1.204  10.062  2.9270  0.7226  0.8622
 3605TIP3    H232231   0.485   1.312   9.971 -1.4255 -2.2619 -0.2170
 3606TIP3   OH232232   4.331   1.823  10.900  0.1677  0.1686  0.5676
 3606TIP3    H132233   4.404   1.806  10.841 -0.7396 -0.7592 -0.3169
 3606TIP3    H232234   4.270   1.751  10.884 -1.6722  1.7729  0.1175
 3607TIP3   OH232235   3.353   1.489  14.322  0.3966  0.0979 -1.0259
 3607TIP3    H132236   3.434   1.443  14.346  0.0727  1.1888  2.4140
 3607TIP3    H232237   3.285   1.422  14.328  0.4307  0.1909  0.4335
 3608TIP3   OH232238   5.579   1.055  13.718  0.2818 -0.2465  0.0265
 3608TIP3    H132239   5.624   1.139  13.720 -0.9782  0.4189  1.0643
 3608TIP3    H232240   5.501   1.070  13.666  0.0291 -0.7575  0.2506
 3609TIP3   OH232241   5.507   4.209   1.118  0.4800 -0.1657 -0.2296
 3609TIP3    H132242   5.594   4.188   1.151  0.3346 -1.8756 -0.8559
 3609TIP3    H232243   5.450   4.203   1.195  0.9709  1.4750  0.2853
 3610TIP3   OH232244   4.637   0.846  11.498  0.1513 -0.0724 -0.4324
 3610TIP3    H132245   4.619   0.806  11.413 -1.8749  0.7924 -0.4319
 3610TIP3    H232246   4.554   0.841  11.545  1.0699  0.0758  1.2478
 3611TIP3   OH232247   4.873   6.748  11.362  0.1657  0.8162  0.0356
 3611TIP3    H132248   4.824   6.707  11.433 -1.9440  1.1697 -1.1721
 3611TIP3    H232249   4.925   6.816  11.405 -2.3988  2.1921  1.0871
 3612TIP3   OH232250   4.187   3.401  14.758  0.0083 -0.0023 -0.3253
 3612TIP3    H132251   4.190   3.480  14.812  1.4733  0.0042 -0.4064
 3612TIP3    H232252   4.256   3.414  14.693 -0.2021 -1.0462 -0.7580
 3613TIP3   OH232253   0.276   1.675  13.974  0.0043  0.4588 -0.5673
 3613TIP3    H132254   0.290   1.624  14.054  1.9681  0.0259 -1.1518
 3613TIP3    H232255   0.323   1.757  13.990 -1.1776  1.1415 -0.5494
 3614TIP3   OH232256   6.976   2.353  10.482  0.3130 -0.2910 -0.0799
 3614TIP3    H132257   6.976   2.379  10.390  0.5505  0.4052  0.1202
 3614TIP3    H232258   6.948   2.261  10.480  2.1494 -0.8410 -0.9944
 3615TIP3   OH232259   6.463   4.445  12.077 -0.0154 -0.0455  0.3672
 3615TIP3    H132260   6.373   4.442  12.044  1.0507 -0.7079 -2.6617
 3615TIP3    H232261   6.477   4.360  12.117 -0.3076 -0.4790 -0.4398
 3616TIP3   OH232262   4.323   3.105  11.119 -0.7816  0.1665 -0.4739
 3616TIP3    H132263   4.384   3.068  11.055 -0.3974 -1.1686  0.6264
 3616TIP3    H232264   4.237   3.089  11.080 -0.5549 -0.6311 -0.6731
 3617TIP3   OH232265   4.192   2.930  14.504  0.4634  0.1551  0.1359
 3617TIP3    H132266   4.128   2.942  14.433  0.4744 -1.1825 -0.1208
 3617TIP3    H232267   4.265   2.885  14.462  0.9230  0.3099  0.7676
 3618TIP3   OH232268   6.024   5.525  11.587 -0.7403  0.1570 -0.5927
 3618TIP3    H132269   6.032   5.608  11.633  2.4328  0.5373 -1.6400
 3618TIP3    H232270   6.009   5.460  11.655 -0.7725  1.2965  0.4917
 3619TIP3   OH232271   0.785   1.643  12.345  0.3637  0.2760 -0.5222
 3619TIP3    H132272   0.727   1.718  12.357 -0.0222 -0.0618 -0.2627
 3619TIP3    H232273   0.767   1.586  12.420  1.0755  0.1989 -0.4051
 3620TIP3   OH232274   4.873   0.843  13.726  0.4224  0.2045 -0.1012
 3620TIP3    H132275   4.820   0.900  13.782  0.0305  1.3525 -1.6033
 3620TIP3    H232276   4.810   0.798  13.671  0.7232 -1.8119  1.1485
 3621TIP3   OH232277   2.165   1.282  15.594 -0.0395  0.4084 -0.7355
 3621TIP3    H132278   2.117   1.262  15.675  0.5351  3.1368  0.3477
 3621TIP3    H232279   2.200   1.198  15.566 -2.5480 -1.0648  0.3296
 3622TIP3   OH232280   4.647   6.489  13.633  0.2124  0.0272  0.0716
 3622TIP3    H132281   4.653   6.571  13.584  1.7436 -0.6745 -0.9681
 3622TIP3    H232282   4.573   6.442  13.593 -1.2850  1.2804  1.3060
 3623TIP3   OH232283   5.330   5.872  11.365 -0.4301 -0.6198 -0.0354
 3623TIP3    H132284   5.316   5.807  11.434 -0.7028 -1.3611 -0.7803
 3623TIP3    H232285   5.426   5.875  11.356 -0.3934 -0.5569  0.3336
 3624TIP3   OH232286   7.095   2.303  14.228  0.1464  0.7310  0.4832
 3624TIP3    H132287   7.049   2.285  14.147 -1.5977  0.1070  1.5857
 3624TIP3    H232288   7.126   2.393  14.219 -0.9487  1.0223 -0.4316
 3625TIP3   OH232289   5.912   0.096  13.508 -0.7299 -0.3958  0.1215
 3625TIP3    H132290   5.920   0.007  13.474 -2.4495 -0.3358 -0.5131
 3625TIP3    H232291   5.932   0.152  13.433  0.3623 -0.2442  0.5214
 3626TIP3   OH232292   1.857   1.003  15.721 -0.3960  0.3699  0.4461
 3626TIP3    H132293   1.932   1.061  15.735 -0.2926  0.2607  0.3452
 3626TIP3    H232294   1.883   0.921  15.762  0.6848 -0.5715 -2.0089
 3627TIP3   OH232295   6.326   2.417  14.223  0.7906 -0.2174 -0.5332
 3627TIP3    H132296   6.250   2.456  14.266  0.8771 -0.1927 -0.4047
 3627TIP3    H232297   6.384   2.490  14.205  0.0840  0.0004 -2.0640
 3628TIP3   OH232298   0.188   7.136  11.836 -0.4179 -0.1940  0.4988
 3628TIP3    H132299   0.227   7.093  11.912 -0.4190 -0.4082  0.3769
 3628TIP3    H232300   0.184   7.228  11.860  0.6322 -0.0910  0.3248
 3629TIP3   OH232301   5.386   0.023  12.859 -0.7880  0.1273 -0.2561
 3629TIP3    H132302   5.441   0.023  12.937 -0.7498  0.1270 -0.2838
 3629TIP3    H232303   5.312   0.080  12.882 -0.7957  0.0963 -0.2064
 3630TIP3   OH232304   4.827   3.920  10.771 -0.0493 -0.0163 -0.4603
 3630TIP3    H132305   4.923   3.927  10.773 -0.0858  0.3171  0.6674
 3630TIP3    H232306   4.799   3.955  10.855 -1.3140  2.0620 -1.6884
 3631TIP3   OH232307   0.170   5.539  11.877  0.3586  0.0693 -0.4973
 3631TIP3    H132308   0.138   5.611  11.822  1.2212  0.9787  0.1675
 3631TIP3    H232309   0.254   5.516  11.838  0.6088  0.1915 -0.0341
 3632TIP3   OH232310   4.888   0.853  14.087  0.5828  0.0391 -0.5899
 3632TIP3    H132311   4.818   0.912  14.060  0.6449  1.6049  2.4413
 3632TIP3    H232312   4.849   0.765  14.084 -1.1822  0.7947  0.0334
 3633TIP3   OH232313   2.481   2.197  10.967 -0.7745  0.3771 -0.9020
 3633TIP3    H132314   2.428   2.262  11.012  0.1247 -0.0595  0.8376
 3633TIP3    H232315   2.432   2.116  10.975 -0.8263  0.3898 -1.0939
 3634TIP3   OH232316   4.923   5.061  13.539  0.3206  0.6310 -0.0116
 3634TIP3    H132317   4.902   5.041  13.630  1.9581 -0.1912  0.2096
 3634TIP3    H232318   4.968   5.146  13.543  2.0835 -0.2980  0.1775
 3635TIP3   OH232319   5.043   2.337  13.113 -0.4228 -0.2444 -0.2251
 3635TIP3    H132320   5.124   2.339  13.062 -0.6011 -0.8999 -0.5442
 3635TIP3    H232321   4.975   2.323  13.048 -1.0425  2.4048 -0.2235
 3636TIP3   OH232322   6.247   6.448  14.788  0.8567  0.3692  0.0001
 3636TIP3    H132323   6.311   6.441  14.859  0.8530 -1.9788 -0.1797
 3636TIP3    H232324   6.251   6.362  14.744 -2.3782  0.1874 -0.0355
 3637TIP3   OH232325   2.918   2.055  15.970  0.1654  0.0906 -0.4241
 3637TIP3    H132326   2.994   2.047  16.028 -1.2911  0.8995  1.6572
 3637TIP3    H232327   2.905   1.967  15.935  1.3838 -0.2897  0.0455
 3638TIP3   OH232328   1.800   6.352  13.971 -0.1779 -0.0552  0.8007
 3638TIP3    H132329   1.735   6.283  13.983 -0.4705 -0.4007 -2.4984
 3638TIP3    H232330   1.882   6.305  13.955  0.3439  0.3833  2.1325
 3639TIP3   OH232331   4.560   0.517  15.007 -0.6456 -0.5309 -0.3367
 3639TIP3    H132332   4.574   0.535  15.100 -0.6681  0.9507 -0.6108
 3639TIP3    H232333   4.648   0.509  14.971 -0.5782  1.7385 -0.7189
 3640TIP3   OH232334   5.826   2.114  11.626  0.1826 -0.1185 -0.6829
 3640TIP3    H132335   5.848   2.193  11.578 -1.9442  1.2169  0.4388
 3640TIP3    H232336   5.745   2.083  11.585 -0.7664  0.1407  0.9324
 3641TIP3   OH232337   4.199   6.771  13.478  0.1670 -0.4267  0.2289
 3641TIP3    H132338   4.274   6.766  13.419  0.2566  0.4640  0.2637
 3641TIP3    H232339   4.179   6.864  13.483  0.2742 -0.4713  1.7483
 3642TIP3   OH232340   4.917   3.445  15.742  0.6322  0.4111  0.3757
 3642TIP3    H132341   4.865   3.524  15.728  0.9370  0.5410 -0.0015
 3642TIP3    H232342   4.999   3.477  15.779  1.1833  0.3661 -0.7938
 3643TIP3   OH232343   5.777   6.608  11.592 -0.4885 -0.0654  0.0896
 3643TIP3    H132344   5.720   6.534  11.615  1.3515 -1.6514 -0.3108
 3643TIP3    H232345   5.751   6.632  11.503 -0.6728 -0.6487 -0.0147
 3644TIP3   OH232346   4.443   1.194  11.996 -0.2923  0.2387 -0.6605
 3644TIP3    H132347   4.529   1.167  11.963  0.7979 -0.8202  2.8240
 3644TIP3    H232348   4.384   1.123  11.972  0.3251 -0.1939 -0.9203
 3645TIP3   OH232349   7.014   3.877  12.672  0.7650 -0.1854 -0.4175
 3645TIP3    H132350   6.980   3.898  12.585 -1.6027  0.1958  0.5528
 3645TIP3    H232351   7.001   3.958  12.723 -0.1321 -1.1610  0.9345
 3646TIP3   OH232352   5.348   2.892  13.084  0.1005  0.6687  0.3542
 3646TIP3    H132353   5.436   2.930  13.087  0.8364 -0.7429 -1.9696
 3646TIP3    H232354   5.350   2.819  13.145  0.9781 -0.1865 -0.6815
 3647TIP3   OH232355   1.501   1.092  11.048  0.2041 -0.7110 -0.1447
 3647TIP3    H132356   1.531   1.041  11.123  0.9310 -1.8536 -1.2046
 3647TIP3    H232357   1.529   1.042  10.972 -1.6982 -0.2477 -1.1867
 3648TIP3   OH232358   6.749   6.963  15.263 -0.6610  0.1512  0.2783
 3648TIP3    H132359   6.702   7.030  15.213  0.2017 -0.1085 -0.9117
 3648TIP3    H232360   6.802   6.918  15.197  0.2224 -0.4424  1.3896
 3649TIP3   OH232361   3.740   1.394  10.424 -0.4225 -0.0435 -0.2894
 3649TIP3    H132362   3.761   1.357  10.339 -1.3352  1.3507 -1.1415
 3649TIP3    H232363   3.688   1.472  10.405  1.2285  1.5560  1.4554
 3650TIP3   OH232364   6.353   6.286  12.405  0.3498 -0.2555 -0.3796
 3650TIP3    H132365   6.396   6.216  12.455 -1.2571 -0.6498  0.4696
 3650TIP3    H232366   6.341   6.249  12.317 -0.1138 -0.8937 -0.0488
 3651TIP3   OH232367   2.684   4.563  11.497 -0.4698 -0.1142 -0.5689
 3651TIP3    H132368   2.754   4.609  11.544 -0.2112 -0.4116 -0.6583
 3651TIP3    H232369   2.705   4.577  11.404 -1.2016  0.8082 -0.5937
 3652TIP3   OH232370   1.811   0.111  10.518  0.0123  0.1887  0.2435
 3652TIP3    H132371   1.904   0.113  10.495 -0.2678 -0.1566 -0.9441
 3652TIP3    H232372   1.773   0.186  10.472 -0.5360 -0.4421 -0.3293
 3653TIP3   OH232373   0.361   5.883  10.465 -0.0608 -0.0332 -0.3088
 3653TIP3    H132374   0.384   5.857  10.554  1.7648 -0.2481 -0.8350
 3653TIP3    H232375   0.389   5.974  10.458  0.8373 -0.3582 -1.0202
 3654TIP3   OH232376   0.430   6.654  13.464  0.0619  0.2709  0.2714
 3654TIP3    H132377   0.346   6.699  13.470  0.5881  1.3254 -0.0540
 3654TIP3    H232378   0.460   6.673  13.375  0.3339 -0.6519  0.1676
 3655TIP3   OH232379   0.041   3.038  10.995 -0.2258  0.0129 -0.3562
 3655TIP3    H132380   0.004   3.083  10.920  0.0419  0.4958 -0.2001
 3655TIP3    H232381   0.022   2.945  10.979 -1.3471  0.2310 -0.3559
 3656TIP3   OH232382   4.340   6.851  11.502  0.1367  0.3655  0.1520
 3656TIP3    H132383   4.324   6.765  11.463 -2.1855  0.8344 -0.0060
 3656TIP3    H232384   4.367   6.906  11.428 -2.1626  0.7122 -0.4757
 3657TIP3   OH232385   5.431   7.282  11.334  0.2089  0.3860  0.4267
 3657TIP3    H132386   5.423   7.279  11.429 -1.6779 -0.6280  0.2654
 3657TIP3    H232387   5.360   7.339  11.305  0.3379  0.1293 -0.4161
 3658TIP3   OH232388   4.774   6.842  10.768 -0.1410 -0.5110  0.3947
 3658TIP3    H132389   4.815   6.837  10.682  0.4901 -3.3108  0.8218
 3658TIP3    H232390   4.844   6.819  10.829 -0.7357  0.8711  1.6243
 3659TIP3   OH232391   6.833   1.349  12.133 -0.3882  0.0486 -0.0080
 3659TIP3    H132392   6.788   1.433  12.122 -0.4059  0.1604  0.8600
 3659TIP3    H232393   6.921   1.373  12.161  0.1958 -0.1758 -1.6119
 3660TIP3   OH232394   5.796   5.338  12.693  0.3530  0.1737  0.5821
 3660TIP3    H132395   5.740   5.413  12.672 -0.7192  0.1450  3.1744
 3660TIP3    H232396   5.883   5.376  12.706  0.6757  0.4057 -2.0603
 3661TIP3   OH232397   2.835   1.911  11.184  0.5324  0.1094 -0.5837
 3661TIP3    H132398   2.780   1.833  11.190  0.2131  0.4275  0.6964
 3661TIP3    H232399   2.789   1.967  11.121 -0.6209  0.3714  0.4688
 3662TIP3   OH232400   7.294   0.219  12.786 -0.6322  0.2678  0.3436
 3662TIP3    H132401   7.268   0.127  12.784 -1.8447  0.6064  0.5430
 3662TIP3    H232402   7.212   0.268  12.787 -0.0710  1.4277 -2.6815
 3663TIP3   OH232403   6.056   5.898  13.974  0.0119 -0.0797 -0.2079
 3663TIP3    H132404   6.054   5.962  14.045  1.3502  0.3091 -0.5037
 3663TIP3    H232405   5.968   5.859  13.974 -0.8232  1.7328 -0.0068
 3664TIP3   OH232406   5.132   1.833  14.321  0.8863 -0.8555  0.3427
 3664TIP3    H132407   5.119   1.795  14.234 -1.1329  1.0126 -0.2071
 3664TIP3    H232408   5.082   1.776  14.380  1.5985 -1.6526  0.1848
 3665TIP3   OH232409   4.969   1.214  10.787  0.1354 -0.0726 -0.5382
 3665TIP3    H132410   4.877   1.204  10.762  0.6444  0.1546 -2.6357
 3665TIP3    H232411   4.971   1.197  10.881 -1.8325 -1.4499 -0.7292
 3666TIP3   OH232412   5.105   0.395  14.337  0.0761  0.3527  0.0596
 3666TIP3    H132413   5.023   0.443  14.324 -0.7093 -0.9026  0.3632
 3666TIP3    H232414   5.124   0.356  14.252 -1.3482 -2.0231  0.8146
 3667TIP3   OH232415   0.686   0.062  10.230 -0.0758 -0.0656  0.4126
 3667TIP3    H132416   0.762   0.004  10.220  1.0217  1.3194  0.6229
 3667TIP3    H232417   0.626   0.034  10.161  2.1340  1.1616 -2.1382
 3668TIP3   OH232418   6.411   7.019  11.918  0.1058 -0.0964 -0.3563
 3668TIP3    H132419   6.398   7.112  11.897  0.4408  0.0904  0.2687
 3668TIP3    H232420   6.336   6.975  11.877  0.2447  0.3781 -1.1412
 3669TIP3   OH232421   6.821   2.028  15.760 -0.0133  0.3042  0.3552
 3669TIP3    H132422   6.872   2.035  15.679 -1.9964 -1.3341 -1.0913
 3669TIP3    H232423   6.793   2.118  15.779  1.6632  0.9119  0.0416
 3670TIP3   OH232424   3.516   1.086  11.682 -0.0424  0.2371  0.3930
 3670TIP3    H132425   3.538   1.149  11.750  0.6537 -0.6896  1.0328
 3670TIP3    H232426   3.420   1.081  11.684  0.0116 -0.3217  1.7832
 3671TIP3   OH232427   3.927   2.629  15.635 -0.5936  0.1925 -0.4560
 3671TIP3    H132428   3.966   2.653  15.719  0.0566 -0.9558 -0.4138
 3671TIP3    H232429   3.933   2.708  15.582 -0.6794  0.8170  0.4638
 3672TIP3   OH232430   3.702   4.707  12.336 -0.0430  0.3735  0.7304
 3672TIP3    H132431   3.701   4.768  12.262  0.1977 -2.5221 -1.7880
 3672TIP3    H232432   3.784   4.658  12.325 -1.3543 -1.9939  1.2527
 3673TIP3   OH232433   4.115   0.804  14.895 -0.4498  0.0777  0.4195
 3673TIP3    H132434   4.145   0.879  14.843 -0.0945 -0.3585 -0.0099
 3673TIP3    H232435   4.182   0.794  14.963 -0.4320  0.0734  0.4011
 3674TIP3   OH232436   6.569   0.907  11.999  0.2358  0.5008  0.6362
 3674TIP3    H132437   6.595   0.892  12.090  0.9596 -1.2402  0.1649
 3674TIP3    H232438   6.579   0.822  11.957  0.2646  1.3680 -1.1648
 3675TIP3   OH232439   3.797   5.847  12.837 -0.4222 -0.2254 -0.0997
 3675TIP3    H132440   3.793   5.887  12.924 -1.1365  1.9554 -1.1012
 3675TIP3    H232441   3.889   5.853  12.812  0.0922 -2.3357  1.1354
 3676TIP3   OH232442   6.366   5.937  12.395 -0.3995  0.0130 -0.3380
 3676TIP3    H132443   6.293   5.878  12.375 -1.0829  0.3774  1.0062
 3676TIP3    H232444   6.418   5.889  12.459  0.1847  0.0249 -0.8025
 3677TIP3   OH232445   2.858   0.431  10.465  0.2228 -0.1533 -0.3043
 3677TIP3    H132446   2.813   0.515  10.461  0.6124  0.2254  2.3151
 3677TIP3    H232447   2.945   0.449  10.428  0.9151  1.0662  1.8205
 3678TIP3   OH232448   4.322   2.348   9.837  0.1885 -0.1189  0.1583
 3678TIP3    H132449   4.366   2.263   9.830 -0.6581 -0.4600 -1.2019
 3678TIP3    H232450   4.354   2.385   9.919  1.3226 -1.3220  0.2705
 3679TIP3   OH232451   5.007   1.836  11.357  0.0843 -0.0942  0.5931
 3679TIP3    H132452   5.047   1.922  11.365  0.7062 -0.3780  0.5769
 3679TIP3    H232453   5.063   1.789  11.295 -0.9055 -0.1296 -0.2864
 3680TIP3   OH232454   2.189   6.247  12.360  0.3976 -0.1050 -0.6674
 3680TIP3    H132455   2.161   6.155  12.356 -1.7127  0.4508  0.8010
 3680TIP3    H232456   2.273   6.244  12.407  0.9652 -1.3821 -1.7110
 3681TIP3   OH232457   4.035   6.261  12.913 -0.3416  0.2858 -0.4472
 3681TIP3    H132458   4.059   6.256  13.006 -1.2165 -2.9911 -0.3317
 3681TIP3    H232459   4.099   6.321  12.875  1.2995  0.0969  1.8933
 3682TIP3   OH232460   3.983   0.653  13.776  0.0352 -0.3374  0.1767
 3682TIP3    H132461   3.965   0.745  13.759 -1.3033 -0.8406 -1.3284
 3682TIP3    H232462   3.959   0.640  13.868  0.0957  0.7875  0.3504
 3683TIP3   OH232463   4.453   5.199  13.274 -0.0050  0.2371 -0.5191
 3683TIP3    H132464   4.482   5.166  13.189 -2.4925  0.5716 -1.5593
 3683TIP3    H232465   4.502   5.148  13.338 -1.3613 -3.2591 -2.1009
 3684TIP3   OH232466   0.332   0.664  13.945  0.5663 -0.3320 -0.5481
 3684TIP3    H132467   0.300   0.600  14.008 -1.3370  1.2128  0.0912
 3684TIP3    H232468   0.284   0.646  13.865 -1.7131  1.6949  0.2839
 3685TIP3   OH232469   7.157   0.269  11.149 -0.1138  0.7711 -0.6103
 3685TIP3    H132470   7.080   0.309  11.109 -0.1961  2.6714  1.3382
 3685TIP3    H232471   7.231   0.317  11.113  0.1680 -0.8123 -2.2030
 3686TIP3   OH232472   5.454   0.285  14.587  0.6689 -0.0065  0.3111
 3686TIP3    H132473   5.509   0.233  14.527  0.5962  0.0672  0.1802
 3686TIP3    H232474   5.476   0.252  14.674 -0.3621 -1.1840  0.1298
 3687TIP3   OH232475   2.821   3.848  12.114  0.1540 -0.6162 -0.1390
 3687TIP3    H132476   2.853   3.757  12.116 -1.8556 -1.3315  0.4246
 3687TIP3    H232477   2.845   3.879  12.026  2.3016 -1.1307  0.2308
 3688TIP3   OH232478   3.574   7.125  10.779  0.1383  0.1031  0.5932
 3688TIP3    H132479   3.517   7.201  10.767  0.4011  0.4281  1.3189
 3688TIP3    H232480   3.534   7.076  10.851 -0.8149 -1.2098 -0.8223
 3689TIP3   OH232481   2.924   6.520  11.195  0.1410  0.2493  0.2570
 3689TIP3    H132482   2.919   6.430  11.227  1.0023  1.3657  3.8180
 3689TIP3    H232483   2.836   6.556  11.209  0.1906  0.3892  0.2146
 3690TIP3   OH232484   6.189   5.731  14.763  0.2970 -0.1353 -0.1774
 3690TIP3    H132485   6.225   5.698  14.845  0.0087  1.0345  0.4173
 3690TIP3    H232486   6.263   5.775  14.720  0.7369 -1.6815 -1.0668
 3691TIP3   OH232487   3.695   2.523  13.698 -0.0223  0.2499 -0.1074
 3691TIP3    H132488   3.772   2.527  13.642 -1.0502  1.1092 -1.4792
 3691TIP3    H232489   3.729   2.540  13.786  1.2418  1.3410 -0.7891
 3692TIP3   OH232490   4.258   2.770   1.205 -0.8796  0.7640 -0.3687
 3692TIP3    H132491   4.219   2.818   1.131 -1.3933 -0.3199 -0.8157
 3692TIP3    H232492   4.319   2.709   1.164  0.0362  1.2801  0.2233
 3693TIP3   OH232493   0.071   1.182  11.508  0.0246  0.0002 -0.1715
 3693TIP3    H132494   0.118   1.106  11.544 -0.9853 -0.0656  1.0037
 3693TIP3    H232495  -0.019   1.172  11.538 -0.7899  0.1178 -2.4437
 3694TIP3   OH232496   3.760   0.060  10.809 -0.2874 -0.5266  0.2087
 3694TIP3    H132497   3.692   0.005  10.770 -1.2756  1.0174 -0.2678
 3694TIP3    H232498   3.720   0.095  10.888  0.3018 -0.4194  0.4599
 3695TIP3   OH232499   6.730   3.987  15.531  0.6418  0.4509 -0.0634
 3695TIP3    H132500   6.751   4.076  15.501 -2.5115  1.7073  1.2244
 3695TIP3    H232501   6.702   3.942  15.451  0.7552  1.0894 -0.4739
 3696TIP3   OH232502   4.449   1.658  14.007 -0.5329 -0.2677 -0.0378
 3696TIP3    H132503   4.363   1.660  14.051 -1.3693  0.7053 -1.6885
 3696TIP3    H232504   4.486   1.745  14.023 -0.4727 -0.1993 -0.5444
 3697TIP3   OH232505   2.980   2.682  11.185  0.5581  0.0762 -0.8694
 3697TIP3    H132506   2.893   2.642  11.184  0.8569 -0.5668 -1.7323
 3697TIP3    H232507   2.973   2.756  11.124 -0.0508  1.4827  0.8802
 3698TIP3   OH232508   7.053   2.502  13.864 -0.0810  0.0631 -0.0335
 3698TIP3    H132509   7.134   2.541  13.898 -0.4905  0.0417  0.9690
 3698TIP3    H232510   7.059   2.514  13.769  1.2661 -0.2627  0.0054
 3699TIP3   OH232511   4.722   3.587   0.415  0.0673 -0.2001  0.5546
 3699TIP3    H132512   4.768   3.648   0.471  0.4830 -0.1328  0.1386
 3699TIP3    H232513   4.681   3.525   0.475 -0.9939  0.9184  1.0213
 3700TIP3   OH232514   4.698   0.890  10.522 -0.3621 -0.6128 -0.1477
 3700TIP3    H132515   4.780   0.874  10.568 -1.1625  0.1788  1.5742
 3700TIP3    H232516   4.710   0.848  10.436  0.7464 -2.9955  1.1418
 3701TIP3   OH232517   7.021   2.810  12.741 -0.7071  0.7538  0.0669
 3701TIP3    H132518   7.034   2.727  12.694 -0.4322  1.4046 -1.0193
 3701TIP3    H232519   6.939   2.844  12.706  0.3113  2.0257 -1.1282
 3702TIP3   OH232520   5.396   3.781  12.265 -0.2458  0.1313  0.5163
 3702TIP3    H132521   5.406   3.749  12.355 -0.8894 -0.8657  0.2375
 3702TIP3    H232522   5.331   3.723  12.226 -0.5723  1.0699 -0.3523
 3703TIP3   OH232523   2.480   0.433  14.867 -0.5105  0.3315  0.4471
 3703TIP3    H132524   2.545   0.476  14.923 -0.7222  0.8097  0.3305
 3703TIP3    H232525   2.506   0.457  14.778 -0.2125 -0.3753  0.3376
 3704TIP3   OH232526   5.166   2.941   9.977  0.2132  0.1481  0.4487
 3704TIP3    H132527   5.159   2.896  10.061  2.3309  1.6764  1.5017
 3704TIP3    H232528   5.088   2.997   9.973  1.3461  1.9732  2.6282
 3705TIP3   OH232529   3.625   2.000  15.746 -0.3545 -0.2664  0.2228
 3705TIP3    H132530   3.602   2.013  15.654 -0.8529  0.4924  0.4524
 3705TIP3    H232531   3.711   2.042  15.756 -0.8073  0.6469  0.3623
 3706TIP3   OH232532   3.138   1.629  14.857  0.6287 -0.0313 -0.1885
 3706TIP3    H132533   3.139   1.542  14.895  1.4396 -0.0614 -0.2801
 3706TIP3    H232534   3.079   1.679  14.913 -0.0442 -0.7035 -0.2887
 3707TIP3   OH232535   5.135   0.928  13.984  0.0679 -0.2848  0.3555
 3707TIP3    H132536   5.056   0.902  14.031  0.1381  0.4440  0.8866
 3707TIP3    H232537   5.136   1.024  13.989  0.7129 -0.2618 -0.0864
 3708TIP3   OH232538   5.650   2.989  13.164 -0.3287 -0.5050  0.0342
 3708TIP3    H132539   5.742   3.016  13.166 -0.8087  1.2316 -0.1196
 3708TIP3    H232540   5.642   2.935  13.086  0.3487  0.1591 -0.4978
 3709TIP3   OH232541   6.047   0.320  14.466 -0.5574  0.5015  0.0785
 3709TIP3    H132542   6.071   0.363  14.384  1.3475 -0.0378  0.3198
 3709TIP3    H232543   6.127   0.323  14.518 -1.4077 -0.2427  1.4432
 3710TIP3   OH232544   3.865   6.787  13.554  0.0116 -0.3346 -0.4284
 3710TIP3    H132545   3.920   6.737  13.616 -0.2782 -0.3748 -0.2018
 3710TIP3    H232546   3.902   6.767  13.468  0.3974 -0.3073 -0.2711
 3711TIP3   OH232547   0.217   7.229  10.758 -0.0804  0.1367 -0.1179
 3711TIP3    H132548   0.295   7.240  10.811  2.6112  1.0353 -4.0205
 3711TIP3    H232549   0.218   7.136  10.733 -1.9260 -0.5394  2.1518
 3712TIP3   OH232550   2.892   5.999  13.340  0.4856  0.1477  0.1061
 3712TIP3    H132551   2.922   5.943  13.269 -2.1387  0.6764 -1.5021
 3712TIP3    H232552   2.950   6.075  13.337  2.8262 -1.5360  1.0444
 3713TIP3   OH232553   7.102   1.865  11.830  0.0393 -0.1553  0.4723
 3713TIP3    H132554   7.048   1.811  11.887  1.0948 -2.3367 -0.5389
 3713TIP3    H232555   7.190   1.829  11.838  1.5448  3.6242  2.4473
 3714TIP3   OH232556   3.344   3.960  12.327  0.8143  0.5220 -0.0367
 3714TIP3    H132557   3.318   3.871  12.303  1.7097 -0.5582  2.8076
 3714TIP3    H232558   3.382   3.995  12.247 -1.0470 -1.0382 -1.6928
 3715TIP3   OH232559   5.936   1.202  15.372 -0.4341 -0.1863 -0.1341
 3715TIP3    H132560   5.980   1.119  15.390  0.0573 -0.0019 -0.4714
 3715TIP3    H232561   5.943   1.252  15.453 -0.7181 -0.4694  0.0651
 3716TIP3   OH232562   0.199   2.033  12.818 -0.1554  0.2094  0.2349
 3716TIP3    H132563   0.236   2.094  12.754  0.6229 -0.1732  0.3128
 3716TIP3    H232564   0.259   2.037  12.892 -0.3775 -0.2773  0.4455
 3717TIP3   OH232565   3.034   2.413  13.285 -0.6246  0.7701 -0.2334
 3717TIP3    H132566   2.997   2.500  13.272 -1.9002  0.5473  1.8015
 3717TIP3    H232567   3.128   2.424  13.271 -0.7821  2.4705  0.0304
 3718TIP3   OH232568   4.462   5.863  14.667 -0.5031  0.0362 -0.3212
 3718TIP3    H132569   4.444   5.906  14.584 -0.6904  0.0960 -0.2485
 3718TIP3    H232570   4.515   5.926  14.716 -1.1719  0.3754 -0.0277
 3719TIP3   OH232571   4.823   4.984  10.855 -0.2583 -0.3183  0.2455
 3719TIP3    H132572   4.853   5.070  10.885  0.3727 -0.6474  0.5877
 3719TIP3    H232573   4.864   4.973  10.769  0.4013 -0.6528  0.5961
 3720TIP3   OH232574   2.352   7.024  11.355  0.2068 -0.5699 -0.0955
 3720TIP3    H132575   2.290   6.965  11.313 -1.5950  1.0850  0.2027
 3720TIP3    H232576   2.326   7.025  11.447  1.4873 -0.8649  0.2888
 3721TIP3   OH232577   7.072   5.603  15.655  0.4178 -0.4379 -0.0288
 3721TIP3    H132578   7.127   5.670  15.695 -0.1898 -1.4459  2.5741
 3721TIP3    H232579   6.984   5.642  15.653  0.6343 -0.0029 -1.3386
 3722TIP3   OH232580   6.885   2.092  10.336  0.0838  0.0844 -0.0267
 3722TIP3    H132581   6.789   2.092  10.337  0.0177 -0.7262 -2.6998
 3722TIP3    H232582   6.908   2.109  10.245  2.4750 -1.5085  0.2379
 3723TIP3   OH232583   5.348   3.045  15.696 -0.1930  0.4240  0.5413
 3723TIP3    H132584   5.353   3.034  15.601  0.6027 -1.1827  0.7535
 3723TIP3    H232585   5.431   3.086  15.720 -0.4510  0.9581  0.5384
 3724TIP3   OH232586   4.967   6.344  11.991  0.3389  0.3968  0.4568
 3724TIP3    H132587   4.891   6.383  11.947  0.2542  0.7024  0.8731
 3724TIP3    H232588   5.036   6.409  11.982 -0.5573  1.8862  3.5158
 3725TIP3   OH232589   4.583   2.862  12.076 -0.2093  0.6013 -0.2815
 3725TIP3    H132590   4.504   2.880  12.128 -0.4356  1.7820 -1.0186
 3725TIP3    H232591   4.651   2.845  12.141 -0.7663  0.8432  0.3756
 3726TIP3   OH232592   2.621   6.664  14.670  0.1625 -0.1601  0.0788
 3726TIP3    H132593   2.541   6.698  14.709 -0.2914 -0.6549 -0.3999
 3726TIP3    H232594   2.625   6.704  14.583  1.2910  1.1221  0.7035
 3727TIP3   OH232595   5.319   5.881  13.308 -0.2610 -0.7548 -0.1969
 3727TIP3    H132596   5.273   5.829  13.373  0.4033  0.8055  1.5700
 3727TIP3    H232597   5.269   5.962  13.301  2.4626  1.2126  2.1954
 3728TIP3   OH232598   7.129   1.405  10.374  0.3958 -0.2259 -0.1648
 3728TIP3    H132599   7.147   1.361  10.290  0.9469  2.6495 -1.6262
 3728TIP3    H232600   7.038   1.436  10.365  0.9280  1.3204 -0.2934
 3729TIP3   OH232601   7.265   0.499  10.388  0.2586  0.2572  0.6438
 3729TIP3    H132602   7.201   0.471  10.324  0.9191  2.2651 -0.9531
 3729TIP3    H232603   7.249   0.444  10.465 -0.9871 -1.7126 -0.9861
 3730TIP3   OH232604   5.288   1.090  12.931 -0.3049  0.1577 -0.0455
 3730TIP3    H132605   5.240   1.045  13.000 -0.5056  1.3931  0.6457
 3730TIP3    H232606   5.374   1.107  12.970 -0.5409  1.1749  0.0417
 3731TIP3   OH232607   5.180   0.445  11.503 -0.0914  0.6654  0.5350
 3731TIP3    H132608   5.208   0.433  11.594  1.5426  0.7847  0.0561
 3731TIP3    H232609   5.250   0.496  11.463  0.5461 -1.7542 -1.5170
 3732TIP3   OH232610   6.621   0.347  13.755  0.0072  0.2816 -0.1825
 3732TIP3    H132611   6.582   0.279  13.810 -1.9740  2.0533  0.6735
 3732TIP3    H232612   6.693   0.382  13.808 -0.0762  0.0615  0.0834
 3733TIP3   OH232613   5.110   0.891  11.599  0.6258  0.0984  0.2058
 3733TIP3    H132614   5.095   0.805  11.640 -0.2574  0.6638  1.1071
 3733TIP3    H232615   5.025   0.935  11.606  1.2915  1.3484  0.4685
 3734TIP3   OH232616   6.029   1.841  12.213 -0.8173  0.0890  0.3006
 3734TIP3    H132617   6.083   1.771  12.176  0.5213  0.8112  0.8247
 3734TIP3    H232618   5.955   1.849  12.152 -0.0142 -0.5118 -0.7841
 3735TIP3   OH232619   4.457   1.830  14.668  0.0371 -0.1361  0.5453
 3735TIP3    H132620   4.426   1.745  14.638 -0.2811 -0.2011  1.0448
 3735TIP3    H232621   4.390   1.892  14.637  0.2013 -0.0823  0.2952
 3736TIP3   OH232622   6.954   1.166  10.749  0.2056 -0.0644 -0.3767
 3736TIP3    H132623   7.035   1.204  10.782  0.1503 -0.6248  0.4118
 3736TIP3    H232624   6.911   1.238  10.702  2.3154 -0.3730 -2.9474
 3737TIP3   OH232625   2.653   0.045  11.739  0.4665 -0.1979 -0.0424
 3737TIP3    H132626   2.613   0.007  11.661  0.6797 -1.4556  0.4497
 3737TIP3    H232627   2.740   0.006  11.743  0.3446 -0.3771  0.9867
 3738TIP3   OH232628   5.964   2.719  10.542 -0.1146 -0.5744  0.0553
 3738TIP3    H132629   5.877   2.756  10.558  0.5588  0.7578  0.6819
 3738TIP3    H232630   5.965   2.700  10.448 -1.1061 -0.6809  0.0591
 3739TIP3   OH232631   3.011   4.077  13.487 -0.3246 -0.5967  0.2652
 3739TIP3    H132632   3.020   4.152  13.428  0.2571 -1.4730 -0.7834
 3739TIP3    H232633   2.993   4.115  13.573  2.3127  0.8366  0.2140
 3740TIP3   OH232634   1.314   5.863  11.891 -0.0547 -0.0429 -0.1550
 3740TIP3    H132635   1.334   5.953  11.866 -0.0685 -0.1634 -0.6075
 3740TIP3    H232636   1.398   5.825  11.915 -0.1924  0.3922  1.0272
 3741TIP3   OH232637   1.798   3.321  12.707 -0.6518  0.4511  0.1995
 3741TIP3    H132638   1.825   3.286  12.622 -1.4964  2.4602 -0.9383
 3741TIP3    H232639   1.820   3.252  12.770  2.5156  0.0405 -1.2723
 3742TIP3   OH232640   6.691   6.784  12.562  0.0251 -0.1602 -0.3178
 3742TIP3    H132641   6.760   6.757  12.501 -1.0372  0.5110 -1.8280
 3742TIP3    H232642   6.610   6.757  12.520 -0.9779  3.6492 -1.0020
 3743TIP3   OH232643   5.358   6.372  12.645  0.2077 -0.0638  0.1082
 3743TIP3    H132644   5.362   6.368  12.549 -0.0264 -1.5000  0.1334
 3743TIP3    H232645   5.308   6.451  12.664  0.7682  0.5524 -0.9493
 3744TIP3   OH232646   5.567   7.120  13.191 -0.1486  0.0805 -0.4380
 3744TIP3    H132647   5.520   7.202  13.174  3.7873  2.1717 -1.7580
 3744TIP3    H232648   5.594   7.089  13.105 -1.0477 -2.3635  0.1110
 3745TIP3   OH232649   5.199   4.952  10.763 -0.5258  0.2473  0.1613
 3745TIP3    H132650   5.256   4.922  10.692  0.0447  0.2920  0.5969
 3745TIP3    H232651   5.158   5.031  10.729  1.1556  1.3138  0.5529
 3746TIP3   OH232652   2.736   3.111  11.047 -0.2998 -0.9397  0.4152
 3746TIP3    H132653   2.663   3.090  11.105 -0.6280  0.7618  0.6631
 3746TIP3    H232654   2.710   3.194  11.006  1.3780 -0.4508  0.3041
 3747TIP3   OH232655   5.831   1.977  12.785 -0.5603  0.1503 -0.3069
 3747TIP3    H132656   5.889   2.050  12.810  0.5445 -0.1405 -1.9291
 3747TIP3    H232657   5.758   2.018  12.739  0.3946  0.2041 -1.8076
 3748TIP3   OH232658   0.498   5.778  14.328  0.4335  0.1799 -0.4915
 3748TIP3    H132659   0.558   5.761  14.400  0.1414 -0.7492 -0.4581
 3748TIP3    H232660   0.419   5.729  14.350  0.9918 -1.6297 -2.3252
 3749TIP3   OH232661   3.897   6.872  14.128 -0.4035  0.0651  0.6275
 3749TIP3    H132662   3.970   6.879  14.190 -0.9150 -0.3183  1.2807
 3749TIP3    H232663   3.924   6.926  14.053  0.8556 -0.6320  0.5597
 3750TIP3   OH232664   0.005   6.682  11.767 -0.4079  0.1832 -0.0333
 3750TIP3    H132665  -0.062   6.614  11.773  1.2619 -1.3636  1.4998
 3750TIP3    H232666   0.042   6.671  11.679 -1.4982  0.4335 -0.5338
 3751TIP3   OH232667   5.351   1.661  10.636  0.5825  0.2583  1.1299
 3751TIP3    H132668   5.301   1.711  10.572 -1.5894  0.2009  2.6967
 3751TIP3    H232669   5.419   1.721  10.667  1.1347  0.5414 -0.6213
 3752TIP3   OH232670   2.463   1.044  10.458  0.0095 -0.0239 -0.1071
 3752TIP3    H132671   2.427   1.088  10.381 -1.1881 -0.1962  0.3427
 3752TIP3    H232672   2.393   0.984  10.487  0.7703 -0.5919  0.5990
 3753TIP3   OH232673   2.987   3.146  13.959 -0.6612  0.6609 -0.2391
 3753TIP3    H132674   2.919   3.212  13.945  1.4824  3.3083  1.3596
 3753TIP3    H232675   3.003   3.109  13.872 -1.5636  2.5874 -1.2457
 3754TIP3   OH232676   7.165   4.093  11.739 -0.0750 -0.2662 -0.3381
 3754TIP3    H132677   7.142   4.122  11.827  2.0687 -0.6976  0.4108
 3754TIP3    H232678   7.085   4.103  11.688 -1.0053  1.1495  1.3640
 3755TIP3   OH232679   3.734   2.187  13.569 -0.2557  0.0773  0.1313
 3755TIP3    H132680   3.785   2.234  13.503  0.3070 -1.5047 -0.5619
 3755TIP3    H232681   3.728   2.098  13.536 -0.6402 -0.5395  1.8487
 3756TIP3   OH232682   7.193   2.731  13.949 -0.1431  0.1591 -0.0222
 3756TIP3    H132683   7.284   2.701  13.940 -0.1138 -0.5332  2.2151
 3756TIP3    H232684   7.164   2.693  14.032 -2.2061  1.0896 -0.2973
 3757TIP3   OH232685   5.392   5.444  12.755 -0.3295  0.5143 -0.9067
 3757TIP3    H132686   5.419   5.378  12.819 -2.5478 -0.1276 -0.5696
 3757TIP3    H232687   5.379   5.523  12.808 -1.3488  0.2012 -0.6675
 3758TIP3   OH232688   4.970   1.239  13.021  0.1165 -0.1456  0.5051
 3758TIP3    H132689   4.951   1.320  12.973 -1.6260 -1.0825 -0.4433
 3758TIP3    H232690   4.902   1.178  12.992  1.6324 -2.0720  0.9127
 3759TIP3   OH232691   6.593   2.932  13.556 -0.1700 -0.4511 -0.1032
 3759TIP3    H132692   6.571   3.008  13.609  2.1777  0.3667 -0.2497
 3759TIP3    H232693   6.567   2.857  13.609 -0.3667  0.4112  1.0253
 3760TIP3   OH232694   2.736   6.576  10.530 -0.1012  0.0045 -0.0972
 3760TIP3    H132695   2.760   6.556  10.440 -1.5779  1.5071 -0.8469
 3760TIP3    H232696   2.781   6.658  10.549 -0.3069  0.0251  0.3050
 3761TIP3   OH232697   1.387   3.005  14.620  0.2271  0.8395  0.8605
 3761TIP3    H132698   1.384   3.091  14.578  0.6313  1.9277  2.9770
 3761TIP3    H232699   1.382   3.024  14.714  0.2298 -1.4564  1.3541
 3762TIP3   OH232700   7.056   6.989  12.413 -0.5909 -0.0414 -0.2264
 3762TIP3    H132701   7.099   6.943  12.485 -0.3387 -0.9711 -0.9591
 3762TIP3    H232702   7.013   6.920  12.362 -0.6928  0.5936 -1.0184
 3763TIP3   OH232703   2.650   5.404  14.418 -0.1834  0.5815 -0.1242
 3763TIP3    H132704   2.665   5.473  14.353 -1.3305  0.3596 -0.6219
 3763TIP3    H232705   2.557   5.410  14.438  0.2451  1.0157  1.9234
 3764TIP3   OH232706   5.872   0.252   0.107 -0.2896 -0.5532 -0.2144
 3764TIP3    H132707   5.852   0.159   0.119  2.2127 -1.0625  0.2310
 3764TIP3    H232708   5.915   0.278   0.189  0.7283  0.5097 -1.0637
 3765TIP3   OH232709   1.958   1.439  10.863 -0.4005 -0.0931 -0.1513
 3765TIP3    H132710   1.968   1.436  10.768 -1.3574 -0.7961 -0.2358
 3765TIP3    H232711   2.046   1.457  10.896  0.1562 -0.9997 -1.1167
 3766TIP3   OH232712   1.124   1.232  13.012  0.2230  0.4032  0.3047
 3766TIP3    H132713   1.065   1.178  12.960 -0.9663 -2.2933  4.2418
 3766TIP3    H232714   1.093   1.322  12.998 -1.2258 -0.4197 -2.0675
 3767TIP3   OH232715   4.532   6.930  10.020  0.1916 -0.2471 -0.0319
 3767TIP3    H132716   4.592   7.004  10.031 -0.6195  0.4059  0.0821
 3767TIP3    H232717   4.510   6.904  10.110 -0.3346  0.0560 -0.0656
 3768TIP3   OH232718   6.700   4.795  14.241  0.8855  0.1048  0.8753
 3768TIP3    H132719   6.665   4.736  14.174 -2.0314  0.9159  1.6452
 3768TIP3    H232720   6.673   4.756  14.324 -1.9239  2.9471  1.3856
 3769TIP3   OH232721   6.674   6.600   9.988 -0.2907 -0.2063  0.3804
 3769TIP3    H132722   6.687   6.668   9.923  4.8312 -0.6997  0.6529
 3769TIP3    H232723   6.704   6.639  10.070  4.8970 -3.2384  0.1579
 3770TIP3   OH232724   4.273   1.428  15.823  0.6529 -0.2638  0.0891
 3770TIP3    H132725   4.316   1.349  15.790 -0.4859 -0.0624 -1.9265
 3770TIP3    H232726   4.305   1.498  15.766 -1.7730  0.0045 -0.9857
 3771TIP3   OH232727   5.106   6.703  10.288  0.0979  0.5073 -0.0046
 3771TIP3    H132728   5.201   6.693  10.289  0.0373 -0.5994  4.4739
 3771TIP3    H232729   5.074   6.621  10.253  0.7527  1.0974 -2.0759
 3772TIP3   OH232730   3.713   0.960  11.541 -0.0484  0.1830  0.2019
 3772TIP3    H132731   3.654   1.020  11.586  1.0169  1.1194  0.3915
 3772TIP3    H232732   3.671   0.942  11.457 -0.1102  1.6665 -0.0966
 3773TIP3   OH232733   1.662   6.116  10.886  0.0358 -0.4682 -1.1018
 3773TIP3    H132734   1.696   6.081  10.803  0.6981 -2.2809 -0.0953
 3773TIP3    H232735   1.589   6.059  10.908  1.9975 -2.1442  1.2694
 3774TIP3   OH232736   5.986   0.373  11.266 -0.3177 -0.0966 -0.5404
 3774TIP3    H132737   5.942   0.450  11.230 -0.8851 -1.8125 -3.7481
 3774TIP3    H232738   5.923   0.302  11.253  0.6700 -1.3484  1.2764
 3775TIP3   OH232739   2.543   3.233  14.054 -0.0318  0.1939  0.1212
 3775TIP3    H132740   2.464   3.182  14.074  0.1831  0.2839  1.2178
 3775TIP3    H232741   2.533   3.313  14.106  1.6926 -0.6247  1.7217
 3776TIP3   OH232742   2.359   4.590  12.423 -0.4176 -0.5335 -0.4041
 3776TIP3    H132743   2.451   4.615  12.433 -0.6161  0.5533 -1.1410
 3776TIP3    H232744   2.311   4.661  12.466 -0.9124 -1.0546 -0.1012
 3777TIP3   OH232745   6.100   3.405  12.794  0.5164 -0.3175  0.5968
 3777TIP3    H132746   6.097   3.396  12.889 -0.1504 -0.0393  0.6091
 3777TIP3    H232747   6.012   3.435  12.770  0.5797 -0.7110 -0.1417
 3778TIP3   OH232748   1.189   1.792  11.110 -0.0028 -0.4480  0.3732
 3778TIP3    H132749   1.155   1.739  11.182  1.2533 -1.0360  0.5381
 3778TIP3    H232750   1.191   1.733  11.035  0.0679 -0.2380  0.2092
 3779TIP3   OH232751   1.723   6.573  12.466 -0.4339  0.6918 -0.2646
 3779TIP3    H132752   1.775   6.610  12.537  0.9341 -0.0975 -0.8271
 3779TIP3    H232753   1.684   6.493  12.503  0.9610 -0.1762 -0.6283
 3780TIP3   OH232754   4.794   1.916  11.531 -0.8198 -0.0930 -0.4823
 3780TIP3    H132755   4.723   1.919  11.466  0.5166  0.3913 -1.9474
 3780TIP3    H232756   4.870   1.887  11.482  0.4325  1.1540  0.6675
 3781TIP3   OH232757   2.215   6.705  10.625  0.1959  0.2744 -0.6437
 3781TIP3    H132758   2.306   6.721  10.601  0.6339 -0.0031  0.7737
 3781TIP3    H232759   2.167   6.711  10.543  1.6400 -0.6564 -1.5779
 3782TIP3   OH232760   7.227   4.182  11.476  0.0716 -0.1483 -0.3478
 3782TIP3    H132761   7.159   4.246  11.452 -0.6045 -1.0533 -0.9056
 3782TIP3    H232762   7.221   4.174  11.571 -0.0480  0.3982 -0.3120
 3783TIP3   OH232763   2.109   1.364  13.929  0.1907  0.4060  0.0371
 3783TIP3    H132764   2.202   1.358  13.950  0.2742  1.1402 -0.1126
 3783TIP3    H232765   2.083   1.452  13.958 -0.7597 -0.2539  1.2611
 3784TIP3   OH232766   0.483   3.746  10.607 -0.0237  0.2754  0.1071
 3784TIP3    H132767   0.455   3.814  10.668  2.2720  1.3795  0.0094
 3784TIP3    H232768   0.516   3.794  10.531 -0.2417 -1.0043 -0.8165
 3785TIP3   OH232769   4.506   2.106  12.845  0.1591  1.2124  0.3934
 3785TIP3    H132770   4.579   2.131  12.788  0.1553 -1.2349 -0.7375
 3785TIP3    H232771   4.539   2.034  12.898 -1.5168 -0.1497 -0.3587
 3786TIP3   OH232772   4.903   0.295  13.477 -0.0329  0.0055  0.6922
 3786TIP3    H132773   4.951   0.217  13.505  0.2124 -0.1149 -0.0460
 3786TIP3    H232774   4.822   0.260  13.439 -0.7922  0.2162  2.0831
 3787TIP3   OH232775   4.488   3.653  12.307 -0.8853  0.4274 -0.3524
 3787TIP3    H132776   4.526   3.707  12.377  0.9834 -0.2458 -0.8114
 3787TIP3    H232777   4.413   3.703  12.276  1.4431  3.3443 -1.5123
 3788TIP3   OH232778   0.740   1.482  12.556 -0.1762 -0.3727  0.0604
 3788TIP3    H132779   0.740   1.558  12.614  0.2516 -0.2411 -0.1161
 3788TIP3    H232780   0.728   1.407  12.616 -0.4080 -0.1836  0.2505
 3789TIP3   OH232781   5.087   2.543  11.723 -0.5995 -0.4560 -0.0283
 3789TIP3    H132782   5.176   2.510  11.710 -0.3279  0.4564 -0.4867
 3789TIP3    H232783   5.034   2.494  11.660 -0.2035 -0.0527 -0.6840
 3790TIP3   OH232784   1.982   6.900  14.011  0.4818  0.5338 -0.4503
 3790TIP3    H132785   1.896   6.923  13.977  0.0862  1.7257  1.2939
 3790TIP3    H232786   2.042   6.916  13.938 -1.0620 -3.1338 -2.6940
 3791TIP3   OH232787   2.053   0.826  12.800  0.1044  0.2119 -0.1203
 3791TIP3    H132788   1.965   0.858  12.821  0.2096  0.5173 -0.1400
 3791TIP3    H232789   2.062   0.839  12.705  0.0549 -0.1024 -0.1666
 3792TIP3   OH232790   5.674   4.723  15.246  0.3314  0.0182 -0.0677
 3792TIP3    H132791   5.757   4.749  15.206 -0.6442 -0.7572 -2.6890
 3792TIP3    H232792   5.617   4.704  15.172 -1.9185 -0.3279  1.7177
 3793TIP3   OH232793   6.641   6.871  11.891  0.3814  0.0515  0.1576
 3793TIP3    H132794   6.568   6.924  11.925  0.6563 -0.1231  1.0317
 3793TIP3    H232795   6.709   6.878  11.959  0.7459 -0.7180 -0.1317
 3794TIP3   OH232796   5.744   7.113  12.958  0.0306  0.6052  0.2109
 3794TIP3    H132797   5.769   7.178  13.024 -0.0460  2.0889 -1.2075
 3794TIP3    H232798   5.814   7.116  12.893 -0.6821  0.2831 -0.5752
 3795TIP3   OH232799   0.438   0.965  13.815  0.1166 -0.1668  0.1177
 3795TIP3    H132800   0.462   0.876  13.790 -0.2386  0.0817 -1.1437
 3795TIP3    H232801   0.521   1.008  13.832  0.5184  0.1711 -2.4578
 3796TIP3   OH232802   0.355   0.144  12.910  0.0030 -0.1970 -0.3680
 3796TIP3    H132803   0.266   0.166  12.938 -0.0269  0.4139 -0.9321
 3796TIP3    H232804   0.407   0.148  12.991  0.0129  2.0560 -0.4661
 3797TIP3   OH232805   6.756   6.320  12.695  0.3030  0.6612 -0.3892
 3797TIP3    H132806   6.787   6.256  12.631 -0.5755 -0.4017  0.2191
 3797TIP3    H232807   6.687   6.274  12.743  0.6064  1.6007  0.9874
 3798TIP3   OH232808   2.518   4.371  13.699  0.2698 -0.5380 -0.2204
 3798TIP3    H132809   2.497   4.462  13.680  1.1007 -0.0311  1.1945
 3798TIP3    H232810   2.478   4.322  13.628  1.5101  1.0855 -2.0910
 3799TIP3   OH232811   4.182   6.418  14.288 -0.6900  0.0130 -0.9788
 3799TIP3    H132812   4.122   6.424  14.362 -0.5672 -2.7792 -0.6061
 3799TIP3    H232813   4.182   6.506  14.250 -2.5504  0.8708  0.9144
 3800TIP3   OH232814   5.735   1.062  12.797  0.3527  0.3353 -0.2474
 3800TIP3    H132815   5.815   1.042  12.749  1.3775 -0.6820  1.8272
 3800TIP3    H232816   5.749   1.151  12.830  0.1870  0.5455 -0.7357
 3801TIP3   OH232817   6.394   6.984  15.362 -0.2795 -0.1381  0.7666
 3801TIP3    H132818   6.317   6.983  15.419 -0.1939  0.9922  0.9063
 3801TIP3    H232819   6.382   7.061  15.307  0.8614  0.1827  0.9516
 3802TIP3   OH232820   3.490   6.583  10.646  0.0037 -0.1159  0.1864
 3802TIP3    H132821   3.574   6.588  10.601  0.4625 -0.2377  1.0290
 3802TIP3    H232822   3.509   6.607  10.737 -0.9194  0.1365  0.3233
 3803TIP3   OH232823   5.965   1.617  11.496 -0.0547  0.1312 -0.2507
 3803TIP3    H132824   5.898   1.551  11.477  0.3259 -0.1470 -0.6433
 3803TIP3    H232825   5.964   1.674  11.419  0.6027 -0.2477 -0.5400
 3804TIP3   OH232826   6.387   0.653  10.425  0.2157  0.2024 -0.5366
 3804TIP3    H132827   6.386   0.614  10.337 -0.0961  2.3028 -1.4905
 3804TIP3    H232828   6.470   0.699  10.430  0.9752 -1.2867  0.9213
 3805TIP3   OH232829   1.095   6.287  13.760  0.0350  0.4574 -0.5207
 3805TIP3    H132830   1.182   6.318  13.735 -0.6499  1.5209 -1.6569
 3805TIP3    H232831   1.111   6.210  13.814  1.6721  0.5368 -0.8744
 3806TIP3   OH232832   7.162   3.830  10.150  0.0040  0.4309  0.3132
 3806TIP3    H132833   7.199   3.881  10.222 -1.0666  0.7686  0.6258
 3806TIP3    H232834   7.099   3.888  10.108 -0.2028 -0.1564 -0.2034
 3807TIP3   OH232835   7.084   0.465  10.639 -0.4001 -0.9339 -0.6670
 3807TIP3    H132836   7.172   0.428  10.650 -0.3171 -0.7619 -0.7539
 3807TIP3    H232837   7.046   0.414  10.567 -0.5204 -1.2805 -0.3611
 3808TIP3   OH232838   1.510   0.019   0.373 -0.2361  0.0779 -0.1647
 3808TIP3    H132839   1.493   0.087   0.438 -0.2833 -0.9633  0.9266
 3808TIP3    H232840   1.423  -0.016   0.352 -0.3166  0.9863 -1.4549
 3809TIP3   OH232841   1.580   5.429  13.009 -0.3878  0.4934  0.4446
 3809TIP3    H132842   1.654   5.453  13.065  0.1595  0.4959 -0.2679
 3809TIP3    H232843   1.508   5.413  13.069 -0.1325  1.6617  1.0760
 3810TIP3   OH232844   1.197   2.874  14.396  0.3983 -0.6580 -0.5252
 3810TIP3    H132845   1.222   2.948  14.341 -1.2642  0.1432 -0.2375
 3810TIP3    H232846   1.233   2.895  14.482 -2.0585  0.9906  0.1448
 3811TIP3   OH232847   6.270   3.630  12.309  0.2735  0.1837 -0.3078
 3811TIP3    H132848   6.350   3.670  12.342 -0.2604  3.2089 -2.4105
 3811TIP3    H232849   6.286   3.619  12.215 -1.7899  0.9920 -0.7793
 3812TIP3   OH232850   3.224   1.784  12.535 -0.2768  0.1436 -0.3645
 3812TIP3    H132851   3.130   1.801  12.527 -0.2729 -0.5602 -1.9567
 3812TIP3    H232852   3.247   1.735  12.456  1.7675  1.7351 -0.8016
 3813TIP3   OH232853   0.920   2.055   1.097  0.5136 -1.0456  0.8053
 3813TIP3    H132854   0.876   2.023   1.018  0.5366 -0.6032  0.6129
 3813TIP3    H232855   1.007   2.080   1.066  0.3799 -0.4819  0.8953
 3814TIP3   OH232856   4.101   0.474  10.347 -0.8677 -0.5657 -0.1768
 3814TIP3    H132857   4.015   0.444  10.375 -0.7152 -0.5293  0.3399
 3814TIP3    H232858   4.092   0.490  10.253 -1.4334 -0.5218 -0.1152
 3815TIP3   OH232859   0.556   6.109  10.445 -0.5162 -0.4711 -0.0097
 3815TIP3    H132860   0.596   6.196  10.448 -0.6109 -0.4012 -0.5955
 3815TIP3    H232861   0.543   6.093  10.352  0.1056 -1.3972  0.0593
 3816TIP3   OH232862   0.314   0.345  12.141 -0.0958  0.3735  0.8556
 3816TIP3    H132863   0.397   0.327  12.098  0.5471 -0.4796  2.4253
 3816TIP3    H232864   0.276   0.258  12.157 -0.7935  0.7169  1.0888
 3817TIP3   OH232865   5.372   1.369  15.688 -0.6839 -0.4298 -0.3218
 3817TIP3    H132866   5.307   1.433  15.715 -1.2186 -0.7820 -0.7697
 3817TIP3    H232867   5.366   1.367  15.592  0.3415 -0.0918 -0.4072
 3818TIP3   OH232868   0.930   1.871  13.334  0.4550  0.0687  0.3432
 3818TIP3    H132869   0.836   1.860  13.347  0.3044  0.8655 -0.0111
 3818TIP3    H232870   0.938   1.925  13.255  1.3249 -3.3715 -2.0125
 3819TIP3   OH232871   6.232   2.061  15.496  0.0855  0.4157 -0.3847
 3819TIP3    H132872   6.157   2.066  15.437  0.9841  1.2881 -1.4738
 3819TIP3    H232873   6.308   2.078  15.440  1.4484 -3.8730  0.0363
 3820TIP3   OH232874   0.026   0.933  11.298 -0.4973  0.5683  0.2341
 3820TIP3    H132875   0.071   0.908  11.217 -0.2922  1.1135  0.1801
 3820TIP3    H232876   0.064   1.017  11.322 -0.9556  0.6745  0.5965
 3821TIP3   OH232877   1.216   0.812  11.449  0.4997 -0.3936 -0.1905
 3821TIP3    H132878   1.203   0.805  11.355 -1.1303 -0.6120  0.0375
 3821TIP3    H232879   1.273   0.738  11.471 -1.3190 -1.9412 -0.6144
 3822TIP3   OH232880   6.136   4.700  12.140 -0.2484  0.3613 -0.2257
 3822TIP3    H132881   6.221   4.724  12.104 -0.7236  0.8858 -1.0239
 3822TIP3    H232882   6.074   4.716  12.068 -1.0068 -0.0940  0.3143
 3823TIP3   OH232883   1.502   4.194  11.765 -0.5068 -0.4679  0.0097
 3823TIP3    H132884   1.458   4.272  11.800 -1.0122 -1.1692  0.9755
 3823TIP3    H232885   1.506   4.134  11.840 -1.6692 -2.0347 -1.1811
 3824TIP3   OH232886   5.014   2.542  14.490 -0.7377 -0.4143  0.4327
 3824TIP3    H132887   5.050   2.581  14.411 -0.5080 -3.0520 -0.8422
 3824TIP3    H232888   5.091   2.520  14.543 -0.8952  1.4473  1.4761
 3825TIP3   OH232889   6.188   3.498  10.487 -0.5250 -0.1410  0.4809
 3825TIP3    H132890   6.164   3.418  10.533  1.4079  0.8803  3.3943
 3825TIP3    H232891   6.272   3.478  10.445 -0.8271 -0.1296 -0.1394
 3826TIP3   OH232892   0.721   1.276  14.204  0.0578 -0.2197 -0.2119
 3826TIP3    H132893   0.635   1.233  14.205  1.6569 -3.5447  0.3397
 3826TIP3    H232894   0.781   1.209  14.173  2.5450  1.9616 -0.2694
 3827TIP3   OH232895   3.931   2.200  14.273 -0.2483  0.3191  0.1802
 3827TIP3    H132896   3.941   2.164  14.185  0.0842  4.2817 -1.5381
 3827TIP3    H232897   4.020   2.202  14.308 -0.0945  0.6018 -0.2170
 3828TIP3   OH232898   2.085   2.120  14.198 -0.5655  0.0716  0.6431
 3828TIP3    H132899   2.038   2.162  14.126  0.6477  0.2785 -0.0495
 3828TIP3    H232900   2.166   2.170  14.206  0.6594 -1.7397  0.1761
 3829TIP3   OH232901   6.898   0.943  11.417  0.0338  0.0479  0.3783
 3829TIP3    H132902   6.949   0.943  11.336  0.6251 -0.4597  0.7445
 3829TIP3    H232903   6.909   0.855  11.453 -2.5723 -0.6279 -0.4326
 3830TIP3   OH232904   5.617   7.124  11.083  0.0993 -0.5822 -0.0394
 3830TIP3    H132905   5.595   7.152  11.172  2.5224 -1.3807  0.8479
 3830TIP3    H232906   5.532   7.107  11.042 -1.0852  0.3763  1.9081
 3831TIP3   OH232907   5.350   3.592  10.458 -0.1050 -0.3689 -0.5493
 3831TIP3    H132908   5.357   3.666  10.398 -1.1954 -0.9851 -1.4467
 3831TIP3    H232909   5.367   3.515  10.404  0.7647 -0.8043  0.3245
 3832TIP3   OH232910   6.672   0.711  11.537 -0.2010 -0.3424  0.3416
 3832TIP3    H132911   6.584   0.732  11.569 -0.8936 -1.9413 -0.4770
 3832TIP3    H232912   6.667   0.726  11.443  0.3727 -0.5823  0.2716
 3833TIP3   OH232913   6.265   1.127  11.376  0.6889  0.0218 -0.4818
 3833TIP3    H132914   6.282   1.114  11.283  0.1267  1.0504 -0.7334
 3833TIP3    H232915   6.170   1.131  11.383  0.7632  1.2949 -0.0498
 3834TIP3   OH232916   5.312   4.316  13.513 -0.2205  0.1649  0.0168
 3834TIP3    H132917   5.280   4.315  13.603  0.5842  1.9360  0.3588
 3834TIP3    H232918   5.406   4.301  13.520 -0.3653 -1.0875 -0.6478
 3835TIP3   OH232919   0.738   5.750   2.838 -0.1333  0.4045  0.3739
 3835TIP3    H132920   0.794   5.725   2.764 -0.1611  1.7452 -0.1108
 3835TIP3    H232921   0.689   5.670   2.858  1.0407 -0.4397 -0.0026
 3836TIP3   OH232922   4.190   1.068  13.664  0.1942  0.0465  0.5606
 3836TIP3    H132923   4.130   1.023  13.724 -0.2164  0.4279  0.4329
 3836TIP3    H232924   4.134   1.124  13.611  0.7475  1.0821  1.0414
 3837TIP3   OH232925   4.430   5.457  14.029  0.3696 -0.0110  0.4402
 3837TIP3    H132926   4.410   5.524  14.094  0.9516  0.7390 -0.1430
 3837TIP3    H232927   4.349   5.407  14.021  0.3959 -0.3193  1.9795
 3838TIP3   OH232928   5.961   0.869  13.547 -0.4963 -0.1010 -0.4473
 3838TIP3    H132929   6.031   0.810  13.575  0.9310  1.1440 -1.2631
 3838TIP3    H232930   5.909   0.884  13.625  1.9206  1.3092  0.9518
 3839TIP3   OH232931   4.740   5.798  11.891  0.2737  0.2073 -0.1507
 3839TIP3    H132932   4.789   5.777  11.811  2.8853  0.4258  1.3365
 3839TIP3    H232933   4.760   5.890  11.908 -0.9627  0.4040  0.3178
 3840TIP3   OH232934   0.360   0.140  12.469 -0.5369  0.2642  0.4892
 3840TIP3    H132935   0.359   0.128  12.564 -0.8106  0.8450  0.5588
 3840TIP3    H232936   0.323   0.227  12.455 -0.9425 -0.0093 -0.1783
 3841TIP3   OH232937   4.587   6.246  10.872  0.3090  0.6736 -0.0687
 3841TIP3    H132938   4.579   6.339  10.893 -0.3645  0.7978 -0.8371
 3841TIP3    H232939   4.508   6.226  10.821 -1.3901 -1.1401  3.0411
 3842TIP3   OH232940   0.724   1.671  12.754 -0.1622 -0.2436  0.3068
 3842TIP3    H132941   0.743   1.763  12.742  0.4967 -0.5755 -1.2375
 3842TIP3    H232942   0.650   1.670  12.815 -0.8661  1.3392 -0.4812
 3843TIP3   OH232943   0.004   0.884  10.604 -0.0483 -0.2436  0.2099
 3843TIP3    H132944  -0.008   0.854  10.695  0.5554 -1.2704 -0.0397
 3843TIP3    H232945  -0.068   0.842  10.556  1.0903 -1.7180 -0.2314
 3844TIP3   OH232946   2.936   0.845  15.627  0.0533  0.2881  0.6021
 3844TIP3    H132947   2.939   0.859  15.722  0.2505  2.3436  0.3152
 3844TIP3    H232948   2.846   0.867  15.603  0.5203  1.6244  0.0520
 3845TIP3   OH232949   6.253   4.060  12.950  0.1926  0.9483  0.6359
 3845TIP3    H132950   6.288   4.076  12.862  0.7546 -0.0159  0.6743
 3845TIP3    H232951   6.331   4.059  13.006  0.0681 -0.7887  0.7878
 3846TIP3   OH232952   1.107   2.005  13.548 -0.3713  0.1655 -0.1754
 3846TIP3    H132953   1.099   1.947  13.624  0.6780 -0.3327 -0.4276
 3846TIP3    H232954   1.049   1.966  13.482 -2.1696  1.2406  0.7305
 3847TIP3   OH232955   5.428   2.252   0.804 -0.4614  0.7331 -0.1787
 3847TIP3    H132956   5.355   2.225   0.748 -0.5234  1.0016 -0.2270
 3847TIP3    H232957   5.465   2.329   0.761 -0.0126  0.4702 -0.2649
 3848TIP3   OH232958   1.668   0.753  12.040  0.6126  0.2860 -0.0208
 3848TIP3    H132959   1.678   0.714  12.127  0.8552  0.3282 -0.0274
 3848TIP3    H232960   1.732   0.824  12.039  0.6417  0.2566 -0.2500
 3849TIP3   OH232961   3.171   5.329  10.820  0.2613 -0.3676  0.5756
 3849TIP3    H132962   3.209   5.241  10.809  2.6907  0.7853 -0.6463
 3849TIP3    H232963   3.214   5.363  10.898 -1.1441 -0.4826  1.4040
 3850TIP3   OH232964   3.260   0.311   0.294  0.1127  0.0357  0.1719
 3850TIP3    H132965   3.342   0.279   0.256  0.5401  0.7860  0.4550
 3850TIP3    H232966   3.236   0.387   0.241  0.4416  0.7727  1.0552
 3851TIP3   OH232967   5.379   5.128  13.872  0.5141 -0.4990  0.4294
 3851TIP3    H132968   5.413   5.144  13.961  0.3289  1.7660  0.1273
 3851TIP3    H232969   5.288   5.102  13.885 -0.2728  2.2430  0.8442
 3852TIP3   OH232970   3.909   5.932  13.082 -0.4608  0.3550  0.1802
 3852TIP3    H132971   3.927   6.015  13.127  2.1348  0.1031 -0.3072
 3852TIP3    H232972   3.861   5.880  13.146 -0.6286  1.6234  1.1076
 3853TIP3   OH232973   1.327   0.778  15.020  0.1966  0.4579 -0.1623
 3853TIP3    H132974   1.394   0.809  14.958  0.9771  0.7435  0.8040
 3853TIP3    H232975   1.244   0.799  14.978  0.7149  0.5087 -1.1874
 3854TIP3   OH232976   6.820   0.658  10.000 -0.2880  0.4174  0.0518
 3854TIP3    H132977   6.773   0.617  10.072  0.2074  0.4044  0.3679
 3854TIP3    H232978   6.857   0.585   9.950  2.0570  0.4862  1.5886
 3855TIP3   OH232979   0.204   3.905  14.909 -0.1800  0.1243 -0.3014
 3855TIP3    H132980   0.172   3.964  14.977  2.6980  0.2788  0.9961
 3855TIP3    H232981   0.165   3.938  14.828 -0.0381  2.7334  0.6494
 3856TIP3   OH232982   2.169   1.831  12.589 -0.2567  0.3099  0.2101
 3856TIP3    H132983   2.132   1.900  12.643 -0.4642 -0.5397  1.1583
 3856TIP3    H232984   2.141   1.750  12.630  0.6104 -0.3447 -0.4588
 3857TIP3   OH232985   5.873   1.919  14.949  0.9262  0.5087  0.2561
 3857TIP3    H132986   5.935   1.987  14.923  1.2360  0.2598  0.3348
 3857TIP3    H232987   5.787   1.952  14.923  1.0691  0.9639  0.3688
 3858TIP3   OH232988   3.526   0.765  14.463  0.5784 -0.6421  0.0458
 3858TIP3    H132989   3.511   0.676  14.431 -1.4742 -0.4261  0.3618
 3858TIP3    H232990   3.453   0.815  14.427  2.0823  1.0719 -0.6960
 3859TIP3   OH232991   7.077   0.828  12.957 -0.3908 -0.2209  0.0818
 3859TIP3    H132992   7.048   0.738  12.963  1.5300 -0.8555  0.3080
 3859TIP3    H232993   7.173   0.823  12.961 -0.2433  1.8002 -0.0896
 3860TIP3   OH232994   5.778   6.222  13.927  0.2642  0.1014  0.0079
 3860TIP3    H132995   5.797   6.314  13.908  1.0496 -0.0192  0.1577
 3860TIP3    H232996   5.851   6.174  13.887  0.1159 -0.4171  0.3487
 3861TIP3   OH232997   6.266   1.651  10.722  0.5776  0.4055 -0.1622
 3861TIP3    H132998   6.310   1.690  10.646 -1.0579 -0.7833 -1.7802
 3861TIP3    H232999   6.336   1.631  10.783  1.8156  2.5322 -0.8194
 3862TIP3   OH233000   3.114   0.063  10.678 -0.4363  0.1365  0.2258
 3862TIP3    H133001   3.074  -0.019  10.649 -0.2742 -0.3768  1.4288
 3862TIP3    H233002   3.043   0.110  10.722 -0.9754  1.4084 -1.9399
 3863TIP3   OH233003   6.774   0.754   0.259 -0.7124 -0.1994 -0.2940
 3863TIP3    H133004   6.818   0.670   0.266 -0.1356 -0.1788 -2.9343
 3863TIP3    H233005   6.684   0.732   0.234 -1.1813 -0.0916  1.2391
 3864TIP3   OH233006   6.753   4.826  13.373 -0.0480  0.2947  0.0350
 3864TIP3    H133007   6.726   4.746  13.417  0.7284  0.0211  0.0230
 3864TIP3    H233008   6.672   4.863  13.339 -0.4893 -0.1686  0.5635
 3865TIP3   OH233009   6.558   6.956  13.511 -0.0481 -0.2443  0.5616
 3865TIP3    H133010   6.541   6.945  13.604 -0.0144 -1.0726  0.4790
 3865TIP3    H233011   6.491   7.017  13.481 -0.8886 -0.9885  0.8795
 3866TIP3   OH233012   0.339   0.903  14.104 -0.9390  0.0619 -0.3402
 3866TIP3    H133013   0.244   0.892  14.096 -0.7477 -0.5722 -1.8574
 3866TIP3    H233014   0.376   0.829  14.056  0.3441 -1.5878  2.9761
 3867TIP3   OH233015   0.335   4.068  11.314 -0.1967 -0.0244  0.4150
 3867TIP3    H133016   0.359   4.116  11.393 -0.3065  0.8998 -0.1083
 3867TIP3    H233017   0.278   3.998  11.345 -1.5539  1.2934  0.9752
 3868TIP3   OH233018   0.646   1.413  13.347 -0.1668  0.5978 -0.2372
 3868TIP3    H133019   0.669   1.437  13.257  1.4056  0.2461  0.0508
 3868TIP3    H233020   0.659   1.318  13.351  1.9012  0.8863  0.9229
 3869TIP3   OH233021   4.829   7.033  14.199  0.1501 -0.0641  0.3983
 3869TIP3    H133022   4.736   7.010  14.202  0.2086 -0.3462  0.0461
 3869TIP3    H233023   4.838   7.085  14.119 -0.0102  1.3195  1.2619
 3870TIP3   OH233024   4.337   0.030  14.638  0.3839 -0.3755 -0.0879
 3870TIP3    H133025   4.372  -0.044  14.688 -0.3179 -2.6912 -2.8943
 3870TIP3    H233026   4.410   0.058  14.583  0.1283 -0.1096 -0.2952
 3871TIP3   OH233027   5.950   1.604   1.286 -0.4365  0.4159 -0.6678
 3871TIP3    H133028   5.951   1.654   1.204 -0.4041 -2.2771 -2.3544
 3871TIP3    H233029   5.871   1.551   1.281  0.9259 -1.7273 -0.1696
 3872TIP3   OH233030   6.874   5.433  13.825 -0.2787  0.3865  0.2390
 3872TIP3    H133031   6.890   5.516  13.869 -1.1124  1.3418 -1.2292
 3872TIP3    H233032   6.920   5.440  13.742 -1.1777 -0.2350 -0.3177
 3873TIP3   OH233033   3.819   0.712  14.928 -0.4502  0.0929 -0.0969
 3873TIP3    H133034   3.747   0.746  14.875 -1.0329  0.9506  1.2151
 3873TIP3    H233035   3.779   0.690  15.012  0.7924  0.4349  0.5977
 3874TIP3   OH233036   4.110   1.527  11.758 -0.3411 -0.1200 -0.1022
 3874TIP3    H133037   4.037   1.557  11.812 -0.7776  0.4027 -0.9616
 3874TIP3    H233038   4.174   1.598  11.763  0.6781 -1.1279  1.6803
 3875TIP3   OH233039   1.259   1.205  12.095  0.0443  0.4711  0.1746
 3875TIP3    H133040   1.247   1.281  12.038 -0.7061  0.8605  0.8479
 3875TIP3    H233041   1.203   1.222  12.171 -0.6219 -1.0521  0.0381
 3876TIP3   OH233042   0.158   0.108  11.905 -0.0722  0.2410 -0.0162
 3876TIP3    H133043   0.120   0.176  11.849 -0.9378 -0.0428  0.2299
 3876TIP3    H233044   0.141   0.138  11.994 -1.2956 -0.7665  0.0967
 3877TIP3   OH233045   0.338   1.060  12.257  0.0317  0.1611 -0.2568
 3877TIP3    H133046   0.376   1.020  12.335 -2.0669  2.0629  1.8473
 3877TIP3    H233047   0.297   0.988  12.209  3.9163 -1.4906 -1.2315
 3878TIP3   OH233048   1.801   2.030  11.170 -0.2741 -0.4479 -0.1453
 3878TIP3    H133049   1.783   2.111  11.122 -1.0583 -0.4281  0.1719
 3878TIP3    H233050   1.883   2.046  11.215 -0.4807  0.2078 -0.0072
 3879TIP3   OH233051   3.219   3.639  10.941  0.0617 -0.0120 -0.4047
 3879TIP3    H133052   3.145   3.694  10.916  0.8927  0.7992 -1.1320
 3879TIP3    H233053   3.218   3.567  10.877  0.5330  0.5747 -1.0835
 3880TIP3   OH233054   7.159   1.615  15.040  0.2880  1.2454 -0.2147
 3880TIP3    H133055   7.154   1.552  14.969  0.7586 -1.1777  1.8269
 3880TIP3    H233056   7.245   1.655  15.032  1.2016 -0.5746  0.2337
 3881TIP3   OH233057   6.709   0.661  11.820  0.2847  0.1536 -0.1600
 3881TIP3    H133058   6.707   0.667  11.724  0.2656 -2.0511 -0.3097
 3881TIP3    H233059   6.619   0.645  11.845  0.0291  2.2677  0.3695
 3882TIP3   OH233060   4.257   2.705  12.998 -0.1379 -0.4157 -0.8411
 3882TIP3    H133061   4.344   2.733  12.971 -0.3121  1.5481  0.4878
 3882TIP3    H233062   4.272   2.632  13.058  0.4607 -1.6509 -2.4789
 3883TIP3   OH233063   5.468   1.946  12.515  0.1024 -0.2057  0.0704
 3883TIP3    H133064   5.497   1.864  12.555 -0.3024 -1.4194 -2.0413
 3883TIP3    H233065   5.377   1.929  12.490  0.1917  0.6864 -0.8750
 3884TIP3   OH233066   6.212   3.163  11.542  0.5018  0.5407  0.4433
 3884TIP3    H133067   6.155   3.142  11.616  0.6140  0.7273  0.5865
 3884TIP3    H233068   6.298   3.178  11.582  0.6525  0.2501  0.2276
 3885TIP3   OH233069   3.018   2.100  14.022 -0.7008  0.0035 -0.3107
 3885TIP3    H133070   3.108   2.102  13.989 -0.3273 -0.1789  0.6781
 3885TIP3    H233071   2.983   2.187  14.002 -0.1926  0.1929 -0.3859
 3886TIP3   OH233072   0.175   0.870  11.062 -0.7982 -0.2686 -0.0328
 3886TIP3    H133073   0.162   0.784  11.023 -1.6468 -0.0652 -0.2110
 3886TIP3    H233074   0.266   0.869  11.092 -0.8249 -1.2500  0.0384
 3887TIP3   OH233075   5.659   1.326  13.681 -0.5630 -0.2807 -0.3689
 3887TIP3    H133076   5.729   1.344  13.619  0.2862  3.2947  1.5155
 3887TIP3    H233077   5.578   1.345  13.633 -0.1335 -1.4597 -1.5848
 3888TIP3   OH233078   1.904   6.320  12.065  0.0067 -0.1838  0.4519
 3888TIP3    H133079   1.993   6.351  12.050 -0.2825 -0.6095 -2.4327
 3888TIP3    H233080   1.858   6.340  11.984 -2.1852 -1.2071  1.4020
 3889TIP3   OH233081   6.031   0.698  13.329 -0.4497 -0.1033 -0.6939
 3889TIP3    H133082   6.099   0.721  13.265  0.1313 -0.3001 -0.1470
 3889TIP3    H233083   5.999   0.783  13.360 -0.7022 -0.0056 -1.2115
 3890TIP3   OH233084   6.911   0.241  12.231 -0.2503 -0.4195  0.3696
 3890TIP3    H133085   6.890   0.334  12.242 -0.4372 -0.5893  1.5239
 3890TIP3    H233086   6.830   0.196  12.255 -0.1072 -0.8872 -0.0364
 3891TIP3   OH233087   6.981   2.055  12.048 -0.8471  0.0106  0.3331
 3891TIP3    H133088   7.070   2.090  12.047 -1.4355  1.5203  0.1483
 3891TIP3    H233089   6.967   2.023  11.959  0.1170 -1.8193  0.8130
 3892TIP3   OH233090   4.999   1.704  15.173 -0.2153  0.2535 -0.3204
 3892TIP3    H133091   5.044   1.691  15.257 -0.5912  1.0493  0.0093
 3892TIP3    H233092   5.027   1.629  15.120 -1.7927 -1.5375  1.2863
 3893TIP3   OH233093   4.944   1.152  11.392 -0.1241 -0.0855 -0.3634
 3893TIP3    H133094   4.957   1.247  11.389 -2.3215  0.3300  1.7250
 3893TIP3    H233095   4.904   1.131  11.307 -1.4485  1.1879 -0.0781
 3894TIP3   OH233096   1.422   6.211  15.373 -0.7061 -0.2363  0.2133
 3894TIP3    H133097   1.435   6.239  15.283 -0.0131 -1.7014 -0.1579
 3894TIP3    H233098   1.490   6.256  15.423  0.0951 -0.8875 -0.2938
 3895TIP3   OH233099   6.465   2.093  15.360 -0.4054 -0.2970 -0.0129
 3895TIP3    H133100   6.498   2.178  15.391  1.0510 -0.2712 -1.5285
 3895TIP3    H233101   6.475   2.097  15.265 -3.1893 -1.0107 -0.3816
 3896TIP3   OH233102   4.090   0.617  15.298 -0.6760  0.4657 -0.3142
 3896TIP3    H133103   4.115   0.525  15.292 -4.0902 -0.4528 -1.2082
 3896TIP3    H233104   4.115   0.654  15.213  0.0246  0.1868 -0.2319
 3897TIP3   OH233105   5.834   6.830  12.621  0.2831 -0.1892 -0.2728
 3897TIP3    H133106   5.835   6.864  12.710  0.4078 -0.6114 -0.1080
 3897TIP3    H233107   5.894   6.755  12.624  1.1304  0.4476 -0.9754
 3898TIP3   OH233108   6.744   5.958  11.299 -0.1862 -0.3094 -0.5205
 3898TIP3    H133109   6.781   6.044  11.317 -0.8283 -0.3808  1.2100
 3898TIP3    H233110   6.805   5.896  11.339 -0.9573 -0.5356  0.3241
 3899TIP3   OH233111   7.081   0.860  11.239  0.7042 -0.4874  0.4500
 3899TIP3    H133112   7.057   0.911  11.161  1.9572 -2.1418 -1.0470
 3899TIP3    H233113   7.170   0.888  11.259  0.8019 -0.8962  0.5887
 3900TIP3   OH233114   5.494   6.067   0.308 -0.0645  0.3567 -0.0599
 3900TIP3    H133115   5.460   5.980   0.328 -0.1729  0.0100 -1.7089
 3900TIP3    H233116   5.450   6.125   0.371  0.0390 -0.7803  1.0560
 3901TIP3   OH233117   6.652   6.159  14.113  0.4513 -0.4163 -0.2896
 3901TIP3    H133118   6.558   6.149  14.127  0.1240 -2.4593 -3.5882
 3901TIP3    H233119   6.659   6.220  14.039  1.7853  0.6303  0.6661
 3902TIP3   OH233120   2.841   1.327  13.276  0.1686  0.1096 -0.1368
 3902TIP3    H133121   2.855   1.370  13.361 -1.3056  0.1497  0.1018
 3902TIP3    H233122   2.780   1.255  13.296 -0.5298  0.3871 -1.2337
 3903TIP3   OH233123   2.574   0.045  12.808  0.4070 -0.1260  0.1790
 3903TIP3    H133124   2.642   0.104  12.840  0.1189 -0.5053  1.5400
 3903TIP3    H233125   2.569   0.062  12.714  1.8192  0.4662  0.2077
 3904TIP3   OH233126   7.092   1.321  11.320  0.3098  0.0092 -0.5417
 3904TIP3    H133127   7.143   1.249  11.357  0.8497  0.1969 -0.9084
 3904TIP3    H233128   7.140   1.346  11.241 -0.2972  0.2610 -0.8328
 3905TIP3   OH233129   6.033   3.260  15.053 -0.5453 -0.0842  0.0803
 3905TIP3    H133130   5.976   3.288  15.125 -0.1971  1.6328 -0.3053
 3905TIP3    H233131   6.048   3.339  15.002 -0.9547 -1.3180 -2.0116
 3906TIP3   OH233132   2.493   6.147  12.203  0.4915 -0.3529  0.0006
 3906TIP3    H133133   2.514   6.059  12.172 -1.8050 -1.3250  1.1251
 3906TIP3    H233134   2.435   6.183  12.136  1.9720  0.5954 -0.8016
 3907TIP3   OH233135   5.146   3.038  13.724  0.2265 -0.1745  0.0482
 3907TIP3    H133136   5.117   2.957  13.682  2.3478 -1.3376  0.7476
 3907TIP3    H233137   5.114   3.030  13.814  1.5750 -0.8977  0.4866
 3908TIP3   OH233138   5.981   2.684  10.264  0.6471 -0.1167 -0.4566
 3908TIP3    H133139   6.026   2.764  10.237  0.8367 -0.3589 -0.8481
 3908TIP3    H233140   5.947   2.646  10.183  1.4301 -0.9763 -0.3869
 3909TIP3   OH233141   1.924   1.678  10.182 -0.1305  0.4577  0.2034
 3909TIP3    H133142   1.991   1.722  10.130 -1.6563  2.2348 -0.3146
 3909TIP3    H233143   1.937   1.585  10.164  0.8044  0.9191 -1.6063
 3910TIP3   OH233144   4.678   0.339  12.988  0.1024 -0.2312  0.2646
 3910TIP3    H133145   4.673   0.332  13.083 -1.3117  1.7015  0.3680
 3910TIP3    H233146   4.638   0.424  12.968 -0.7944 -1.1784 -2.1543
 3911TIP3   OH233147   5.184   3.476  14.346  0.6497 -0.0495  0.4152
 3911TIP3    H133148   5.197   3.539  14.417  1.2036  1.4334 -0.9847
 3911TIP3    H233149   5.272   3.454  14.316  0.3601  1.8200 -1.9477
 3912TIP3   OH233150   3.262   0.297   0.646 -0.2975  0.5333 -0.1690
 3912TIP3    H133151   3.302   0.306   0.732  0.6479 -0.9429 -0.4394
 3912TIP3    H233152   3.336   0.281   0.587 -1.0540  0.2142 -1.0347
 3913TIP3   OH233153   0.781   1.650  11.114 -0.7479  0.4770 -0.5353
 3913TIP3    H133154   0.737   1.662  11.199  1.2337  1.4810  0.3848
 3913TIP3    H233155   0.843   1.579  11.129  0.9889  1.9639 -0.5783
 3914TIP3   OH233156   2.059   6.223  14.315 -0.7370  0.0292 -0.0465
 3914TIP3    H133157   2.076   6.316  14.302 -0.3248 -0.2528 -1.7606
 3914TIP3    H233158   2.096   6.182  14.236 -2.2387 -1.4272 -0.0047
 3915TIP3   OH233159   3.444   1.935  10.651 -0.2602 -0.1902 -1.0726
 3915TIP3    H133160   3.374   1.870  10.658 -0.9260  0.5846 -0.4727
 3915TIP3    H233161   3.454   1.969  10.740  2.1533 -1.6008 -0.7625
 3916TIP3   OH233162   2.141   0.345  14.873  0.2474 -0.0458 -0.3340
 3916TIP3    H133163   2.165   0.323  14.784 -0.0089 -1.1820 -0.1296
 3916TIP3    H233164   2.217   0.320  14.926  0.4746  0.7967 -0.2533
 3917TIP3   OH233165   6.134   4.173  12.180  0.5983 -0.2574 -0.3671
 3917TIP3    H133166   6.044   4.195  12.201  1.1868  0.6389  1.3771
 3917TIP3    H233167   6.128   4.108  12.110 -1.4585 -1.5513  0.9510
 3918TIP3   OH233168   1.374   5.967  14.618 -0.2755 -1.0488  0.0342
 3918TIP3    H133169   1.305   6.027  14.591  0.2862  0.5315  1.9554
 3918TIP3    H233170   1.434   5.964  14.544 -1.7541 -1.4677 -1.1720
 3919TIP3   OH233171   4.045   3.094  12.388  0.1407 -0.0027  0.0044
 3919TIP3    H133172   4.078   3.009  12.417  0.1077  0.0439  0.1813
 3919TIP3    H233173   3.999   3.129  12.465 -0.4688 -0.1453 -0.2918
 3920TIP3   OH233174   7.091   0.773  10.450 -0.4090 -0.7096  0.4620
 3920TIP3    H133175   7.122   0.690  10.413 -1.4652 -0.4582 -1.0238
 3920TIP3    H233176   7.000   0.780  10.421 -0.4752  0.7269  0.9858
 3921TIP3   OH233177   7.018   0.553  12.995 -0.0012  0.3088  0.4512
 3921TIP3    H133178   6.972   0.481  12.951 -1.4064  2.3238 -1.5176
 3921TIP3    H233179   6.999   0.539  13.088  0.7570 -2.5127  0.2395
 3922TIP3   OH233180   0.032   2.630  14.343  0.2335 -0.1108  0.4514
 3922TIP3    H133181   0.034   2.614  14.438  1.7135  0.2599  0.5022
 3922TIP3    H233182   0.090   2.705  14.330 -3.4835  2.8110 -0.2500
 3923TIP3   OH233183   0.347   6.612  12.946 -0.0952 -0.2192 -0.0643
 3923TIP3    H133184   0.289   6.564  13.004 -0.2740 -1.7466 -1.4661
 3923TIP3    H233185   0.348   6.561  12.864  0.4933  1.6259 -1.2544
 3924TIP3   OH233186   1.595   6.833  12.663  0.3106 -0.0310  0.2082
 3924TIP3    H133187   1.590   6.925  12.635  0.3447 -0.2747 -0.6339
 3924TIP3    H233188   1.685   6.807  12.641  0.6728  0.0608  1.5247
 3925TIP3   OH233189   4.077   0.311  12.995 -0.0973  0.2942 -0.0157
 3925TIP3    H133190   4.139   0.260  13.047  1.3393  1.5671 -0.4280
 3925TIP3    H233191   4.007   0.250  12.973  0.6545 -0.9794  1.0858
 3926TIP3   OH233192   5.442   1.922  13.265 -0.0650 -0.2693 -0.0221
 3926TIP3    H133193   5.376   1.894  13.202 -0.3508 -0.9257  0.5604
 3926TIP3    H233194   5.492   1.842  13.284  0.0258 -0.0747  0.5647
 3927TIP3   OH233195   5.990   6.534  12.878 -0.2182  0.2432 -0.1023
 3927TIP3    H133196   6.059   6.535  12.811  0.2789 -0.9210  0.3816
 3927TIP3    H233197   6.010   6.609  12.934  1.1768 -0.6055  0.5484
 3928TIP3   OH233198   4.078   7.081  15.097 -0.2251 -1.0275  0.2659
 3928TIP3    H133199   4.158   7.038  15.066  1.1822  1.8169 -0.1846
 3928TIP3    H233200   4.087   7.083  15.192  1.7319  1.9435  0.0803
 3929TIP3   OH233201   5.555   0.367  13.651  0.1515 -0.0182 -0.2101
 3929TIP3    H133202   5.554   0.292  13.592 -1.4065  1.5697 -2.3174
 3929TIP3    H233203   5.647   0.377  13.677  0.1857 -3.4231  1.2340
 3930TIP3   OH233204   1.003   0.023  11.496 -0.3587  0.2074 -0.5310
 3930TIP3    H133205   0.952   0.094  11.459 -0.6500  0.8903  1.1468
 3930TIP3    H233206   1.075   0.066  11.542  0.3622 -0.6460 -0.8402
 3931TIP3   OH233207   6.003   3.907  11.679  0.5977  0.5460 -0.7067
 3931TIP3    H133208   5.941   3.887  11.608 -0.7561 -0.2140  0.6600
 3931TIP3    H233209   6.015   4.002  11.674 -0.1659  0.6077 -1.4085
 3932TIP3   OH233210   6.481   1.399  11.586  0.1387 -0.0232  0.4994
 3932TIP3    H133211   6.521   1.421  11.502  1.0008  0.6662  1.0900
 3932TIP3    H233212   6.483   1.480  11.636  1.4622 -0.9224  1.9368
 3933TIP3   OH233213   5.942   2.348  11.178  0.1100  0.9447  0.4354
 3933TIP3    H133214   5.873   2.281  11.178  1.7341 -0.7576  1.0430
 3933TIP3    H233215   5.925   2.399  11.099 -0.4037 -0.9664 -0.7161
 3934TIP3   OH233216   2.049   1.874  14.336  0.2154  0.4902  0.6967
 3934TIP3    H133217   2.123   1.931  14.312 -0.6822  1.3964  0.0552
 3934TIP3    H233218   2.016   1.911  14.418 -1.4660  1.9916 -0.6111
 3935TIP3   OH233219   6.027   2.717  12.854 -0.2328 -0.0796 -0.0138
 3935TIP3    H133220   6.053   2.804  12.826  1.6207 -0.5644  0.1369
 3935TIP3    H233221   6.106   2.663  12.844 -2.3443 -2.6692 -3.8281
 3936TIP3   OH233222   0.831   0.258  11.485  0.0877  0.4114 -0.3076
 3936TIP3    H133223   0.742   0.242  11.516  0.1487  0.8437  0.0855
 3936TIP3    H233224   0.868   0.321  11.547  1.5323 -1.6989  1.0402
 3937TIP3   OH233225   2.068   5.426  11.577  0.2631 -0.4961  0.1991
 3937TIP3    H133226   2.145   5.385  11.617 -1.3803 -1.5043  2.4052
 3937TIP3    H233227   2.074   5.518  11.602  1.6354 -0.2282 -1.0675
 3938TIP3   OH233228   6.892   1.378  10.602 -0.2890 -0.3050  0.3122
 3938TIP3    H133229   6.875   1.416  10.515  1.1405 -2.6350 -1.0382
 3938TIP3    H233230   6.979   1.409  10.625 -0.1603 -0.7052  0.3555
 3939TIP3   OH233231   6.175   0.561  10.543  0.3500 -0.0340  0.0744
 3939TIP3    H133232   6.216   0.481  10.577 -0.2197  0.5038  2.1034
 3939TIP3    H233233   6.246   0.607  10.498  1.3212 -0.4132  1.1993
 3940TIP3   OH233234   0.588   1.650  13.077  0.1249 -0.4580  0.7625
 3940TIP3    H133235   0.510   1.652  13.133  1.6563 -0.3520  2.9406
 3940TIP3    H233236   0.622   1.739  13.081  0.4381 -0.5404 -0.0854
 3941TIP3   OH233237   6.431   0.112  12.499  0.3734  0.1083  0.0537
 3941TIP3    H133238   6.357   0.160  12.536 -0.5542  0.3475 -2.0275
 3941TIP3    H233239   6.421   0.023  12.531  1.1977  0.8914  2.6332
 3942TIP3   OH233240   0.183   6.002  12.940  0.1577  0.6139  0.0987
 3942TIP3    H133241   0.102   5.978  12.896  0.8466 -1.5660 -0.0358
 3942TIP3    H233242   0.250   5.947  12.899  1.3253  0.7684  1.7378
 3943TIP3   OH233243   5.539   6.014  12.628  0.4915 -0.5260  0.0732
 3943TIP3    H133244   5.569   6.094  12.671 -2.4790  0.1802  0.9329
 3943TIP3    H233245   5.598   5.946  12.661  1.1925  0.8003  1.6471
 3944TIP3   OH233246   6.581   3.060  15.444  0.2672  0.1631  0.0832
 3944TIP3    H133247   6.487   3.073  15.460  0.6938  1.4866  1.6018
 3944TIP3    H233248   6.589   3.058  15.349 -1.5775 -2.0256 -0.0738
 3945TIP3   OH233249   1.416   7.235  11.668  0.2876 -0.2379 -0.6114
 3945TIP3    H133250   1.406   7.242  11.573  0.2734  0.2217 -0.5753
 3945TIP3    H233251   1.489   7.294  11.688 -0.0026  0.0033 -0.2769
 3946TIP3   OH233252   6.275   1.397  12.068 -0.6036 -0.4131 -0.8942
 3946TIP3    H133253   6.369   1.389  12.048 -0.3507  0.3301 -0.0639
 3946TIP3    H233254   6.240   1.309  12.056 -0.2736 -0.2108 -3.6121
 3947TIP3   OH233255   2.594   3.093  13.301  0.0934  0.2989  0.6594
 3947TIP3    H133256   2.520   3.033  13.298  0.4182 -0.0905  0.3306
 3947TIP3    H233257   2.647   3.063  13.374  1.1064 -0.8342 -0.5236
 3948TIP3   OH233258   5.545   7.163  11.977 -0.1519  0.1891  0.4540
 3948TIP3    H133259   5.636   7.132  11.985 -0.9133 -1.9784  1.0973
 3948TIP3    H233260   5.552   7.258  11.971  2.4030 -0.1188 -2.7344
 3949TIP3   OH233261   6.948   0.713  11.557 -0.4035 -0.2119  0.1965
 3949TIP3    H133262   6.877   0.657  11.527 -0.6393 -0.1574  0.6466
 3949TIP3    H233263   6.927   0.732  11.649 -0.1722  0.3701  0.1333
 3950TIP3   OH233264   5.529   2.522  12.636 -0.4274 -0.1227 -0.6246
 3950TIP3    H133265   5.438   2.528  12.664 -0.2103  0.5218 -0.0217
 3950TIP3    H233266   5.554   2.613  12.617 -0.4137 -0.4879 -2.4209
 3951TIP3   OH233267   5.169   2.647   1.358 -0.3179  0.2830  0.1679
 3951TIP3    H133268   5.201   2.688   1.277 -2.3379  1.9465  0.1739
 3951TIP3    H233269   5.224   2.569   1.368 -1.4609 -1.2032 -4.0063
 3952TIP3   OH233270   4.212   0.313  12.696 -0.9000  0.3695 -0.3839
 3952TIP3    H133271   4.182   0.241  12.640 -1.3399  1.6598 -1.8569
 3952TIP3    H233272   4.152   0.311  12.771  0.1455 -1.8240  0.4079
 3953TIP3   OH233273   3.644   7.218  11.107  0.2626 -0.2323  0.1986
 3953TIP3    H133274   3.640   7.185  11.017 -1.7833 -0.3043  0.3010
 3953TIP3    H233275   3.634   7.313  11.098 -0.0600 -0.2499  0.3419
 3954TIP3   OH233276   5.434   3.101   2.144  0.5513  0.6712  0.1293
 3954TIP3    H133277   5.418   3.058   2.060 -0.2441  0.4620  0.3829
 3954TIP3    H233278   5.409   3.036   2.209  3.0007  0.1132  0.5699
 3955TIP3   OH233279   6.739   2.279  12.630  0.4167 -0.3183 -0.5006
 3955TIP3    H133280   6.748   2.184  12.619  0.9762 -0.2953 -0.2900
 3955TIP3    H233281   6.646   2.294  12.642  0.7462 -1.3697  4.3877
 3956TIP3   OH233282   0.218   5.024  14.270 -0.0883  0.2961  0.0532
 3956TIP3    H133283   0.172   4.940  14.274  1.2139 -0.4411  0.1808
 3956TIP3    H233284   0.279   5.021  14.344  0.3524  1.1117 -0.2667
 3957TIP3   OH233285   6.505   0.776  14.159  0.2147  0.2885  0.0593
 3957TIP3    H133286   6.414   0.757  14.138 -0.7869  3.8871  0.6725
 3957TIP3    H233287   6.545   0.799  14.074  0.2252 -0.1431 -0.0503
 3958TIP3   OH233288   0.859   3.086  13.047  0.9296 -0.1848  0.2233
 3958TIP3    H133289   0.816   3.018  13.099  1.2947 -0.9354 -0.4488
 3958TIP3    H233290   0.813   3.166  13.071 -0.7100 -0.9385 -0.3161
 3959TIP3   OH233291   4.328   2.066  12.581  0.3739 -0.3827  0.7507
 3959TIP3    H133292   4.401   2.049  12.640 -0.3840 -0.6960  1.6224
 3959TIP3    H233293   4.255   2.017  12.619 -0.2082 -0.3346 -0.2821
 3960TIP3   OH233294   6.292   1.768  12.944  0.0411 -0.1844  0.5703
 3960TIP3    H133295   6.302   1.701  12.877  0.8231 -0.2184  0.7174
 3960TIP3    H233296   6.238   1.727  13.011 -1.9081  0.3085 -0.6586
 3961TIP3   OH233297   6.906   5.400  10.930 -1.0759 -0.1969  0.5890
 3961TIP3    H133298   6.989   5.360  10.906 -0.1137  1.6095  0.8702
 3961TIP3    H233299   6.852   5.391  10.851  0.0330  0.3283 -0.2402
 3962TIP3   OH233300   6.326   3.311   0.837 -0.1438  0.2539  1.2448
 3962TIP3    H133301   6.364   3.370   0.902 -0.5926  1.0090  0.8312
 3962TIP3    H233302   6.288   3.240   0.888 -0.5952  0.9022  1.8218
 3963TIP3   OH233303   5.546   5.736  14.968  0.2304 -0.0092  0.4615
 3963TIP3    H133304   5.468   5.684  14.988  0.2867  0.0897  0.9425
 3963TIP3    H233305   5.530   5.771  14.880  0.3298 -1.0865  0.0027
 3964TIP3   OH233306   1.095   7.113  12.393 -0.2644 -0.4630 -0.5955
 3964TIP3    H133307   1.014   7.113  12.343 -0.9038 -2.2391  0.4478
 3964TIP3    H233308   1.117   7.021  12.405  0.6928 -0.0297  1.1155
 3965TIP3   OH233309   1.044   4.601  12.899  0.2512 -0.1625 -0.6000
 3965TIP3    H133310   1.100   4.553  12.961  1.9009  2.0848 -0.3127
 3965TIP3    H233311   1.000   4.666  12.954  0.9514  1.1727 -1.6081
 3966TIP3   OH233312   0.191   6.385  11.562 -0.0605  0.6434  0.1679
 3966TIP3    H133313   0.218   6.477  11.556 -1.7476  1.2399  1.3432
 3966TIP3    H233314   0.267   6.336  11.531  0.9145  2.4285 -0.3452
 3967TIP3   OH233315   5.159   2.174  12.806  0.0506 -0.0427 -0.3380
 3967TIP3    H133316   5.231   2.158  12.745  0.0009  0.5109 -0.5447
 3967TIP3    H233317   5.199   2.168  12.892  0.4032  0.5373 -0.4593
 3968TIP3   OH233318   4.846   1.876  11.800 -0.2092 -0.2265 -0.3561
 3968TIP3    H133319   4.854   1.966  11.831  0.4717  0.0111 -1.1913
 3968TIP3    H233320   4.820   1.884  11.708 -2.7149 -0.9265  0.2468
 3969TIP3   OH233321   6.622   0.841  10.699 -0.1404  0.3632  0.1594
 3969TIP3    H133322   6.586   0.756  10.725  1.3340 -0.2400  0.2394
 3969TIP3    H233323   6.545   0.897  10.687 -1.2066 -1.4211 -1.4851
 3970TIP3   OH233324   5.736   0.070  10.862  0.1716 -0.1712 -0.4443
 3970TIP3    H133325   5.780   0.022  10.791  1.7810  0.6148 -0.0044
 3970TIP3    H233326   5.648   0.087  10.828  0.5530 -0.7997 -1.8044
 3971TIP3   OH233327   4.642   6.790  12.444 -0.1155 -0.3512 -0.1182
 3971TIP3    H133328   4.625   6.856  12.511 -0.8354 -0.2992 -0.3436
 3971TIP3    H233329   4.569   6.728  12.451  0.9015 -1.4964  0.5298
 3972TIP3   OH233330   6.050   1.905  12.612  0.2001 -0.2646  0.2783
 3972TIP3    H133331   6.002   1.873  12.535 -1.9366  0.4673  1.2586
 3972TIP3    H233332   5.981   1.929  12.674  1.9018 -0.7698  2.3969
 3973TIP3   OH233333   4.675   2.439  12.105 -0.5928  0.1777 -0.0223
 3973TIP3    H133334   4.754   2.419  12.056  0.1266  1.3188  0.6495
 3973TIP3    H233335   4.644   2.354  12.138  0.2891 -0.2812 -0.3810
 3974TIP3   OH233336   5.790   2.008  13.822 -0.1064 -0.0324  0.2896
 3974TIP3    H133337   5.867   1.979  13.773  0.7963  2.8024 -0.0583
 3974TIP3    H233338   5.816   2.092  13.860 -2.6410  0.4172  1.1233
 3975TIP3   OH233339   6.484   2.758  11.274  0.4218 -0.4734  0.2532
 3975TIP3    H133340   6.565   2.807  11.293 -0.6548  0.5720  2.3112
 3975TIP3    H233341   6.484   2.686  11.337  0.8514 -1.8343 -1.2630
 3976TIP3   OH233342   1.458   2.431   0.038  0.2798 -0.1278 -0.2573
 3976TIP3    H133343   1.429   2.403  -0.049  1.0962  3.0807 -1.6650
 3976TIP3    H233344   1.403   2.507   0.058  3.0006  1.8528  0.0188
 3977TIP3   OH233345   2.829   3.499  13.368  0.3372  0.2439  0.6004
 3977TIP3    H133346   2.833   3.574  13.308  1.5239  1.8740  2.6268
 3977TIP3    H233347   2.906   3.447  13.345 -0.1345 -0.0457 -0.3816
 3978TIP3   OH233348   7.164   3.561  11.972  0.7741 -0.4662 -0.1027
 3978TIP3    H133349   7.174   3.476  11.929  1.4051 -0.7424  0.5683
 3978TIP3    H233350   7.095   3.547  12.037  2.1165 -0.9745  1.2428
 3979TIP3   OH233351   6.870   3.002  10.652  0.2381  0.4367  0.3286
 3979TIP3    H133352   6.952   2.993  10.603  0.0012 -0.8768  0.1374
 3979TIP3    H233353   6.828   3.079  10.615  1.3173  1.0221  0.3190
 3980TIP3   OH233354   5.064   3.236  14.377 -0.0270  0.3140  0.0962
 3980TIP3    H133355   5.120   3.312  14.360  1.2296 -0.6368 -0.0375
 3980TIP3    H233356   5.081   3.178  14.303 -0.7099 -0.2648  0.3959
 3981TIP3   OH233357   5.179   0.966  13.171 -0.9478 -0.1421 -0.5180
 3981TIP3    H133358   5.151   0.941  13.259  0.1786 -0.6810 -0.3118
 3981TIP3    H233359   5.209   0.884  13.131  0.4330  0.4570 -0.7061
 3982TIP3   OH233360   1.736   6.416  11.836 -0.0181 -0.2761  0.2679
 3982TIP3    H133361   1.655   6.399  11.790  0.3150 -1.1840  0.0232
 3982TIP3    H233362   1.709   6.462  11.916 -0.4091  3.5092 -1.9188
 3983TIP3   OH233363   1.353   3.829  12.556 -0.4926 -0.4200 -0.2504
 3983TIP3    H133364   1.301   3.909  12.548  0.0875  0.2659  2.2751
 3983TIP3    H233365   1.441   3.855  12.529 -0.4835 -0.4314 -0.2311
 3984TIP3   OH233366   1.641   2.060  12.736 -0.7775 -0.1278 -0.5504
 3984TIP3    H133367   1.585   2.133  12.710 -1.5385 -1.3530 -2.3960
 3984TIP3    H233368   1.713   2.060  12.672  0.5584  0.4992  0.9066
 3985TIP3   OH233369   2.062   0.053  12.244 -0.3022  0.2308 -0.2633
 3985TIP3    H133370   2.129   0.112  12.279  0.5838 -1.5062  1.0193
 3985TIP3    H233371   1.980   0.098  12.262  0.3706  1.1986  0.4740
 3986TIP3   OH233372   0.650   1.644  11.343 -0.0066 -0.8153 -0.5719
 3986TIP3    H133373   0.560   1.625  11.370 -0.5894  1.9248 -0.4524
 3986TIP3    H233374   0.704   1.602  11.411 -1.3163  0.6654  1.4618
 3987TIP3   OH233375   4.171   1.594  10.833  0.3033  0.3241  0.0574
 3987TIP3    H133376   4.136   1.524  10.887  0.6308  0.5239  0.5333
 3987TIP3    H233377   4.135   1.578  10.746  1.0885 -0.9615 -0.0488
 3988TIP3   OH233378   5.915   2.562  13.280 -0.1157 -0.1647  0.0911
 3988TIP3    H133379   5.905   2.656  13.266  0.2670 -0.2908 -1.1691
 3988TIP3    H233380   5.846   2.523  13.226  1.4360 -0.6873 -1.5900
 3989TIP3   OH233381   1.290   2.995  13.865  0.1184  0.0805 -0.3317
 3989TIP3    H133382   1.286   3.082  13.823  3.8537  0.1495 -0.7508
 3989TIP3    H233383   1.328   2.938  13.797  1.8345 -0.8603  1.3734
 3990TIP3   OH233384   6.350   2.052  13.087  0.1997 -0.1741  0.1678
 3990TIP3    H133385   6.266   2.010  13.069  0.6510 -0.3873 -1.5645
 3990TIP3    H233386   6.405   1.981  13.120  0.6232 -0.7554 -1.6933
 3991TIP3   OH233387   2.089   4.043  14.297  0.3821 -0.0574 -0.0082
 3991TIP3    H133388   2.116   4.112  14.237  0.8594  1.1732  1.5905
 3991TIP3    H233389   2.159   3.977  14.292  2.2172  1.6816  1.7875
 3992TIP3   OH233390   2.500   2.237  13.331  0.0011 -0.5228  0.3306
 3992TIP3    H133391   2.435   2.196  13.274 -1.1266  0.5315  0.8317
 3992TIP3    H233392   2.558   2.284  13.271 -0.6918 -0.0911 -0.0110
 3993TIP3   OH233393   4.061   6.009  14.038 -0.4380  0.1320 -0.3509
 3993TIP3    H133394   4.129   6.049  13.984  1.0014 -0.9808  0.5890
 3993TIP3    H233395   3.991   6.073  14.040  1.4184  2.2152  0.3285
 3994TIP3   OH233396   2.032   3.800  14.570 -0.9782  0.5569 -0.0256
 3994TIP3    H133397   2.093   3.766  14.505 -0.4326  1.5221 -0.0232
 3994TIP3    H233398   1.956   3.742  14.564 -1.0051  0.7339 -1.6381
 3995TIP3   OH233399   0.844   3.366  13.186 -0.3576 -0.7221  0.1524
 3995TIP3    H133400   0.863   3.309  13.261  0.2703 -0.5388  0.1318
 3995TIP3    H233401   0.750   3.381  13.191 -0.4229 -1.2465  0.5278
 3996TIP3   OH233402   1.964   1.237  12.233 -0.2845  0.0947  0.2417
 3996TIP3    H133403   2.060   1.234  12.240 -0.2722  0.1922  0.1259
 3996TIP3    H233404   1.935   1.265  12.320 -0.2633 -0.8685  0.5569
 3997TIP3   OH233405   4.946   5.552  12.232 -0.0795  0.0157  0.3318
 3997TIP3    H133406   4.981   5.469  12.198 -0.0622  0.4728 -0.8046
 3997TIP3    H233407   4.978   5.557  12.322  1.9808 -0.0403 -0.3750
 3998TIP3   OH233408   2.483   3.187  12.987 -0.1924 -0.1627 -0.0826
 3998TIP3    H133409   2.478   3.220  13.076 -1.7636 -3.4126  1.1126
 3998TIP3    H233410   2.546   3.115  12.991 -1.5364 -1.4514 -1.1801
 3999TIP3   OH233411   0.434   7.037  10.441  0.3341  0.6255  0.0262
 3999TIP3    H133412   0.474   7.115  10.479 -0.5472  0.0469  2.2539
 3999TIP3    H233413   0.506   6.975  10.433  0.4496  0.5554  1.3763
 4000TIP3   OH233414   3.692   2.791  12.992 -0.4239 -0.6247  0.3185
 4000TIP3    H133415   3.643   2.787  13.074 -1.6678  0.6462 -0.3455
 4000TIP3    H233416   3.759   2.723  13.000 -0.9123 -0.8973  2.1390
 4001TIP3   OH233417   5.114   0.295  14.829 -0.2478 -0.0443 -1.1534
 4001TIP3    H133418   5.118   0.286  14.734  1.2036 -1.3307 -0.9733
 4001TIP3    H233419   5.109   0.206  14.862 -1.1457  0.4049 -0.0125
 4002TIP3   OH233420   2.982   0.998  14.453 -0.0715  0.0330 -0.3946
 4002TIP3    H133421   2.915   1.043  14.505  0.3681  0.0123  0.2033
 4002TIP3    H233422   3.060   0.999  14.509  0.2773 -0.4142 -0.8658
 4003TIP3   OH233423   3.884   3.001  14.799  0.5294  0.2736  0.1061
 4003TIP3    H133424   3.886   3.035  14.889 -1.1343  1.3382 -0.2337
 4003TIP3    H233425   3.822   2.929  14.802 -1.7968  2.1827 -0.7751
 4004TIP3   OH233426   3.133   2.053  15.037  0.3959 -0.0238  0.5825
 4004TIP3    H133427   3.123   2.045  15.132  0.1746  1.2278  0.6617
 4004TIP3    H233428   3.222   2.022  15.020 -0.0049 -1.4980  1.0366
 4005TIP3   OH233429   0.134   4.343  10.697 -0.2059 -0.3081 -0.1800
 4005TIP3    H133430   0.158   4.431  10.669  1.1455 -0.3858  0.6575
 4005TIP3    H233431   0.122   4.351  10.792 -2.6296 -0.4837 -0.4528
 4006TIP3   OH233432   0.287   1.396  11.738 -0.0466 -0.3580 -0.3071
 4006TIP3    H133433   0.251   1.369  11.653  0.0147 -1.8582  0.1318
 4006TIP3    H233434   0.211   1.429  11.786 -0.1936 -0.1227 -0.6876
 4007TIP3   OH233435   2.608   0.932  12.688  0.6845 -0.6746  0.0737
 4007TIP3    H133436   2.670   0.939  12.760  1.8584 -0.1330 -0.9618
 4007TIP3    H233437   2.622   1.012  12.637 -2.1079  0.3001  0.7750
 4008TIP3   OH233438   7.291   2.143  10.649  0.5102  0.2603  0.4491
 4008TIP3    H133439   7.375   2.187  10.660  1.2511 -0.9161 -0.4056
 4008TIP3    H233440   7.234   2.210  10.612  1.3530  0.7767  0.0752
 4009TIP3   OH233441   4.408   0.362   0.076  0.1550 -0.2885 -0.2742
 4009TIP3    H133442   4.461   0.417   0.020  0.0855 -0.5245 -0.5740
 4009TIP3    H233443   4.382   0.419   0.149  1.3161 -0.3479  0.1840
 4010TIP3   OH233444   5.068   2.083  15.596 -0.3052  0.2040  0.2079
 4010TIP3    H133445   5.026   2.040  15.522  0.1880 -0.7293  0.4510
 4010TIP3    H233446   5.133   2.019  15.626  0.2908  1.0441  0.7205
 4011TIP3   OH233447   1.771   3.664  14.520 -0.1504 -0.1492 -0.1298
 4011TIP3    H133448   1.722   3.677  14.440 -1.1099 -2.6029  0.0164
 4011TIP3    H233449   1.706   3.672  14.590  0.3513  0.1975  0.3095
 4012TIP3   OH233450   2.998   2.128  14.708 -0.2304  0.3344 -0.3054
 4012TIP3    H133451   2.920   2.079  14.682  0.7789 -2.3719  1.5808
 4012TIP3    H233452   2.985   2.148  14.801  0.8893  0.6846 -0.2097
 4013TIP3   OH233453   3.590   3.199  15.509  0.4387  0.7012  0.6854
 4013TIP3    H133454   3.562   3.111  15.534  1.8513 -0.3594 -1.3214
 4013TIP3    H233455   3.546   3.215  15.426 -0.4457  2.2218  1.4431
 4014TIP3   OH233456   0.055   5.705  10.667  0.9169  0.3131 -0.3756
 4014TIP3    H133457  -0.026   5.715  10.718  0.4342  3.5803 -1.6836
 4014TIP3    H233458   0.102   5.787  10.681  1.9836  0.2082 -3.1113
 4015TIP3   OH233459   0.116   2.359  10.941  0.5190 -0.0076 -0.3346
 4015TIP3    H133460   0.122   2.279  10.889 -1.1594  0.0609 -0.6481
 4015TIP3    H233461   0.132   2.429  10.878  0.3543 -0.0165 -0.3864
 4016TIP3   OH233462   7.229   6.591  13.240  0.3211 -0.4434  0.1053
 4016TIP3    H133463   7.164   6.647  13.198  0.2392 -0.2038  0.5457
 4016TIP3    H233464   7.183   6.508  13.254 -0.0817 -0.1024  0.9159
 4017TIP3   OH233465   0.647   5.808  14.066  0.3240  0.1220 -0.1056
 4017TIP3    H133466   0.567   5.769  14.029  0.8830 -2.8247  1.5793
 4017TIP3    H233467   0.626   5.822  14.159  1.1730  0.9964 -0.0391
 4018TIP3   OH233468   1.578   3.701  13.148  0.0173 -0.1116  0.9002
 4018TIP3    H133469   1.564   3.702  13.243 -3.1506  0.8076  0.4651
 4018TIP3    H233470   1.576   3.794  13.123  1.5058 -0.2992 -0.0106
 4019TIP3   OH233471   0.529   6.361  12.003 -0.2398  0.1692  0.8427
 4019TIP3    H133472   0.455   6.348  12.063 -0.2577 -1.6787  0.4334
 4019TIP3    H233473   0.537   6.279  11.956  1.8523  0.4684  0.6158
 4020TIP3   OH233474   0.728   3.156  10.099 -0.1791 -0.4734 -0.5036
 4020TIP3    H133475   0.662   3.222  10.079 -1.8784 -1.8168  0.4710
 4020TIP3    H233476   0.709   3.129  10.189  1.3927 -1.2592 -0.3782
 4021TIP3   OH233477   0.571   1.770  14.562 -0.4420  0.1411  0.2137
 4021TIP3    H133478   0.541   1.694  14.512 -0.4480  0.7419 -0.7079
 4021TIP3    H233479   0.493   1.825  14.570  0.1710  1.2907 -1.4272
 4022TIP3   OH233480   1.014   4.109  13.568  0.5753 -0.4978  0.0841
 4022TIP3    H133481   0.974   4.078  13.649  1.0222 -1.1352  0.0717
 4022TIP3    H233482   1.010   4.034  13.509 -0.6445  0.2725 -0.8257
 4023TIP3   OH233483   2.475   5.104  13.448  0.1922  0.9878  0.4564
 4023TIP3    H133484   2.439   5.125  13.362 -0.4962 -0.8390  0.2941
 4023TIP3    H233485   2.569   5.116  13.437  0.0631  1.3229 -0.3835
 4024TIP3   OH233486   3.325   2.437  15.237 -0.2587 -0.2926 -0.3758
 4024TIP3    H133487   3.399   2.387  15.201  0.0623  1.3027 -1.9669
 4024TIP3    H233488   3.320   2.408  15.329  1.8718 -0.9567 -0.4332
 4025TIP3   OH233489   1.642   2.566   0.524  0.2812  0.0176 -0.4432
 4025TIP3    H133490   1.612   2.655   0.505  0.3234 -0.0429 -0.7958
 4025TIP3    H233491   1.581   2.510   0.477  1.1523 -0.0991 -1.4361
 4026TIP3   OH233492   2.231   4.863  13.633 -0.0139  0.0619 -0.0880
 4026TIP3    H133493   2.155   4.805  13.632 -0.3521  0.5134 -1.0482
 4026TIP3    H233494   2.204   4.939  13.581  0.9196  0.4453 -0.0207
 4027TIP3   OH233495   6.785   1.960  11.858  0.0899  0.5131 -0.3670
 4027TIP3    H133496   6.734   2.041  11.849 -1.1554 -0.2514 -0.1719
 4027TIP3    H233497   6.809   1.937  11.768 -1.1979  0.0500 -0.5974
 4028TIP3   OH233498   2.952   0.541   0.163 -0.2815  0.0139 -0.2292
 4028TIP3    H133499   2.966   0.635   0.150 -0.1565  0.0238 -0.0140
 4028TIP3    H233500   2.981   0.501   0.081 -0.8884  0.2154 -0.5507
 4029TIP3   OH233501   0.949   3.811  13.777 -0.6242  0.4692  0.3534
 4029TIP3    H133502   0.941   3.867  13.855 -1.8181 -0.5218  0.9609
 4029TIP3    H233503   0.860   3.808  13.741 -0.0732  0.9499 -1.0889
 4030TIP3   OH233504   3.204   1.611   1.599  0.1787 -0.1902 -0.2939
 4030TIP3    H133505   3.293   1.644   1.612 -0.7613  2.6776 -0.8772
 4030TIP3    H233506   3.207   1.567   1.514  0.2264  3.0380 -2.0476
 4031TIP3   OH233507   0.477   1.005  11.523  0.0420  0.1938  0.3301
 4031TIP3    H133508   0.448   0.959  11.602  0.0672  1.2057  0.9325
 4031TIP3    H233509   0.507   1.091  11.554  0.9479  0.2474 -0.6558
 4032TIP3   OH233510   0.186   2.610  13.597  0.1158 -0.7661  0.0946
 4032TIP3    H133511   0.170   2.698  13.563  0.7255 -1.1762 -1.2912
 4032TIP3    H233512   0.138   2.552  13.537 -1.5584 -1.2983  1.8766
 4033TIP3   OH233513   1.461   5.500  13.306  0.3499 -0.0198 -0.4297
 4033TIP3    H133514   1.528   5.435  13.326  0.9280  0.4334 -0.8497
 4033TIP3    H233515   1.385   5.449  13.277 -0.5135 -0.6640  2.8601
 4034TIP3   OH233516   1.932   2.839  12.568  0.3983  0.0609  1.0663
 4034TIP3    H133517   1.840   2.825  12.548 -0.0220  1.7287  1.7861
 4034TIP3    H233518   1.973   2.854  12.483 -0.0010 -0.5875  0.7535
 4035TIP3   OH233519   1.521   0.689  10.342  0.3621  0.5562  0.0532
 4035TIP3    H133520   1.589   0.647  10.289 -1.0192 -0.8650 -0.6559
 4035TIP3    H233521   1.497   0.768  10.293  0.7023  0.4548 -0.2782
 4036TIP3   OH233522   2.261   0.283  11.405 -0.3489  0.0366  0.7310
 4036TIP3    H133523   2.260   0.233  11.324  0.7376  0.0839  0.6801
 4036TIP3    H233524   2.185   0.341  11.399 -0.2195  0.1044 -0.2874
 4037TIP3   OH233525   2.407   1.743  11.488 -0.5397  0.9201 -0.1022
 4037TIP3    H133526   2.425   1.656  11.523  0.5049  0.1547 -2.4424
 4037TIP3    H233527   2.312   1.751  11.490 -0.5419  0.6611  2.2464
 4038TIP3   OH233528   6.869   6.196  11.295  0.1907 -0.2974 -0.1038
 4038TIP3    H133529   6.804   6.224  11.230  2.3251  3.3918 -0.7789
 4038TIP3    H233530   6.942   6.163  11.242  0.5427 -0.5080  0.5150
 4039TIP3   OH233531   0.162   3.137  12.652  0.0989 -0.0809  0.3938
 4039TIP3    H133532   0.215   3.072  12.605  0.7654  0.8850 -0.1988
 4039TIP3    H233533   0.072   3.114  12.629  0.2760 -1.4090  0.9875
 4040TIP3   OH233534   7.135   2.208  14.823 -0.5449  0.1734  0.4529
 4040TIP3    H133535   7.174   2.131  14.866 -1.8956 -0.8019 -0.0506
 4040TIP3    H233536   7.117   2.179  14.734  0.5357  1.6235 -0.2550
 4041TIP3   OH233537   1.116   3.119  12.112  0.0428  0.4588 -0.8066
 4041TIP3    H133538   1.100   3.034  12.152 -0.4744  1.2332  0.6638
 4041TIP3    H233539   1.126   3.179  12.185  0.3014  1.6957 -1.8281
 4042TIP3   OH233540   1.345   1.738  10.713 -0.5016 -0.9592  0.1704
 4042TIP3    H133541   1.277   1.792  10.673 -0.7330 -1.2442  0.1744
 4042TIP3    H233542   1.402   1.713  10.640  2.2421  3.0407  0.8272
 4043TIP3   OH233543   1.660   6.650  14.726 -0.3699 -0.0135 -0.0718
 4043TIP3    H133544   1.707   6.603  14.657  0.6350  1.8075 -0.6578
 4043TIP3    H233545   1.571   6.658  14.693 -0.5887 -1.5922  0.0868
 4044TIP3   OH233546   6.401   1.147  11.905  0.3311  0.1087 -0.1268
 4044TIP3    H133547   6.408   1.054  11.923  1.3479  0.1597 -0.2858
 4044TIP3    H233548   6.416   1.156  11.811 -1.5767  0.2387 -0.4516
 4045TIP3   OH233549   1.197   0.858  12.039  0.1943  0.2856 -0.5780
 4045TIP3    H133550   1.212   0.820  12.125 -0.2689 -0.0041 -0.6223
 4045TIP3    H233551   1.132   0.926  12.054 -0.3425 -0.1759 -0.7975
 4046TIP3   OH233552   3.944   0.961  12.605 -0.7066  0.0801  0.6690
 4046TIP3    H133553   4.034   0.975  12.575 -0.2917  0.1806  1.8994
 4046TIP3    H233554   3.895   0.938  12.526 -0.2228  2.9246 -0.5105
 4047TIP3   OH233555   6.568   0.605  13.661  0.1847 -0.5462 -0.1406
 4047TIP3    H133556   6.591   0.515  13.682  0.8423 -0.8268 -1.9462
 4047TIP3    H233557   6.531   0.600  13.573 -1.8525  0.6461  0.6043
 4048TIP3   OH233558   1.814   1.894  11.985  0.7518 -0.0592 -0.4951
 4048TIP3    H133559   1.800   1.903  12.080  0.8435  0.5754 -0.5366
 4048TIP3    H233560   1.863   1.973  11.961  0.9087 -0.3237 -1.0359
 4049TIP3   OH233561   1.172   1.369  12.436 -0.7483 -0.9208  0.6861
 4049TIP3    H133562   1.118   1.408  12.367  1.2295  1.8958  0.6145
 4049TIP3    H233563   1.119   1.377  12.515 -1.8113 -1.3383  0.0207
 4050TIP3   OH233564   0.870   0.549  13.629  0.2181  0.3749 -0.3509
 4050TIP3    H133565   0.836   0.533  13.541 -1.0953 -0.8690  0.3675
 4050TIP3    H233566   0.959   0.581  13.615  0.0932 -0.0259 -2.1211
 4051TIP3   OH233567   6.214   6.137  11.267  0.0686  0.1484 -0.0429
 4051TIP3    H133568   6.232   6.129  11.173  0.1433  1.7223 -0.1694
 4051TIP3    H233569   6.122   6.165  11.271 -0.5054 -1.7281  0.4188
 4052TIP3   OH233570   4.126   0.248  15.103 -0.2800  0.2286  0.7290
 4052TIP3    H133571   4.193   0.304  15.143  1.0420  0.2000 -1.3736
 4052TIP3    H233572   4.172   0.168  15.078 -1.5491 -0.6512  1.1257
 4053TIP3   OH233573   2.558   3.864  12.112  0.4977 -0.1907  0.1204
 4053TIP3    H133574   2.651   3.874  12.130  0.4438 -0.3487  0.4958
 4053TIP3    H233575   2.530   3.950  12.082  0.4028  0.3311  1.6460
 4054TIP3   OH233576   1.824   2.997  14.560 -0.0208 -0.7394 -0.5710
 4054TIP3    H133577   1.892   2.933  14.538  0.8134  0.5159 -1.7103
 4054TIP3    H233578   1.851   3.032  14.645  1.2331  0.3400 -1.3901
 4055TIP3   OH233579   0.628   0.678  11.402 -0.3901  0.1785  0.6147
 4055TIP3    H133580   0.718   0.679  11.368 -0.1993  1.1652  1.1335
 4055TIP3    H233581   0.612   0.586  11.423  0.3240 -0.0824  0.0509
 4056TIP3   OH233582   1.681   2.830  13.008  0.7859  1.0194  0.2470
 4056TIP3    H133583   1.710   2.831  12.917 -0.0150 -1.1880 -0.0584
 4056TIP3    H233584   1.700   2.918  13.040  2.4032  1.3913 -1.6301
 4057TIP3   OH233585   1.624   1.396  11.584 -0.1292  0.1175 -0.3703
 4057TIP3    H133586   1.603   1.330  11.650  2.2043  0.2227  0.5212
 4057TIP3    H233587   1.651   1.345  11.508 -0.2643  0.0330 -0.3629
 4058TIP3   OH233588   2.343   3.613  13.176 -0.4754 -0.0692 -0.1759
 4058TIP3    H133589   2.304   3.691  13.136 -0.2366 -0.6108 -1.4917
 4058TIP3    H233590   2.372   3.642  13.262 -1.2103  1.0662 -0.2999
 4059TIP3   OH233591   0.308   3.451  12.349 -0.1532 -0.6901  0.2011
 4059TIP3    H133592   0.373   3.402  12.400 -0.5633 -1.5985 -0.1435
 4059TIP3    H233593   0.254   3.495  12.415  0.4445 -0.3908  0.5030
 4060TIP3   OH233594   1.838   1.938   0.669  0.2009 -0.3104 -0.6580
 4060TIP3    H133595   1.876   2.024   0.688 -0.1475 -0.5263  1.0960
 4060TIP3    H233596   1.744   1.953   0.664  0.0340 -0.7504  0.7591
 4061TIP3   OH233597   1.666   7.032  10.676  0.4846  0.3148 -0.0888
 4061TIP3    H133598   1.619   7.070  10.751  0.6548 -0.4328  0.4049
 4061TIP3    H233599   1.664   7.100  10.610 -0.3544  0.7032  0.3207
 4062TIP3   OH233600   5.988   3.390  15.575  0.1201 -0.2905 -0.1201
 4062TIP3    H133601   6.053   3.412  15.642  0.1498  1.5713 -0.7467
 4062TIP3    H233602   6.029   3.319  15.525  0.2301 -1.4917  1.6162
 4063TIP3   OH233603   4.322   1.124  11.650  0.1194  0.4486 -0.3279
 4063TIP3    H133604   4.359   1.111  11.738  1.0568  0.3076 -0.7391
 4063TIP3    H233605   4.330   1.038  11.608  0.3387  0.6977 -0.7950
 4064TIP3   OH233606   2.285   1.899  14.096  0.4293 -0.5531  0.1253
 4064TIP3    H133607   2.339   1.965  14.051  0.3456 -0.5924 -0.0349
 4064TIP3    H233608   2.277   1.932  14.185  0.8434 -0.6204  0.1889
 4065TIP3   OH233609   1.676   2.286  11.696 -0.5402  0.3035 -0.2179
 4065TIP3    H133610   1.640   2.201  11.673 -0.3607  0.5383 -1.3959
 4065TIP3    H233611   1.760   2.267  11.737 -0.2155 -0.0647 -1.0451
 4066TIP3   OH233612   6.912   6.487  13.844 -0.1426 -0.8567 -0.1695
 4066TIP3    H133613   6.938   6.568  13.799 -1.0095  0.1019  0.9976
 4066TIP3    H233614   6.869   6.518  13.924 -1.8921 -2.4442 -0.4702
 4067TIP3   OH233615   1.893   6.931  10.794  0.1819 -0.0385 -0.1784
 4067TIP3    H133616   1.807   6.956  10.761  0.3841  2.7876  1.2955
 4067TIP3    H233617   1.955   6.963  10.728  0.1772 -1.9592 -1.1765
 4068TIP3   OH233618   3.022   1.111  10.366  0.6598 -0.4062 -0.1491
 4068TIP3    H133619   3.016   1.069  10.280  1.2677 -0.7566 -0.0195
 4068TIP3    H233620   3.029   1.038  10.428 -0.1441 -0.1685  0.2294
 4069TIP3   OH233621   2.034   2.947  11.694  0.0078 -0.2679 -0.3300
 4069TIP3    H133622   2.058   2.857  11.672 -0.2477 -0.4900  0.2927
 4069TIP3    H233623   1.948   2.939  11.735 -0.3222  0.3319 -0.9035
 4070TIP3   OH233624   7.176   2.433  11.600 -0.1625  0.3376  0.3108
 4070TIP3    H133625   7.188   2.518  11.558  1.5609 -0.0255  0.0044
 4070TIP3    H233626   7.147   2.375  11.529  0.3373  0.2874  0.1433
 4071TIP3   OH233627   1.859   2.009  14.576  0.6368 -0.3846 -0.5750
 4071TIP3    H133628   1.787   1.993  14.637  0.4866 -1.2487 -0.9797
 4071TIP3    H233629   1.937   1.982  14.624  0.4078 -2.1770 -1.1764
 4072TIP3   OH233630   1.038   6.146  12.400  0.8750  0.8568  0.3081
 4072TIP3    H133631   1.053   6.119  12.309  0.2912  1.7696 -0.0670
 4072TIP3    H233632   0.985   6.075  12.437 -0.5574  1.4140 -0.6415
 4073TIP3   OH233633   6.920   4.113  10.381 -0.5349 -1.0605 -0.1990
 4073TIP3    H133634   6.942   4.034  10.429 -0.8140  0.3351  2.3117
 4073TIP3    H233635   6.830   4.100  10.353 -0.4613 -1.7646 -0.1124
 4074TIP3   OH233636   0.473   3.740  11.944 -0.5201 -0.3160  0.5870
 4074TIP3    H133637   0.435   3.679  12.007  0.4416 -2.0660 -0.5105
 4074TIP3    H233638   0.567   3.722  11.946 -0.3135  0.6203 -0.2775
 4075TIP3   OH233639   2.029   3.199  12.583 -1.0521  0.2690  0.0469
 4075TIP3    H133640   2.061   3.288  12.597 -1.4151  0.3179  0.6068
 4075TIP3    H233641   2.092   3.159  12.523  1.1016 -0.2568  2.6114
 4076TIP3   OH233642   1.485   4.309  11.477  0.4259  0.2963  0.0647
 4076TIP3    H133643   1.516   4.238  11.421  0.2110  0.9703 -0.9269
 4076TIP3    H233644   1.484   4.272  11.565  0.5260 -0.8589 -0.4152
 4077TIP3   OH233645   3.846   1.105  13.064 -0.2127 -0.1307 -0.6004
 4077TIP3    H133646   3.835   1.200  13.078 -1.4603 -0.1708 -1.2731
 4077TIP3    H233647   3.774   1.065  13.114 -1.2425 -0.5740 -2.4062
 4078TIP3   OH233648   1.579   1.222  13.436 -0.2015 -0.5316  0.1312
 4078TIP3    H133649   1.583   1.315  13.456  2.2842 -0.5907  0.0738
 4078TIP3    H233650   1.534   1.183  13.511 -0.6469  0.6147  0.4677
 4079TIP3   OH233651   1.215   5.985  14.882  0.1652  0.5129 -0.2215
 4079TIP3    H133652   1.270   6.017  14.811 -1.3264  0.1735 -1.5648
 4079TIP3    H233653   1.146   6.051  14.891  0.2271  0.4492  0.7733
 4080TIP3   OH233654   0.972   1.790  13.756  0.0452 -0.4972 -0.5962
 4080TIP3    H133655   0.917   1.815  13.682 -0.5872  1.2656  0.4349
 4080TIP3    H233656   0.921   1.725  13.803 -0.8412  0.5691 -0.0659
 4081TIP3   OH233657   1.077   0.949   9.897 -0.0873  0.1634  0.1379
 4081TIP3    H133658   1.020   1.024   9.881 -0.2523  0.0965  0.3974
 4081TIP3    H233659   1.018   0.882   9.932 -0.1406 -0.4827 -1.1930
 4082TIP3   OH233660   0.661   2.761  12.107 -0.0715  0.1091 -0.1822
 4082TIP3    H133661   0.707   2.742  12.189  0.5301 -0.1986 -0.5889
 4082TIP3    H233662   0.704   2.705  12.042 -0.3947  0.5254 -0.7535
 4083TIP3   OH233663   6.882   0.801  12.534 -0.0865  0.1291 -0.0546
 4083TIP3    H133664   6.801   0.841  12.502  1.1199  1.6357 -1.3152
 4083TIP3    H233665   6.904   0.850  12.613 -0.4817 -0.3844  0.3754
 4084TIP3   OH233666   0.867   6.310  14.157  0.1028  0.4358 -0.0842
 4084TIP3    H133667   0.798   6.375  14.171 -0.4574 -0.3435  0.8975
 4084TIP3    H233668   0.819   6.227  14.145  0.8254  0.1043 -0.6909
 4085TIP3   OH233669   1.024   0.979  13.135  0.0726  0.0634  0.1770
 4085TIP3    H133670   1.081   1.052  13.111  1.5110  0.2726  3.9533
 4085TIP3    H233671   0.936   1.015  13.133  0.5787  1.2902 -0.1691
 4086TIP3   OH233672   6.592   3.463  12.590 -0.6723  0.2600 -0.4972
 4086TIP3    H133673   6.585   3.537  12.530 -1.7149 -0.1776 -0.9221
 4086TIP3    H233674   6.505   3.457  12.631 -0.3871 -0.3035  0.0418
 4087TIP3   OH233675   1.242   6.844  13.425 -0.2478  0.0768 -0.3234
 4087TIP3    H133676   1.155   6.859  13.462  0.0074 -0.5378  0.5457
 4087TIP3    H233677   1.249   6.908  13.354 -0.3165  2.0500  1.4009
 4088TIP3   OH233678   0.064   1.259  13.753  0.0825 -0.0597  0.1649
 4088TIP3    H133679  -0.017   1.276  13.706 -0.5519  0.6524  1.4792
 4088TIP3    H233680   0.114   1.340  13.744  0.3968 -0.2866 -0.1435
 4089TIP3   OH233681   2.414   2.716  11.835  0.2752 -0.6035 -0.2210
 4089TIP3    H133682   2.507   2.735  11.849  0.3435 -0.3043 -1.1000
 4089TIP3    H233683   2.410   2.620  11.828  0.3447 -0.7113  1.0870
 4090TIP3   OH233684   1.757   6.644  14.062  0.1188 -0.3795 -0.3900
 4090TIP3    H133685   1.754   6.722  14.006 -2.8232  0.3700  0.7096
 4090TIP3    H233686   1.806   6.580  14.010  2.2013  2.0238 -1.5056
 4091TIP3   OH233687   3.030   1.428  14.073 -0.1207 -0.5412 -0.4538
 4091TIP3    H133688   3.079   1.508  14.053 -1.6032  0.8028  1.2236
 4091TIP3    H233689   2.981   1.409  13.993  2.1080 -1.2019 -1.7192
 4092TIP3   OH233690   7.031   3.647  10.600 -0.0560  0.2137 -0.0768
 4092TIP3    H133691   7.061   3.557  10.614  0.5835  0.4258 -0.0412
 4092TIP3    H233692   6.936   3.642  10.603  0.0056 -0.2137  1.4871
 4093TIP3   OH233693   0.701   1.126  13.533  0.0764 -0.8167  0.5080
 4093TIP3    H133694   0.795   1.134  13.517 -0.0118 -2.7579 -1.2814
 4093TIP3    H233695   0.682   1.034  13.514 -2.4406 -0.1209 -0.5128
 4094TIP3   OH233696   1.207   0.256  15.623  0.1280 -0.8248  0.3671
 4094TIP3    H133697   1.135   0.316  15.602  0.8480 -0.6887 -1.8142
 4094TIP3    H233698   1.279   0.285  15.567  2.3592 -0.0946  3.4802
 4095TIP3   OH233699   1.601   3.046  10.588  0.8025  0.4623  0.4147
 4095TIP3    H133700   1.670   3.109  10.568  0.0650  1.2537  0.2807
 4095TIP3    H233701   1.533   3.065  10.523  0.6773 -0.6500  0.2148
 4096TIP3   OH233702   0.409   4.176  10.869 -0.3711 -0.4067  0.2570
 4096TIP3    H133703   0.447   4.252  10.913  0.0339 -0.4982  0.0653
 4096TIP3    H233704   0.405   4.202  10.776 -0.4883 -0.5161  0.2317
 4097TIP3   OH233705   6.745   2.907  12.717  0.2533  0.1563  0.4531
 4097TIP3    H133706   6.691   2.866  12.785 -0.0060 -0.8924 -0.3801
 4097TIP3    H233707   6.773   2.990  12.756  0.0441 -0.3982  1.8155
 4098TIP3   OH233708   0.198   1.373  11.126 -0.3741 -0.1508  0.1164
 4098TIP3    H133709   0.259   1.342  11.059 -0.0182  2.3747 -0.7685
 4098TIP3    H233710   0.242   1.354  11.209  1.4302  1.2456 -0.5023
 4099TIP3   OH233711   1.947   0.525  13.300  0.0868  0.0372  0.4850
 4099TIP3    H133712   2.007   0.578  13.248 -0.4808  2.0045  1.7929
 4099TIP3    H233713   1.870   0.515  13.244  1.1858 -1.6148 -0.7790
 4100TIP3   OH233714   0.889   6.355  11.679  0.1983  0.0576 -0.4929
 4100TIP3    H133715   0.890   6.367  11.774  0.2982 -0.5236 -0.4228
 4100TIP3    H233716   0.960   6.293  11.662 -1.5993 -2.0323 -0.6542
 4101TIP3   OH233717   4.903   2.771  13.390 -1.0000  0.2213  0.2788
 4101TIP3    H133718   4.944   2.691  13.360 -1.2778  0.1623  0.0651
 4101TIP3    H233719   4.886   2.821  13.311 -0.7633  0.5261  0.4165
 4102TIP3   OH233720   6.241   2.374  11.243  0.0599 -0.1676  0.0166
 4102TIP3    H133721   6.314   2.416  11.199 -0.6223  0.9999 -0.0100
 4102TIP3    H233722   6.187   2.339  11.172 -0.2045  0.3126 -0.0200
 4103TIP3   OH233723   1.984   5.319  13.218 -0.3607 -0.8736 -0.2835
 4103TIP3    H133724   2.078   5.309  13.231 -0.1352  2.7058  1.4956
 4103TIP3    H233725   1.944   5.277  13.294 -0.0031  0.7190  0.8066
 4104TIP3   OH233726   0.232   4.288  14.848  0.4431  0.1400 -0.4680
 4104TIP3    H133727   0.299   4.222  14.833  1.5445  1.4324 -1.2568
 4104TIP3    H233728   0.218   4.329  14.763  1.4961  2.5434  0.4808
 4105TIP3   OH233729   0.404   2.718  14.882  0.2938  0.2366  0.0644
 4105TIP3    H133730   0.491   2.691  14.850 -0.0709 -1.4815  0.4550
 4105TIP3    H233731   0.350   2.639  14.874 -0.0674 -0.0251  3.9615
 4106TIP3   OH233732   2.113   7.030  13.348 -0.0252  0.5103 -0.1164
 4106TIP3    H133733   2.103   7.112  13.396 -0.9323  1.1550 -1.3821
 4106TIP3    H233734   2.072   7.046  13.263  1.6098 -0.5870 -1.1534
 4107TIP3   OH233735   2.717   2.076  10.862 -0.1044 -0.1227 -0.3880
 4107TIP3    H133736   2.701   1.992  10.820  2.2684 -0.5573 -0.4930
 4107TIP3    H233737   2.633   2.100  10.899 -1.2540 -1.6783 -1.8960
 4108TIP3   OH233738   0.466   2.837  13.005 -0.0785  0.6587 -0.3521
 4108TIP3    H133739   0.498   2.871  12.922  1.7454 -3.3942 -1.4884
 4108TIP3    H233740   0.522   2.878  13.071 -0.8777  3.1304 -1.1618
 4109TIP3   OH233741   3.467   0.716  10.820 -0.1838  0.0255 -0.1323
 4109TIP3    H133742   3.552   0.747  10.789 -0.9807  0.6140 -1.8353
 4109TIP3    H233743   3.484   0.628  10.854  0.9195 -0.3027 -1.5011
 4110TIP3   OH233744   4.338   4.464  13.914  0.3050  0.2799  0.1637
 4110TIP3    H133745   4.418   4.435  13.958 -0.1001  0.3974  0.9893
 4110TIP3    H233746   4.359   4.552  13.881  0.1947  0.7246  1.2629
 4111TIP3   OH233747   2.586   3.487  13.819  0.8104  0.4417 -0.2066
 4111TIP3    H133748   2.646   3.472  13.746  0.6503  2.1826 -0.7123
 4111TIP3    H233749   2.518   3.420  13.808  2.0367 -0.8017 -0.2894
 4112TIP3   OH233750   7.180   2.883  13.713  0.0461  0.1368  0.2940
 4112TIP3    H133751   7.149   2.817  13.651 -0.0283  1.5856 -1.2248
 4112TIP3    H233752   7.166   2.843  13.799  0.2780 -1.9416 -0.6101
 4113TIP3   OH233753   5.591   2.834  11.752  0.3395 -0.0929 -0.2545
 4113TIP3    H133754   5.617   2.788  11.672  0.6911  0.6013 -0.5457
 4113TIP3    H233755   5.667   2.829  11.809 -0.0784 -0.9993  0.2239
 4114TIP3   OH233756   1.408   1.159  11.359 -0.2984  0.0753  0.2750
 4114TIP3    H133757   1.383   1.140  11.449 -1.6425  1.2321  0.1653
 4114TIP3    H233758   1.434   1.074  11.323 -0.8106 -0.5820  1.4190
 4115TIP3   OH233759   6.587   5.336  15.493  0.3679 -0.4316  0.2327
 4115TIP3    H133760   6.529   5.412  15.491  1.8026  0.6937  0.0973
 4115TIP3    H233761   6.650   5.352  15.422 -0.0824 -2.3789 -0.6522
 4116TIP3   OH233762   2.128   2.545  11.162  0.0032  0.0732  0.2282
 4116TIP3    H133763   2.105   2.508  11.077 -1.7624  2.9681 -0.6213
 4116TIP3    H233764   2.047   2.542  11.212  0.1696  1.5160  0.6060
 4117TIP3   OH233765   1.129   4.274  12.855  0.3483 -0.3072 -0.1949
 4117TIP3    H133766   1.196   4.281  12.788  0.9177 -1.7115  0.2185
 4117TIP3    H233767   1.155   4.337  12.923 -0.2184  1.1016 -1.2377
 4118TIP3   OH233768   1.230   7.303  14.002  0.1635 -0.0590  0.2307
 4118TIP3    H133769   1.171   7.365  13.960  0.4392  1.2680  1.7794
 4118TIP3    H233770   1.305   7.297  13.943 -1.4124 -1.6689 -1.6894
 4119TIP3   OH233771   2.068   5.176  12.395 -0.7249  0.4725 -0.1992
 4119TIP3    H133772   2.104   5.263  12.412 -1.0415  0.7053 -0.6820
 4119TIP3    H233773   1.995   5.168  12.456 -0.7347  0.5706 -0.1981
 4120TIP3   OH233774   1.316   6.279  10.502  0.0765 -0.0357 -0.0183
 4120TIP3    H133775   1.224   6.257  10.484  0.3313 -0.6529 -0.6022
 4120TIP3    H233776   1.316   6.309  10.593 -0.9764  1.5719 -0.5356
 4121TIP3   OH233777   0.957   4.870   0.546  0.1020  0.0453 -0.2613
 4121TIP3    H133778   0.966   4.964   0.563  0.7306 -0.1061  0.2577
 4121TIP3    H233779   0.950   4.863   0.451  1.3711  0.5079 -0.3908
 4122TIP3   OH233780   2.033   1.720  13.239  0.0356 -0.3620  0.4727
 4122TIP3    H133781   1.981   1.772  13.302  0.5475  1.6309 -0.7145
 4122TIP3    H233782   1.967   1.677  13.185 -0.5107  3.0551 -1.7647
 4123TIP3   OH233783   6.452   2.737  13.694 -0.1450  0.2729  0.0135
 4123TIP3    H133784   6.432   2.647  13.667  0.6556 -0.1150  0.7062
 4123TIP3    H233785   6.378   2.762  13.750  0.1474 -0.3354  0.6837
 4124TIP3   OH233786   1.263   4.466  13.012  0.3047 -0.0085 -0.0928
 4124TIP3    H133787   1.341   4.516  12.987 -0.6811  1.1759 -0.8480
 4124TIP3    H233788   1.278   4.443  13.104  2.3003 -1.2522 -0.6934
 4125TIP3   OH233789   6.585   1.825  14.417  0.0102  0.7397 -0.0947
 4125TIP3    H133790   6.599   1.732  14.434 -1.4995  0.3607 -0.8925
 4125TIP3    H233791   6.674   1.862  14.413  0.6263 -0.6986 -0.0281
 4126TIP3   OH233792   3.716   2.786   2.137 -0.2460  0.5191 -0.1155
 4126TIP3    H133793   3.800   2.831   2.126  0.2527 -0.2537  0.4708
 4126TIP3    H233794   3.739   2.693   2.139 -1.1227  0.3061 -0.0166
 4127TIP3   OH233795   6.964   3.802  12.945 -0.0912  0.7653  0.0822
 4127TIP3    H133796   7.017   3.811  12.865  0.3708  0.3386  0.3369
 4127TIP3    H233797   6.898   3.737  12.923  0.0933  0.5787  0.0693
 4128TIP3   OH233798   1.356   3.600  10.653 -0.2254  0.0549  0.7304
 4128TIP3    H133799   1.294   3.667  10.624 -1.2063 -0.1201  2.4012
 4128TIP3    H233800   1.341   3.592  10.747  2.5005  0.1961  1.2332
 4129TIP3   OH233801   5.775   3.352  12.829 -0.1430  0.0578 -0.0316
 4129TIP3    H133802   5.709   3.415  12.859 -0.0642  0.6541 -1.0666
 4129TIP3    H233803   5.724   3.281  12.789 -0.1881  0.2564 -0.3347
 4130TIP3   OH233804   0.620   5.472  11.316 -0.9242  0.6890 -0.3896
 4130TIP3    H133805   0.537   5.470  11.363 -1.2071 -1.8558 -0.8937
 4130TIP3    H233806   0.682   5.429  11.376 -0.1187  1.9816 -0.2810
 4131TIP3   OH233807   1.496   3.042  13.310  0.0005  0.1054 -0.0053
 4131TIP3    H133808   1.494   3.127  13.266  1.5116  2.1781  3.7494
 4131TIP3    H233809   1.586   3.012  13.301 -0.1057 -0.2840  0.2025
 4132TIP3   OH233810   5.834   2.268  11.910 -0.3541 -0.0814  0.6339
 4132TIP3    H133811   5.836   2.203  11.840  3.6342  0.6462 -0.0472
 4132TIP3    H233812   5.881   2.227  11.982  1.0486  1.5349  0.6530
 4133TIP3   OH233813   0.092   2.699  12.682  0.1629 -0.0084  0.0730
 4133TIP3    H133814   0.070   2.659  12.598 -0.9827 -0.7661  0.7145
 4133TIP3    H233815   0.184   2.722  12.675 -0.5248  2.2490 -2.3343
 4134TIP3   OH233816   2.025   1.791  12.925  0.1046  0.1354  0.0671
 4134TIP3    H133817   2.011   1.715  12.982  0.9292 -0.8360 -1.0043
 4134TIP3    H233818   1.941   1.837  12.925 -0.8437 -1.5604 -0.3983
 4135TIP3   OH233819   1.554   2.618  12.384  0.0553 -0.4951 -0.1827
 4135TIP3    H133820   1.601   2.535  12.397 -1.2703 -1.5037 -1.6383
 4135TIP3    H233821   1.553   2.630  12.289 -0.7223  0.6463 -0.0436
 4136TIP3   OH233822   2.134   2.698  12.887  0.1420  0.5679  0.1048
 4136TIP3    H133823   2.168   2.787  12.902  0.9846  0.0911  1.1164
 4136TIP3    H233824   2.209   2.641  12.902 -0.7215 -0.4007  0.8234
 4137TIP3   OH233825   2.483   6.477  13.142 -0.1766  0.3059  0.1197
 4137TIP3    H133826   2.465   6.455  13.233  2.1796 -0.6464  0.3900
 4137TIP3    H233827   2.478   6.572  13.138 -0.6508  0.3324  1.1385
 4138TIP3   OH233828   1.956   1.385  10.562  0.1732  0.2779 -0.1640
 4138TIP3    H133829   1.970   1.324  10.489  2.4201 -0.5154  0.9003
 4138TIP3    H233830   1.922   1.464  10.520  0.3965 -0.5375 -1.9494
 4139TIP3   OH233831   1.550   5.725  12.299  0.4233 -0.8368  0.1788
 4139TIP3    H133832   1.615   5.777  12.345  0.0476 -1.9266  2.0129
 4139TIP3    H233833   1.588   5.709  12.213  1.2540  1.0299  0.1877
 4140TIP3   OH233834   7.080   2.414  13.600 -0.1125  0.1420  0.0521
 4140TIP3    H133835   7.128   2.477  13.546 -0.9170  0.1063 -0.7132
 4140TIP3    H233836   7.124   2.330  13.584 -1.0541 -0.0840 -1.4564
 4141TIP3   OH233837   1.905   2.564  14.484 -0.9281 -0.1553 -0.3265
 4141TIP3    H133838   1.840   2.606  14.427 -1.7227 -0.7408  0.1413
 4141TIP3    H233839   1.875   2.474  14.493 -0.1197 -0.3965  0.0035
 4142TIP3   OH233840   0.953   7.286  12.803  0.5675 -0.9746 -0.1171
 4142TIP3    H133841   0.913   7.348  12.741  1.0987 -1.1094 -0.6043
 4142TIP3    H233842   0.884   7.222  12.820  0.0403 -0.2921  0.3263
 4143TIP3   OH233843   1.881   5.343  13.662  0.6286 -0.0443 -0.3351
 4143TIP3    H133844   1.884   5.264  13.716 -0.8205  0.5628  0.6619
 4143TIP3    H233845   1.910   5.413  13.720  1.6937  0.2040 -1.1550
 4144TIP3   OH233846   6.363   2.956  10.476  0.5087 -0.5532  0.6048
 4144TIP3    H133847   6.456   2.937  10.463  0.6670  1.0722 -0.7180
 4144TIP3    H233848   6.321   2.919  10.398  0.3913  1.1984 -0.1761
 4145TIP3   OH233849   2.908   2.974  15.670 -0.3739 -0.2806  0.4026
 4145TIP3    H133850   2.927   2.880  15.664  2.6852  0.4163 -2.6033
 4145TIP3    H233851   2.951   3.002  15.750  2.3109 -0.7272 -0.8398
 4146TIP3   OH233852   3.130   5.497  13.940  0.1029  0.0075  0.0158
 4146TIP3    H133853   3.204   5.522  13.884 -1.6270 -0.4147 -2.5154
 4146TIP3    H233854   3.052   5.522  13.890 -1.5307  1.9771  3.3426
 4147TIP3   OH233855   4.136   6.294  10.548 -0.1415  0.1484 -0.7288
 4147TIP3    H133856   4.086   6.253  10.478  0.1678 -1.8656  0.2129
 4147TIP3    H233857   4.136   6.387  10.525 -2.7851 -0.0453 -1.6727
 4148TIP3   OH233858   3.682   1.565  12.892  0.1805  0.5599  0.2869
 4148TIP3    H133859   3.593   1.599  12.903 -0.8320 -1.7975 -0.3560
 4148TIP3    H233860   3.693   1.556  12.798 -0.0266 -1.9433  0.4588
 4149TIP3   OH233861   0.957   1.069  13.452  0.6976 -0.4665 -0.2117
 4149TIP3    H133862   0.992   1.052  13.364  2.2994  2.3603 -0.1587
 4149TIP3    H233863   0.995   1.000  13.506 -0.4871 -2.3853 -1.7387
 4150TIP3   OH233864   3.519   0.375  10.552  0.1021  0.4759  0.1842
 4150TIP3    H133865   3.603   0.378  10.507  0.7450 -1.6876  1.1664
 4150TIP3    H233866   3.454   0.374  10.482  0.9523  0.8889 -0.6065
 4151TIP3   OH233867   4.634   1.890  12.428  0.3689 -0.3463  0.4149
 4151TIP3    H133868   4.556   1.887  12.373  0.4361 -1.3547  0.3635
 4151TIP3    H233869   4.688   1.960  12.390 -1.0089  1.1639  1.1533
 4152TIP3   OH233870   4.557   4.577  14.080  1.0370 -0.0820 -0.0282
 4152TIP3    H133871   4.552   4.518  14.156  1.6697 -1.1977 -0.8329
 4152TIP3    H233872   4.510   4.655  14.107 -1.3070 -1.6132  0.4480
 4153TIP3   OH233873   4.982   2.142  10.792 -0.3753  0.0834  0.3334
 4153TIP3    H133874   4.962   2.097  10.874  1.3373 -0.9894  0.1825
 4153TIP3    H233875   5.072   2.118  10.772 -0.4955  0.9865 -1.4541
 4154TIP3   OH233876   0.453   1.317  10.619  0.1817  0.1121 -0.8198
 4154TIP3    H133877   0.422   1.384  10.681  0.4539 -0.4245 -0.0899
 4154TIP3    H233878   0.373   1.281  10.581 -0.2228 -1.8720  1.6994
 4155TIP3   OH233879   3.409   7.047   0.067 -0.0367 -0.1530  0.5104
 4155TIP3    H133880   3.474   6.991   0.110  1.5517  0.8895 -0.4537
 4155TIP3    H233881   3.435   7.136   0.091  0.8219  0.4606 -2.4279
 4156TIP3   OH233882   4.584   0.854  15.447  0.1263 -0.2327 -0.3746
 4156TIP3    H133883   4.669   0.898  15.441  0.7589 -1.7035 -3.4068
 4156TIP3    H233884   4.598   0.771  15.402 -2.5701 -1.1081  0.3400
 4157TIP3   OH233885   2.479   3.218  12.705 -0.1064 -0.0037  0.6400
 4157TIP3    H133886   2.523   3.300  12.681 -0.4048 -0.1191 -0.3219
 4157TIP3    H233887   2.506   3.202  12.796 -1.6346  2.2360  1.5409
 4158TIP3   OH233888   0.481   1.110  10.209 -0.6689 -0.0095 -0.6755
 4158TIP3    H133889   0.525   1.169  10.270 -1.0423 -0.5996  0.1805
 4158TIP3    H233890   0.388   1.116  10.234 -1.0319  0.8702 -2.1511
 4159TIP3   OH233891   6.870   6.054  13.513 -0.0790  0.1583 -0.5011
 4159TIP3    H133892   6.934   5.987  13.537 -0.5644 -0.2876 -0.4495
 4159TIP3    H233893   6.897   6.083  13.425  0.6431  0.5202 -0.1606
 4160TIP3   OH233894   1.424   3.336  12.887  0.0133 -0.2605  0.4426
 4160TIP3    H133895   1.455   3.415  12.842  0.1554 -0.0492  0.9117
 4160TIP3    H233896   1.459   3.343  12.976 -0.7475 -0.3869  0.7591
 4161TIP3   OH233897   6.230   3.713  11.844  0.3081 -0.0167  0.6713
 4161TIP3    H133898   6.278   3.665  11.911  1.1047  1.6516  1.3231
 4161TIP3    H233899   6.298   3.747  11.785 -0.3243 -0.7041 -0.4837
 4162TIP3   OH233900   1.750   2.546  11.638 -0.2165 -0.0098 -0.1821
 4162TIP3    H133901   1.708   2.461  11.649 -0.1142  0.0958  1.1506
 4162TIP3    H233902   1.779   2.569  11.726 -0.2900  1.4319 -0.5328
 4163TIP3   OH233903   6.698   2.181  13.843  0.4182  0.0605 -0.2491
 4163TIP3    H133904   6.707   2.096  13.886 -2.5195  0.2991  0.9562
 4163TIP3    H233905   6.717   2.163  13.751  2.7621 -1.2640  0.4531
 4164TIP3   OH233906   1.709   4.482  14.969 -0.0562  0.4748  0.0672
 4164TIP3    H133907   1.724   4.512  15.058 -0.5260 -0.6049  0.5191
 4164TIP3    H233908   1.734   4.389  14.970 -0.1652  0.4222 -0.8996
 4165TIP3   OH233909   6.400   4.836  14.406 -0.2052 -0.2045 -0.1624
 4165TIP3    H133910   6.316   4.862  14.444 -0.4871  1.4254 -1.8083
 4165TIP3    H233911   6.460   4.906  14.431  0.5361 -1.0838  0.5421
 4166TIP3   OH233912   5.712   5.150  12.988  0.2522  0.1325 -0.0725
 4166TIP3    H133913   5.719   5.151  12.893  1.2647  0.5548 -0.0034
 4166TIP3    H233914   5.714   5.058  13.012 -0.2528  0.0180 -0.4783
 4167TIP3   OH233915   6.190   4.536  10.143 -0.6694  0.2927 -0.0497
 4167TIP3    H133916   6.248   4.462  10.128 -0.5704  0.2009  0.7590
 4167TIP3    H233917   6.106   4.510  10.106 -0.6938 -0.3128  0.4268
 4168TIP3   OH233918   3.550   2.513  13.078  0.3467  0.6434 -0.3078
 4168TIP3    H133919   3.499   2.542  13.003 -0.0346  0.1081 -0.2618
 4168TIP3    H233920   3.533   2.419  13.083 -0.9239  0.9428  1.4243
 4169TIP3   OH233921   7.114   3.199  13.247  0.7017 -0.1425 -0.1287
 4169TIP3    H133922   7.208   3.181  13.236  0.3339 -2.3039 -0.0096
 4169TIP3    H233923   7.094   3.168  13.335 -0.0292  0.8210  0.0541
 4170TIP3   OH233924   6.959   7.055  13.139  0.1629 -0.2845  0.6758
 4170TIP3    H133925   6.950   7.051  13.234  0.4068  1.4891  0.7861
 4170TIP3    H233926   6.899   7.123  13.111 -0.0102 -0.8891 -0.4677
 4171TIP3   OH233927   4.559   5.492  11.540 -0.5382  0.1362 -0.6834
 4171TIP3    H133928   4.539   5.415  11.486  2.4635 -0.8754 -0.4422
 4171TIP3    H233929   4.518   5.565  11.494 -0.3811 -1.1155 -2.8661
 4172TIP3   OH233930   2.318   4.218  15.912 -0.7281  0.8427 -0.0644
 4172TIP3    H133931   2.298   4.275  15.987 -1.3241 -0.6693  0.9494
 4172TIP3    H233932   2.354   4.277  15.846  1.7801  1.8840  2.1659
 4173TIP3   OH233933   2.147   6.070  12.913 -0.1888  0.1225  0.1410
 4173TIP3    H133934   2.164   6.008  12.985 -0.4436  0.0759  0.1594
 4173TIP3    H233935   2.234   6.100  12.887 -0.0351 -0.5403 -0.1292
 4174TIP3   OH233936   1.718   3.224  11.668 -0.2745 -0.0804  0.2613
 4174TIP3    H133937   1.722   3.166  11.744  1.8815 -0.6960 -0.2754
 4174TIP3    H233938   1.749   3.309  11.700  0.3344 -0.2599  0.1634
 4175TIP3   OH233939   3.595   6.310  12.929  0.2508  0.1132  0.0420
 4175TIP3    H133940   3.570   6.263  13.009 -0.1182 -1.5406 -1.0173
 4175TIP3    H233941   3.517   6.361  12.906  1.1719  2.5560  2.0642
 4176TIP3   OH233942   1.046   3.559  10.784  0.3191  0.4952 -0.2361
 4176TIP3    H133943   1.137   3.585  10.801 -0.9879  4.8050  0.9045
 4176TIP3    H233944   1.000   3.580  10.865 -2.1093  0.7573 -1.6464
 4177TIP3   OH233945   4.916   1.423  13.865  0.2852 -0.3299 -0.0874
 4177TIP3    H133946   4.950   1.476  13.793 -0.3001  1.5488  0.9946
 4177TIP3    H233947   4.874   1.349  13.822  3.2315 -1.2269 -1.5367
 4178TIP3   OH233948   4.429   0.874  12.152  0.1684 -0.6523  0.0260
 4178TIP3    H133949   4.402   0.821  12.226 -0.9673  1.7663  1.4105
 4178TIP3    H233950   4.520   0.898  12.171 -0.1431  0.0172  0.6798
 4179TIP3   OH233951   7.177   3.555  14.318 -0.7607 -0.2721  0.0519
 4179TIP3    H133952   7.086   3.528  14.309 -1.5090  1.9309  0.6922
 4179TIP3    H233953   7.206   3.515  14.399 -1.7541  0.5582  0.8308
 4180TIP3   OH233954   3.276   4.489  14.033  0.1935  0.0881  0.4709
 4180TIP3    H133955   3.214   4.512  14.101 -1.0645 -1.6414 -0.0584
 4180TIP3    H233956   3.300   4.398  14.052  3.7777  1.1745  1.5703
 4181TIP3   OH233957   1.302   5.880  12.188  0.0066  0.4748 -0.3742
 4181TIP3    H133958   1.384   5.890  12.139 -0.0860 -0.8421 -0.8061
 4181TIP3    H233959   1.321   5.811  12.252  0.0505  1.9854  1.2931
 4182TIP3   OH233960   3.935   2.508  12.238  0.0560  0.2878  0.0375
 4182TIP3    H133961   3.921   2.521  12.145  1.7766 -1.7323 -0.5442
 4182TIP3    H233962   3.933   2.413  12.250  0.3778  0.4889  1.9774
 4183TIP3   OH233963   3.128   5.026  12.632 -0.1029  0.0169  0.0617
 4183TIP3    H133964   3.146   5.119  12.649  2.2901 -0.0420 -1.9411
 4183TIP3    H233965   3.082   5.026  12.547  0.6480 -0.6844 -0.3440
 4184TIP3   OH233966   1.076   0.452  10.280 -0.7619 -0.5792 -0.3554
 4184TIP3    H133967   0.998   0.451  10.224 -0.5860  0.6693 -0.6494
 4184TIP3    H233968   1.145   0.412  10.227 -1.1275 -1.4161 -0.2065
 4185TIP3   OH233969   0.404   1.571  11.489 -0.5910  0.7651 -0.2630
 4185TIP3    H133970   0.366   1.573  11.577  0.4865  1.9480  0.2020
 4185TIP3    H233971   0.377   1.487  11.452 -2.4210  0.9678  0.5778
 4186TIP3   OH233972   6.588   4.038  14.530 -0.2599  0.1075 -0.0864
 4186TIP3    H133973   6.633   4.120  14.513 -0.9687  0.4077 -0.5304
 4186TIP3    H233974   6.619   4.012  14.617  2.1493 -0.6332 -1.1146
 4187TIP3   OH233975   3.201   4.921  13.148  0.7002 -0.1479 -0.2780
 4187TIP3    H133976   3.241   4.932  13.062  1.9544 -1.1874  0.1591
 4187TIP3    H233977   3.247   4.983  13.204  1.0657 -0.6787  0.0152
 4188TIP3   OH233978   0.424   6.965  13.774  0.0959 -0.7765  0.5926
 4188TIP3    H133979   0.485   6.899  13.741  0.6757  0.1108 -0.1494
 4188TIP3    H233980   0.428   6.956  13.869 -0.1001 -2.0373  0.4905
 4189TIP3   OH233981   6.744   5.010  13.593  0.9420 -0.2387  0.0615
 4189TIP3    H133982   6.738   4.942  13.525 -1.2147 -0.1109  0.0631
 4189TIP3    H233983   6.718   4.964  13.673  2.5212 -0.1477  0.6295
 4190TIP3   OH233984   0.207   2.866  14.373 -0.5424  0.4592 -0.8063
 4190TIP3    H133985   0.121   2.894  14.406  0.8797  1.2834  2.3278
 4190TIP3    H233986   0.258   2.846  14.451  1.3637 -2.4717 -2.6865
 4191TIP3   OH233987   3.302   1.267  15.316  0.0741  0.2650  0.1766
 4191TIP3    H133988   3.383   1.217  15.304 -0.1249 -0.4137  1.5314
 4191TIP3    H233989   3.281   1.256  15.409 -1.3823  0.7297 -0.0856
 4192TIP3   OH233990   3.356   1.477  15.906  0.3534 -0.3465  0.4556
 4192TIP3    H133991   3.263   1.490  15.888  0.0780 -2.0524  0.5735
 4192TIP3    H233992   3.366   1.502  15.998  0.1401  0.4454  0.2678
 4193TIP3   OH233993   1.923   1.241  11.496  0.1614 -0.3230  0.2352
 4193TIP3    H133994   1.848   1.210  11.445 -0.5943  0.4793  0.8429
 4193TIP3    H233995   1.922   1.188  11.575  2.0091 -2.3561 -1.0450
 4194TIP3   OH233996   3.482   1.502  14.701  0.3597  0.5928 -0.3118
 4194TIP3    H133997   3.475   1.480  14.794  2.8701  0.1592 -0.2082
 4194TIP3    H233998   3.393   1.530  14.677 -0.8225 -1.2193  1.6954
 4195TIP3   OH233999   2.017   4.630  10.630 -0.2879 -0.4170 -0.1159
 4195TIP3    H134000   2.006   4.600  10.539  1.3520  0.7065 -0.6967
 4195TIP3    H234001   1.967   4.567  10.682 -0.6915 -1.4623 -1.7409
 4196TIP3   OH234002   0.744   3.989  13.245  0.3708 -0.3161 -0.0458
 4196TIP3    H134003   0.712   3.995  13.335 -0.6669 -1.7919 -0.3193
 4196TIP3    H234004   0.709   3.907  13.212 -0.7761  1.1040 -2.4070
 4197TIP3   OH234005   3.979   1.966  11.935  0.7954 -0.3469 -0.8402
 4197TIP3    H134006   4.068   1.944  11.963  0.3267  1.1468  2.0775
 4197TIP3    H234007   3.937   1.882  11.919  2.4770 -1.0988 -1.4179
 4198TIP3   OH234008   5.550   4.240  13.940 -0.6696  0.5970  0.5892
 4198TIP3    H134009   5.565   4.218  14.032 -0.3276  0.9970  0.6318
 4198TIP3    H234010   5.509   4.162  13.903  0.3767 -0.0584  0.7797
 4199TIP3   OH234011   6.302   0.143  11.558  0.8652 -0.1491  0.0160
 4199TIP3    H134012   6.291   0.170  11.467  2.2035  1.3501  0.2707
 4199TIP3    H234013   6.397   0.149  11.573  0.8970 -2.5276  0.8555
 4200TIP3   OH234014   4.065   4.341   9.852  0.3590 -0.5387  0.3640
 4200TIP3    H134015   4.006   4.401   9.806  0.4047 -0.9520 -0.2420
 4200TIP3    H234016   4.105   4.394   9.920  0.4402  0.1341 -0.2044
 4201TIP3   OH234017   4.553   5.227   0.956 -0.0786 -0.1520  0.7977
 4201TIP3    H134018   4.623   5.170   0.925  0.0020  0.3914 -0.0286
 4201TIP3    H234019   4.477   5.169   0.966 -1.0326  0.1867 -3.5709
 4202TIP3   OH234020   2.375   0.135  14.473 -0.0217 -0.0174  0.6941
 4202TIP3    H134021   2.417   0.075  14.535  3.6280  2.0552  0.4089
 4202TIP3    H234022   2.408   0.108  14.387 -1.4031  0.0163  0.1371
 4203TIP3   OH234023   2.837   1.458  13.506  0.3834  0.4409 -0.5884
 4203TIP3    H134024   2.743   1.473  13.491 -0.0186  0.3501  1.6247
 4203TIP3    H234025   2.864   1.532  13.561  1.1180 -0.6290  0.5065
 4204TIP3   OH234026   7.183   4.320   9.955 -0.3513 -0.2051  0.2067
 4204TIP3    H134027   7.157   4.366  10.035  0.9079 -1.6008  1.4615
 4204TIP3    H234028   7.269   4.356   9.933 -0.1566 -0.6699  0.1855
 4205TIP3   OH234029   1.834   1.635  14.117  0.1096 -0.2312  0.2341
 4205TIP3    H134030   1.856   1.728  14.122 -2.2174  0.3286  1.0737
 4205TIP3    H234031   1.851   1.602  14.205 -1.6830  0.0674  0.7156
 4206TIP3   OH234032   2.963   2.710  13.754  0.4396  0.5640  0.2195
 4206TIP3    H134033   2.925   2.627  13.726  0.4968  1.0013 -1.1906
 4206TIP3    H234034   2.966   2.705  13.850 -2.0230  0.0150  0.2847
 4207TIP3   OH234035   5.162   6.091  13.398  0.1436  0.1023  0.3298
 4207TIP3    H134036   5.096   6.062  13.461  2.0442 -2.9130  1.0679
 4207TIP3    H234037   5.218   6.150  13.447 -0.3767  0.4980  0.4602
 4208TIP3   OH234038   5.046   3.328  12.865  0.5669  0.6700  0.0086
 4208TIP3    H134039   5.139   3.330  12.842  0.6018  1.1785  0.1936
 4208TIP3    H234040   5.027   3.235  12.879  0.5334  0.3261 -2.1214
 4209TIP3   OH234041   4.360   5.533  12.043 -0.1344  0.4248  0.0525
 4209TIP3    H134042   4.413   5.598  11.995 -1.9769  0.9215 -1.3462
 4209TIP3    H234043   4.270   5.565  12.036 -0.9316 -1.7011  0.3356
 4210TIP3   OH234044   3.878   1.524  13.093 -0.4878  0.3322  0.0376
 4210TIP3    H134045   3.807   1.552  13.036 -0.3213  0.2651 -0.2065
 4210TIP3    H234046   3.958   1.542  13.043 -0.3783 -0.5026 -0.0980
 4211TIP3   OH234047   4.187   5.793  11.651 -0.1121  0.3012 -0.6063
 4211TIP3    H134048   4.240   5.779  11.729 -0.4767 -0.9240 -0.5733
 4211TIP3    H234049   4.100   5.759  11.674  0.0300 -0.9847 -1.8582
 4212TIP3   OH234050   1.981   2.626  13.436  0.1655 -0.1606  0.0393
 4212TIP3    H134051   2.054   2.566  13.451 -0.1359 -0.6783 -0.5448
 4212TIP3    H234052   2.018   2.696  13.382 -0.0746 -1.0675 -1.3169
 4213TIP3   OH234053   0.643   3.287  13.745  0.1964 -0.2340 -0.5623
 4213TIP3    H134054   0.594   3.253  13.820  1.2383 -0.0266  0.2344
 4213TIP3    H234055   0.680   3.209  13.704 -0.0217 -0.3160 -0.6043
 4214TIP3   OH234056   4.415   0.420  12.358  0.2187  0.3680  0.0166
 4214TIP3    H134057   4.373   0.506  12.348  1.3571  1.1119  1.5832
 4214TIP3    H234058   4.439   0.395  12.268 -0.2012  1.6315 -0.4579
 4215TIP3   OH234059   3.524   2.332  15.108  0.3536  0.0214  0.1879
 4215TIP3    H134060   3.556   2.266  15.046  0.9321  0.4084  0.0645
 4215TIP3    H234061   3.595   2.397  15.111 -0.2751  0.7111  0.1812
 4216TIP3   OH234062   2.431   6.471  11.751 -0.2721 -0.4650  0.0051
 4216TIP3    H134063   2.438   6.511  11.665 -0.5234 -1.0973 -0.3120
 4216TIP3    H234064   2.412   6.544  11.810 -1.7510 -0.2483 -0.7141
 4217TIP3   OH234065   7.188   5.446  12.030  0.0995  0.0682 -0.1608
 4217TIP3    H134066   7.199   5.468  11.938  1.4451  3.6239  0.7563
 4217TIP3    H234067   7.213   5.526  12.077 -2.6011 -0.9193  3.2083
 4218TIP3   OH234068   2.001   5.485  11.175 -0.6138  0.0031  0.6837
 4218TIP3    H134069   2.091   5.519  11.171 -0.9499  0.5930 -3.0193
 4218TIP3    H234070   1.993   5.427  11.099 -3.7658  0.9861  0.1862
 4219TIP3   OH234071   3.177   2.578  11.040  0.0721 -0.0969 -0.3167
 4219TIP3    H134072   3.191   2.490  11.076  2.2039  0.4388  0.2097
 4219TIP3    H234073   3.117   2.619  11.102  2.4983  0.2835  1.8698
 4220TIP3   OH234074   5.374   1.181  15.916  0.2287  0.7081 -0.2461
 4220TIP3    H134075   5.459   1.200  15.956  0.8408  0.9589 -1.6192
 4220TIP3    H234076   5.376   1.230  15.833 -0.7363 -0.2913 -0.8675
 4221TIP3   OH234077   6.991   4.306  10.767  0.3906  0.0968  0.6418
 4221TIP3    H134078   6.958   4.216  10.763  1.5588 -0.3522  1.0286
 4221TIP3    H234079   7.047   4.315  10.690 -0.8175  0.9543 -0.1695
 4222TIP3   OH234080   2.702   2.829  12.627 -0.3859 -0.6186  0.7240
 4222TIP3    H134081   2.775   2.801  12.572  0.6440  1.0654  1.1977
 4222TIP3    H234082   2.743   2.871  12.703 -1.8256  0.7940  0.7623
 4223TIP3   OH234083   0.837   2.683  12.790 -0.3516  0.0969 -0.1428
 4223TIP3    H134084   0.897   2.753  12.764  0.0082 -0.2716 -0.3031
 4223TIP3    H234085   0.836   2.687  12.886 -3.8479  3.3035 -0.1738
 4224TIP3   OH234086   3.989   3.718  10.628 -0.1338  0.5467  0.0560
 4224TIP3    H134087   4.025   3.658  10.562 -0.2974 -0.3958  0.8078
 4224TIP3    H234088   3.897   3.727  10.603 -0.1404  0.3781  0.0144
 4225TIP3   OH234089   4.719   4.828  15.877 -0.4520 -0.0457  0.1139
 4225TIP3    H134090   4.792   4.781  15.837 -1.0551 -1.0464  0.1812
 4225TIP3    H234091   4.760   4.881  15.946  0.1316 -1.1066  0.5982
 4226TIP3   OH234092   0.681   6.806  13.816  0.5048 -0.4452  0.0127
 4226TIP3    H134093   0.661   6.713  13.814 -0.8159 -0.2304  1.6824
 4226TIP3    H234094   0.749   6.815  13.883  0.0329 -0.1274  0.4581
 4227TIP3   OH234095   2.302   3.738  15.607 -0.1172  0.2538 -0.3572
 4227TIP3    H134096   2.213   3.709  15.625 -0.4216  1.2593 -0.2239
 4227TIP3    H234097   2.314   3.815  15.663  1.3986 -0.8248  0.8493
 4228TIP3   OH234098   4.413   1.990  14.272 -0.3120  0.4889  0.1686
 4228TIP3    H134099   4.487   2.026  14.319  1.4528 -2.5156 -0.1731
 4228TIP3    H234100   4.426   2.017  14.181 -0.9743  2.0141  0.5213
 4229TIP3   OH234101   3.949   5.172  14.584  0.2666 -0.1443 -0.3093
 4229TIP3    H134102   3.917   5.248  14.535  0.8519 -0.0790 -0.5993
 4229TIP3    H234103   4.041   5.192  14.602  0.3864 -0.7170 -0.2638
 4230TIP3   OH234104   4.851   4.969  12.371  0.1604 -0.5937  0.2325
 4230TIP3    H134105   4.821   4.966  12.281  0.9918  0.3602 -0.0843
 4230TIP3    H234106   4.776   5.003  12.420  0.0732 -0.0716 -0.2602
 4231TIP3   OH234107   2.450   4.301  10.180  0.3848 -0.5538  0.0773
 4231TIP3    H134108   2.387   4.371  10.199 -1.0771 -1.8402  0.0410
 4231TIP3    H234109   2.489   4.327  10.096 -1.2564 -0.5397 -0.7001
 4232TIP3   OH234110   1.998   5.764  13.343 -0.1232 -0.2020  0.1548
 4232TIP3    H134111   1.907   5.740  13.363  0.1049 -1.6831 -0.5537
 4232TIP3    H234112   1.991   5.828  13.272 -0.5636 -1.6769 -1.1634
 4233TIP3   OH234113   4.065   6.913  14.340 -0.3522 -0.4393  0.4205
 4233TIP3    H134114   4.036   6.997  14.375 -0.4239 -0.2022 -0.2022
 4233TIP3    H234115   4.049   6.851  14.411 -1.5096 -0.1472  0.4274
 4234TIP3   OH234116   5.476   5.583  14.066 -0.4823  0.7587 -0.2372
 4234TIP3    H134117   5.504   5.654  14.124 -0.2923 -0.3564  1.0620
 4234TIP3    H234118   5.390   5.556  14.100 -0.1987 -0.1549 -0.2247
 4235TIP3   OH234119   4.798   1.874  13.987 -0.7272  0.5448 -0.3796
 4235TIP3    H134120   4.737   1.944  13.967 -1.3168 -0.2849 -1.5506
 4235TIP3    H234121   4.835   1.850  13.902  1.5660  1.3330  0.3590
 4236TIP3   OH234122   3.171   0.089  12.583 -0.3480  0.2894 -0.2712
 4236TIP3    H134123   3.184   0.008  12.632  1.7519 -0.6065 -2.2011
 4236TIP3    H234124   3.239   0.148  12.614  1.7335 -0.6751 -2.7841
 4237TIP3   OH234125   1.272   1.400  13.333  0.1111  0.0535  0.8482
 4237TIP3    H134126   1.182   1.386  13.362  0.0838  0.7281  1.1005
 4237TIP3    H234127   1.308   1.462  13.397  0.7883 -0.3089  0.8154
 4238TIP3   OH234128   0.710   6.915  10.441 -0.3537 -0.1583  0.3821
 4238TIP3    H134129   0.762   6.980  10.393 -2.0356  0.3659 -0.7489
 4238TIP3    H234130   0.731   6.832  10.398 -0.7471  0.1065 -0.3299
 4239TIP3   OH234131   2.384   0.800  11.402 -0.0320  0.0177 -0.4249
 4239TIP3    H134132   2.437   0.787  11.324 -0.7886  0.8837 -1.0909
 4239TIP3    H234133   2.439   0.770  11.474  0.8426 -0.3469 -1.2404
 4240TIP3   OH234134   1.322   0.674  14.553 -0.4269  0.8058  0.1111
 4240TIP3    H134135   1.230   0.699  14.540  0.1695  2.4456 -1.0734
 4240TIP3    H234136   1.332   0.671  14.648 -1.6988  0.6226  0.2597
 4241TIP3   OH234137   6.604   2.816   0.383  0.0538  0.0266  0.4451
 4241TIP3    H134138   6.606   2.788   0.291  0.7138  0.9993  0.1590
 4241TIP3    H234139   6.516   2.794   0.413  0.5603 -2.3905  0.2415
 4242TIP3   OH234140   2.003   0.131  11.049  0.2212  0.6618  0.5233
 4242TIP3    H134141   2.085   0.149  11.095  0.1754  1.2654  0.3662
 4242TIP3    H234142   1.943   0.102  11.118  0.2332  1.3036  0.8041
 4243TIP3   OH234143   1.832   3.059  15.179 -0.6473 -0.2955 -0.1355
 4243TIP3    H134144   1.859   2.996  15.245  1.7404  1.9623  1.1173
 4243TIP3    H234145   1.872   3.027  15.098  0.4388 -0.4642  0.4614
 4244TIP3   OH234146   4.315   2.353  13.665 -0.5463 -0.0705  0.3765
 4244TIP3    H134147   4.378   2.302  13.717  1.2293  1.8033  0.1329
 4244TIP3    H234148   4.321   2.315  13.577 -1.2200 -1.1811  0.8040
 4245TIP3   OH234149   0.390   3.831  14.379 -0.0198  0.3330  0.5367
 4245TIP3    H134150   0.331   3.889  14.331 -0.0735  0.0707  0.2845
 4245TIP3    H234151   0.341   3.749  14.388  0.4328  0.0053  0.0369
 4246TIP3   OH234152   0.508   1.143  13.203  0.3895 -0.1613  0.1875
 4246TIP3    H134153   0.484   1.201  13.130 -2.4701 -0.9334  0.4335
 4246TIP3    H234154   0.439   1.077  13.204  3.1051 -3.1320  0.4524
 4247TIP3   OH234155   0.178   6.474   1.560  0.0958  0.2269 -0.4961
 4247TIP3    H134156   0.212   6.425   1.485 -0.9571 -1.2800 -0.0191
 4247TIP3    H234157   0.239   6.454   1.631 -0.6823 -0.9197 -0.1393
 4248TIP3   OH234158   7.082   1.415  13.603 -0.2396 -0.6900 -0.0921
 4248TIP3    H134159   7.094   1.439  13.695  0.6076 -0.3839 -0.2744
 4248TIP3    H234160   7.069   1.320  13.604  1.3618 -0.9146  0.2126
 4249TIP3   OH234161   3.814   2.354  12.019  0.5405  0.1620  0.1699
 4249TIP3    H134162   3.750   2.322  12.083 -1.0321 -0.5422 -1.7197
 4249TIP3    H234163   3.813   2.288  11.949  3.8147 -0.1995  0.3914
 4250TIP3   OH234164   1.747   0.129  15.542 -0.0383 -0.4904 -0.0825
 4250TIP3    H134165   1.734   0.078  15.622 -0.0840  0.0650  0.2691
 4250TIP3    H234166   1.827   0.179  15.559 -1.2766  1.3194  0.5112
 4251TIP3   OH234167   5.103   1.475  10.916 -0.0122  0.2946  0.5020
 4251TIP3    H134168   5.080   1.420  10.991 -0.1898  0.1601  0.3484
 4251TIP3    H234169   5.182   1.433  10.880  0.0522  0.3388  0.5913
 4252TIP3   OH234170   2.047   3.293  11.733  0.3604 -0.1537  0.2079
 4252TIP3    H134171   2.096   3.369  11.766 -0.7234  0.5828  0.1684
 4252TIP3    H234172   2.016   3.321  11.647  0.7519 -0.9984 -0.2055
 4253TIP3   OH234173   2.152   3.642   0.039 -0.2537 -0.1447 -0.1622
 4253TIP3    H134174   2.098   3.618  -0.036 -1.4321 -0.5843  0.8220
 4253TIP3    H234175   2.167   3.560   0.085  1.1866 -0.0144 -0.3784
 4254TIP3   OH234176   3.638   4.641  11.099  0.3292 -0.0190  0.6323
 4254TIP3    H134177   3.679   4.644  11.186  0.9423 -1.7091  0.4125
 4254TIP3    H234178   3.711   4.625  11.039 -0.3136 -0.4555 -0.0352
 4255TIP3   OH234179   2.694   1.405  13.037  0.2759  0.3393  0.1657
 4255TIP3    H134180   2.718   1.348  12.964 -1.6668 -0.5376  0.1709
 4255TIP3    H234181   2.737   1.364  13.113 -0.2721 -0.5522  0.0067
 4256TIP3   OH234182   1.870   1.427  13.615 -0.0095 -0.0162 -0.2989
 4256TIP3    H134183   1.782   1.391  13.625 -0.3152  0.7748 -0.1710
 4256TIP3    H234184   1.884   1.430  13.520  0.4600 -1.5438 -0.2925
 4257TIP3   OH234185   0.805   1.463  11.464 -0.1559  0.1809 -0.2389
 4257TIP3    H134186   0.818   1.472  11.558  1.9482  4.0422 -0.7898
 4257TIP3    H234187   0.872   1.400  11.437  1.0273  1.0975  0.4979
 4258TIP3   OH234188   7.026   6.722  13.089  0.1031  0.2849  0.0308
 4258TIP3    H134189   7.013   6.815  13.075 -1.3610  0.2448  0.9775
 4258TIP3    H234190   7.044   6.686  13.002 -0.4556  1.2800 -0.4972
 4259TIP3   OH234191   1.945   3.546  12.584 -0.0188  0.3732 -0.2795
 4259TIP3    H134192   2.027   3.523  12.629  0.8266 -0.7706 -2.3302
 4259TIP3    H234193   1.881   3.485  12.618  0.3309  0.2746  0.2138
 4260TIP3   OH234194   0.235   3.884  10.392  0.1695  0.5935  0.2848
 4260TIP3    H134195   0.269   3.966  10.428  0.3764  0.8155 -0.4146
 4260TIP3    H234196   0.142   3.885  10.415  0.1276  1.1203  0.0985
 4261TIP3   OH234197   1.330   0.289  12.472  0.0506  0.0747 -0.0878
 4261TIP3    H134198   1.372   0.290  12.559  2.7867 -1.6724 -1.3001
 4261TIP3    H234199   1.286   0.204  12.468 -1.7946  0.9902  0.3206
 4262TIP3   OH234200   1.875   0.259  14.966 -0.0345 -0.4752 -0.1013
 4262TIP3    H134201   1.964   0.289  14.945 -0.6586  1.0756 -0.5808
 4262TIP3    H234202   1.850   0.312  15.042 -1.4410  0.7724 -1.4237
 4263TIP3   OH234203   4.097   3.194  10.024  0.3490 -0.1926 -0.0586
 4263TIP3    H134204   4.026   3.150  10.072 -0.5857  1.2368 -0.0942
 4263TIP3    H234205   4.055   3.270   9.984  1.5197 -0.3500 -1.6401
 4264TIP3   OH234206   4.399   1.604  12.140  0.4640 -0.7486  0.2918
 4264TIP3    H134207   4.494   1.597  12.145  0.4761  0.2626  1.8784
 4264TIP3    H234208   4.381   1.636  12.052  1.7110  0.7941  0.5828
 4265TIP3   OH234209   0.249   2.260  14.042 -0.2839 -0.4439 -0.0890
 4265TIP3    H134210   0.244   2.328  14.108 -1.5505  0.0312 -0.6599
 4265TIP3    H234211   0.168   2.268  13.992  1.2671  0.1355 -2.5992
 4266TIP3   OH234212   2.798   0.102  14.050  0.0282 -0.1183 -0.1023
 4266TIP3    H134213   2.772   0.021  14.006  2.6980 -0.4257 -1.2279
 4266TIP3    H234214   2.837   0.073  14.133  1.3437 -0.0334 -0.6817
 4267TIP3   OH234215   3.060   5.801  10.571  0.4083  0.2329  0.1323
 4267TIP3    H134216   2.995   5.744  10.530 -0.0369  0.0569  1.0577
 4267TIP3    H234217   3.124   5.741  10.610  1.4657  0.4107 -1.2822
 4268TIP3   OH234218   6.208   1.903  14.161 -0.2065  0.0520 -0.2189
 4268TIP3    H134219   6.147   1.841  14.121 -0.1486  1.0085 -1.8211
 4268TIP3    H234220   6.261   1.936  14.088  0.8852  0.7405  0.8563
 4269TIP3   OH234221   6.971   1.635  14.503 -0.2920 -0.1244 -0.6420
 4269TIP3    H134222   7.037   1.703  14.514 -0.0339 -0.5900  0.7796
 4269TIP3    H234223   7.021   1.553  14.505 -1.0814 -0.5992  2.4941
 4270TIP3   OH234224   4.615   2.060  13.909  0.1349 -0.4654 -0.4491
 4270TIP3    H134225   4.640   2.129  13.846  2.9087 -1.0357 -0.0369
 4270TIP3    H234226   4.530   2.029  13.877 -0.5578  2.2276 -1.4028
 4271TIP3   OH234227   2.441   3.480   0.896  0.4471  0.4350  0.8262
 4271TIP3    H134228   2.383   3.500   0.969 -1.6193 -1.4498 -0.2586
 4271TIP3    H234229   2.529   3.493   0.931 -0.5183 -0.0969  3.5280
 4272TIP3   OH234230   7.246   3.690  15.672 -0.8143 -1.0315 -0.0472
 4272TIP3    H134231   7.177   3.630  15.647 -1.7814 -0.9234  2.2352
 4272TIP3    H234232   7.287   3.650  15.748 -1.4996  1.1828  1.5299
 4273TIP3   OH234233   6.375   3.585  12.064 -0.6651  0.2137  0.4886
 4273TIP3    H134234   6.418   3.666  12.040 -0.3925  0.0677  0.4814
 4273TIP3    H234235   6.444   3.532  12.104 -0.7706 -0.1367  0.2074
 4274TIP3   OH234236   2.726   2.628  11.161  0.8301  0.2653  0.3903
 4274TIP3    H134237   2.661   2.613  11.092  0.8536 -1.4843  0.7176
 4274TIP3    H234238   2.694   2.705  11.208 -1.1747 -0.7427  0.7395
 4275TIP3   OH234239   2.917   2.491  12.891  0.4549  0.3029 -0.1138
 4275TIP3    H134240   3.008   2.461  12.902  0.2969 -0.3619 -0.5693
 4275TIP3    H234241   2.903   2.487  12.797 -0.3510 -0.5039  0.0382
 4276TIP3   OH234242   1.985   1.461  15.945 -0.3304 -0.0589  0.7368
 4276TIP3    H134243   1.918   1.404  15.982  1.6887 -2.6427  0.5411
 4276TIP3    H234244   1.966   1.463  15.851  0.3101 -1.4449  0.5659
 4277TIP3   OH234245   3.900   1.226  14.334 -0.4192  0.1275  0.0603
 4277TIP3    H134246   3.840   1.291  14.369  0.0963 -0.1175  1.4599
 4277TIP3    H234247   3.966   1.214  14.403 -0.1119 -1.3460 -0.4559
 4278TIP3   OH234248   2.363   1.681  12.222 -0.6219  0.2792 -0.8511
 4278TIP3    H134249   2.441   1.673  12.167 -0.2340  1.0231 -0.4167
 4278TIP3    H234250   2.292   1.699  12.160 -0.4196 -0.2013 -1.2310
 4279TIP3   OH234251   3.071   3.677  10.412 -0.7604 -0.0578  0.0661
 4279TIP3    H134252   3.069   3.773  10.415 -1.9802 -0.0889  0.4964
 4279TIP3    H234253   3.163   3.655  10.402 -0.5867  1.1971 -1.1825
 4280TIP3   OH234254   2.338   4.905  12.828 -0.9380  0.0885 -0.6545
 4280TIP3    H134255   2.415   4.865  12.867 -1.3395 -0.2894 -0.2424
 4280TIP3    H234256   2.264   4.856  12.864 -1.4534  1.3593  0.0463
 4281TIP3   OH234257   3.983   0.351   0.591 -0.0102  0.2884  0.1010
 4281TIP3    H134258   3.939   0.290   0.650  1.9049  0.4925  1.7720
 4281TIP3    H234259   3.935   0.342   0.508 -0.2222 -2.9571  0.4964
 4282TIP3   OH234260   4.372   2.639  13.572 -0.4600  0.1227  0.8272
 4282TIP3    H134261   4.363   2.701  13.645 -0.1544  0.6037  0.4567
 4282TIP3    H234262   4.342   2.555  13.609  0.3472  0.2127  1.7150
 4283TIP3   OH234263   6.901   4.625  11.931 -0.4001  0.1328  0.1960
 4283TIP3    H134264   6.847   4.703  11.917 -0.1090  0.7691  2.4777
 4283TIP3    H234265   6.912   4.620  12.026  2.1748 -0.9527 -0.1299
 4284TIP3   OH234266   5.841   3.282  10.700  0.0188 -0.4500  0.3000
 4284TIP3    H134267   5.762   3.286  10.645  0.7509  1.4997 -0.6661
 4284TIP3    H234268   5.857   3.189  10.713 -2.1200 -0.8801  0.0352
 4285TIP3   OH234269   3.593   1.328  11.910 -0.3602  0.3545  0.2618
 4285TIP3    H134270   3.649   1.396  11.873  2.5896 -2.6155 -0.9996
 4285TIP3    H234271   3.628   1.313  11.997 -0.7861  0.1889  0.4072
 4286TIP3   OH234272   4.309   6.158  11.211  0.5459 -0.5315 -0.5550
 4286TIP3    H134273   4.275   6.133  11.125 -0.2555  0.0999 -0.4214
 4286TIP3    H234274   4.362   6.236  11.193 -0.4495  0.2028 -0.3275
 4287TIP3   OH234275   3.573   3.325  13.677  0.4310 -0.0337  0.2520
 4287TIP3    H134276   3.517   3.400  13.659  0.3191 -0.7992 -2.8579
 4287TIP3    H234277   3.661   3.355  13.655  0.5794 -0.3555  0.3969
 4288TIP3   OH234278   3.567   0.689  12.548  0.8441  0.3465  0.5994
 4288TIP3    H134279   3.512   0.611  12.555 -0.4716  1.1007 -0.9850
 4288TIP3    H234280   3.626   0.670  12.475  1.1518  0.4721  0.8141
 4289TIP3   OH234281   2.801   2.188  11.858  0.3918  0.3103  0.9981
 4289TIP3    H134282   2.862   2.116  11.873  0.5499  0.7729  2.7117
 4289TIP3    H234283   2.718   2.147  11.838  0.9516 -0.3361 -0.0198
 4290TIP3   OH234284   4.671   4.280  13.938 -0.2571  0.4048  0.3153
 4290TIP3    H134285   4.656   4.338  13.864 -0.3012 -0.5432 -0.4374
 4290TIP3    H234286   4.584   4.265  13.975 -0.6651 -1.5497 -1.3290
 4291TIP3   OH234287   0.919   3.884  11.569  0.1740 -0.0220  0.0107
 4291TIP3    H134288   0.859   3.810  11.572  0.5474 -0.3543 -0.5866
 4291TIP3    H234289   0.904   3.923  11.483  1.7259 -0.8739 -0.6681
 4292TIP3   OH234290   7.228   2.795  10.697 -0.3842 -0.4707 -0.6447
 4292TIP3    H134291   7.174   2.813  10.619 -0.1483  0.9757 -0.4811
 4292TIP3    H234292   7.167   2.801  10.770 -0.0926  0.8092 -0.4923
 4293TIP3   OH234293   4.442   0.551  11.712 -0.0867  0.2569  0.7178
 4293TIP3    H134294   4.436   0.642  11.682 -0.7430 -0.5747 -1.7268
 4293TIP3    H234295   4.520   0.516  11.668 -0.6747 -0.7870  0.4920
 4294TIP3   OH234296   2.278   2.069  11.405  0.3678  0.1982  0.4406
 4294TIP3    H134297   2.267   1.978  11.376  0.5771  1.2350 -3.1064
 4294TIP3    H234298   2.353   2.101  11.355 -0.6643  2.7911  0.5028
 4295TIP3   OH234299   1.677   3.932  12.764 -0.9953  0.9351 -0.4831
 4295TIP3    H134300   1.706   3.841  12.773 -0.8805  0.6312 -3.2977
 4295TIP3    H234301   1.604   3.941  12.825  0.2611 -0.4601  1.2500
 4296TIP3   OH234302   7.174   5.970  13.154 -0.0317  0.4909 -0.3914
 4296TIP3    H134303   7.217   5.969  13.239 -1.0679 -0.6513  0.1339
 4296TIP3    H234304   7.204   6.051  13.112  1.2797  0.5508  0.6389
 4297TIP3   OH234305   4.980   5.595  10.941 -0.7373  0.1571  0.1403
 4297TIP3    H134306   5.063   5.547  10.944  0.2224  1.8639  1.1302
 4297TIP3    H234307   4.915   5.528  10.918  1.0002 -1.0617 -1.4039
 4298TIP3   OH234308   0.919   2.365  14.665  0.5040  0.1220 -0.3180
 4298TIP3    H134309   0.852   2.381  14.732 -1.7335 -0.7475 -2.2535
 4298TIP3    H234310   0.995   2.416  14.693 -1.9346  3.4468  0.4765
 4299TIP3   OH234311   2.902   2.381  14.208  0.0921 -0.4284  0.2289
 4299TIP3    H134312   2.916   2.386  14.113  0.9863 -1.7427  0.2743
 4299TIP3    H234313   2.829   2.319  14.218  0.4691 -0.8396  0.4323
 4300TIP3   OH234314   4.398   1.453  14.323  0.5151 -0.2993 -0.0613
 4300TIP3    H134315   4.304   1.468  14.324  0.3819 -0.7344 -2.7082
 4300TIP3    H234316   4.434   1.522  14.379 -1.3347  0.0581  0.7019
 4301TIP3   OH234317   6.462   4.473  13.990 -0.6011 -0.4274 -0.3037
 4301TIP3    H134318   6.422   4.435  13.911  1.5331 -0.2127 -1.5498
 4301TIP3    H234319   6.397   4.535  14.022 -0.7316  0.9633 -3.0653
 4302TIP3   OH234320   2.324   7.173  10.758 -0.1889 -0.6683 -0.3325
 4302TIP3    H134321   2.351   7.145  10.670  1.9432 -1.2091  0.4700
 4302TIP3    H234322   2.355   7.105  10.816  0.8863  1.0357  1.1513
 4303TIP3   OH234323   4.789   0.181  12.169  0.4462  0.3731 -0.0935
 4303TIP3    H134324   4.701   0.146  12.177 -0.3781  2.4519  0.2721
 4303TIP3    H234325   4.838   0.140  12.240 -0.3989 -0.2485  0.1387
 4304TIP3   OH234326   2.417   6.163  10.987  0.5497  0.2038 -0.5928
 4304TIP3    H134327   2.355   6.213  11.040  1.0563 -1.8199  2.0469
 4304TIP3    H234328   2.501   6.208  10.999  0.7715 -0.5615  0.8084
 4305TIP3   OH234329   1.632   1.320  13.732  0.4637 -0.3595  0.4580
 4305TIP3    H134330   1.655   1.307  13.824 -0.9036  0.9262  1.0089
 4305TIP3    H234331   1.544   1.283  13.724 -0.2498  1.3608  0.1705
 4306TIP3   OH234332   5.118   2.712  15.984 -0.6162  0.5810  0.0248
 4306TIP3    H134333   5.120   2.785  16.046 -0.2274 -0.0557  0.7580
 4306TIP3    H234334   5.202   2.717  15.939  0.6500 -1.1645  2.1077
 4307TIP3   OH234335   3.136   4.724  11.792  0.4469 -0.5218 -0.0483
 4307TIP3    H134336   3.138   4.708  11.886 -2.7546 -0.1319  0.1228
 4307TIP3    H234337   3.174   4.811  11.781  1.8220 -1.0079  0.7487
 4308TIP3   OH234338   3.415   2.397  12.401 -0.2835 -1.0856  0.0698
 4308TIP3    H134339   3.375   2.415  12.316 -2.0401 -2.4428  0.5767
 4308TIP3    H234340   3.379   2.313  12.427  1.3747 -1.3872  1.5080
 4309TIP3   OH234341   5.471   2.888  14.217  0.0972 -0.6581 -0.5742
 4309TIP3    H134342   5.398   2.861  14.273  1.5669 -0.4908  1.4508
 4309TIP3    H234343   5.547   2.842  14.252  2.0877  3.6546  1.0705
 4310TIP3   OH234344   3.489   1.607  13.163 -0.0801  0.4464  0.1307
 4310TIP3    H134345   3.498   1.512  13.164  0.7904  0.5254  0.2509
 4310TIP3    H234346   3.430   1.625  13.090 -1.5291 -0.2854  1.1010
 4311TIP3   OH234347   2.762   2.171  12.408  0.6411 -0.9615 -0.4665
 4311TIP3    H134348   2.792   2.262  12.416  1.8265 -1.1891 -2.0556
 4311TIP3    H234349   2.727   2.150  12.494 -0.8368  1.4193 -0.4251
 4312TIP3   OH234350   4.524   3.685  15.530  0.2344  0.6891 -0.6795
 4312TIP3    H134351   4.445   3.642  15.564  0.4092 -0.2762 -1.4525
 4312TIP3    H234352   4.542   3.638  15.448  0.9037  1.7163 -1.1242
 4313TIP3   OH234353   3.294   3.886  10.124 -0.6547  0.5369  0.3047
 4313TIP3    H134354   3.260   3.840  10.048 -0.8293  1.8460 -0.4326
 4313TIP3    H234355   3.388   3.892  10.108 -0.8652  2.0521 -0.5330
 4314TIP3   OH234356   2.876   4.720  10.516  0.3118  0.1336  0.2933
 4314TIP3    H134357   2.884   4.761  10.430 -0.5671  0.4463  0.3595
 4314TIP3    H234358   2.847   4.631  10.497  0.0854  0.2125  0.2617
 4315TIP3   OH234359   2.116   4.082  11.706 -0.4688 -0.0199 -0.0583
 4315TIP3    H134360   2.194   4.134  11.690 -1.3564  1.4565  0.3382
 4315TIP3    H234361   2.120   4.061  11.799  0.0169 -0.8808 -0.2692
 4316TIP3   OH234362   0.927   3.173  10.691 -0.0885  0.2045  0.3926
 4316TIP3    H134363   0.894   3.216  10.612  1.0637 -1.1070 -0.8277
 4316TIP3    H234364   0.884   3.219  10.763 -2.0645  0.6628 -1.0318
 4317TIP3   OH234365   2.431   1.841  14.599 -0.3354  0.3125 -0.3856
 4317TIP3    H134366   2.508   1.785  14.595  0.2011  0.9382  0.9795
 4317TIP3    H234367   2.388   1.829  14.514  0.4220 -1.2227 -0.5650
 4318TIP3   OH234368   3.549   6.835  13.505 -0.5930 -0.3385 -0.2227
 4318TIP3    H134369   3.535   6.917  13.457  1.3259 -0.1541 -0.4975
 4318TIP3    H234370   3.641   6.813  13.490 -0.4240 -1.2335  1.9035
 4319TIP3   OH234371   1.387   2.626  13.438 -0.4472 -0.0227  0.9600
 4319TIP3    H134372   1.378   2.570  13.361  0.9614  1.0387 -0.0070
 4319TIP3    H234373   1.474   2.607  13.472 -0.1299  1.2255  0.8847
 4320TIP3   OH234374   5.442   1.497  11.265  0.2244 -0.2523  0.7723
 4320TIP3    H134375   5.502   1.571  11.266  0.4766 -0.4547  2.2571
 4320TIP3    H234376   5.453   1.457  11.179  0.4042  1.1762  0.1319
 4321TIP3   OH234377   1.607   2.925  15.522  0.2603  0.9495 -0.2245
 4321TIP3    H134378   1.540   2.860  15.542  1.5465 -1.3565 -2.9221
 4321TIP3    H234379   1.566   2.984  15.459  0.2268  0.5621 -0.5664
 4322TIP3   OH234380   3.241   4.365  15.762  0.7040  0.4002  0.2184
 4322TIP3    H134381   3.238   4.271  15.784  1.7684  0.5600  1.1439
 4322TIP3    H234382   3.323   4.375  15.713  0.8940  0.9396  0.6392
 4323TIP3   OH234383   2.256   4.133  10.008  0.3709  0.1260 -0.0734
 4323TIP3    H134384   2.165   4.152  10.029 -1.0153 -3.9399 -1.7521
 4323TIP3    H234385   2.268   4.169   9.920 -0.2122 -0.9042 -0.5855
 4324TIP3   OH234386   2.698   2.336  12.965  1.2249  0.1271 -0.0464
 4324TIP3    H134387   2.755   2.401  12.925  1.6143  0.7391  1.4624
 4324TIP3    H234388   2.729   2.329  13.056 -0.7971  0.1253  0.6711
 4325TIP3   OH234389   4.427   2.116   9.954 -0.1639 -0.2300  0.2196
 4325TIP3    H134390   4.520   2.135   9.966 -0.2667 -0.4294  1.4228
 4325TIP3    H234391   4.393   2.110  10.043 -1.6431  1.3713 -0.2284
 4326TIP3   OH234392   0.503   2.291  12.017  0.7933  0.1438 -0.6374
 4326TIP3    H134393   0.583   2.295  12.070  1.5332 -2.3537 -1.4681
 4326TIP3    H234394   0.534   2.275  11.928 -0.6098 -2.3697 -0.7433
 4327TIP3   OH234395   1.149   5.368  12.976 -0.2491  0.8272 -0.3140
 4327TIP3    H134396   1.177   5.305  12.909  0.0408  1.6079 -0.9403
 4327TIP3    H234397   1.208   5.352  13.050 -0.8296 -0.3119 -0.0908
 4328TIP3   OH234398   3.218   1.300  10.381 -0.5709 -0.0907 -0.1541
 4328TIP3    H134399   3.169   1.382  10.386 -0.0870  0.3436 -1.9946
 4328TIP3    H234400   3.150   1.232  10.383 -1.0489  0.3998  0.3424
 4329TIP3   OH234401   2.408   5.551  12.971  0.0982  0.6502  0.3694
 4329TIP3    H134402   2.329   5.589  13.011  0.5779  1.3895  0.6039
 4329TIP3    H234403   2.408   5.583  12.881  0.8861  1.7952  0.7691
 4330TIP3   OH234404   3.855   3.498  14.645  0.4498  0.3088 -0.0578
 4330TIP3    H134405   3.821   3.415  14.678  1.9671 -0.2142  0.2293
 4330TIP3    H234406   3.796   3.522  14.574  0.2452 -1.2350 -0.4199
 4331TIP3   OH234407   1.055   2.239  15.090  0.1943  0.1012 -0.2085
 4331TIP3    H134408   1.111   2.243  15.012  1.2541  1.6608  0.6200
 4331TIP3    H234409   1.078   2.155  15.131  0.0040 -0.4859 -1.2770
 4332TIP3   OH234410   4.980   0.040  10.557 -0.5142 -0.2257 -0.2146
 4332TIP3    H134411   4.997   0.052  10.463 -1.9842 -1.2409 -0.6325
 4332TIP3    H234412   5.052  -0.015  10.587  0.2936  0.6012 -0.6186
 4333TIP3   OH234413   6.858   2.569  11.414  0.9590 -0.4505  0.5058
 4333TIP3    H134414   6.831   2.494  11.361  2.4101 -1.5560  1.3015
 4333TIP3    H234415   6.950   2.551  11.435  0.7490  0.5987  2.3483
 4334TIP3   OH234416   2.729   0.605  14.015 -0.3016  0.6878 -0.1082
 4334TIP3    H134417   2.783   0.658  14.074  1.3725 -0.0133 -0.9778
 4334TIP3    H234418   2.773   0.611  13.930 -0.5929 -1.3611 -0.4223
 4335TIP3   OH234419   2.002   4.656  13.190 -0.3498 -0.1757  0.2238
 4335TIP3    H134420   1.954   4.605  13.255 -0.9520 -0.0891 -0.1436
 4335TIP3    H234421   2.024   4.593  13.122 -1.7777  0.1905 -0.6036
 4336TIP3   OH234422   2.707   5.984  13.061  0.0157 -0.1177  0.4074
 4336TIP3    H134423   2.740   5.962  13.148  0.6774 -1.9728 -0.2939
 4336TIP3    H234424   2.682   6.076  13.068 -0.1444 -0.2965  2.6153
 4337TIP3   OH234425   4.910   3.934  15.605 -0.3237  0.3940  0.8850
 4337TIP3    H134426   4.987   3.910  15.657 -1.0675 -2.0690  0.9322
 4337TIP3    H234427   4.843   3.872  15.633 -2.2192  2.2261  0.5313
 4338TIP3   OH234428   2.033   6.572  14.716 -0.0883 -0.2952 -0.2805
 4338TIP3    H134429   1.967   6.600  14.652  1.1377  2.6529 -0.3244
 4338TIP3    H234430   2.113   6.560  14.664  0.6164  0.9803  0.4793
 4339TIP3   OH234431   3.186   3.002  13.591 -0.4380 -0.1598 -0.5247
 4339TIP3    H134432   3.226   3.086  13.569 -0.1471 -0.0584  0.3674
 4339TIP3    H234433   3.254   2.954  13.639 -0.6841 -0.8054 -0.8089
 4340TIP3   OH234434   4.167   4.731  14.235 -0.2511  0.5225 -0.3090
 4340TIP3    H134435   4.132   4.662  14.179 -0.0576  2.0867 -2.3888
 4340TIP3    H234436   4.106   4.804  14.225  0.0429  0.9917  1.1640
 4341TIP3   OH234437   0.941   0.615  14.149 -0.1640  0.5371  0.0114
 4341TIP3    H134438   1.027   0.655  14.163  1.0647 -1.5993 -1.1529
 4341TIP3    H234439   0.892   0.680  14.100  1.0862  1.4354 -0.0647
 4342TIP3   OH234440   2.082   1.575  14.397 -0.1396 -0.1212 -0.2075
 4342TIP3    H134441   2.039   1.660  14.396 -0.6441 -0.3763 -0.7120
 4342TIP3    H234442   2.020   1.517  14.441  0.5938 -0.0321  0.9615
 4343TIP3   OH234443   3.387   0.861   1.968  0.7947 -0.6329  0.1483
 4343TIP3    H134444   3.395   0.884   1.876  0.1835 -2.1553 -0.3096
 4343TIP3    H234445   3.464   0.807   1.987  1.1390  0.0227  0.6469
 4344TIP3   OH234446   0.066   1.967  15.148  0.3273 -0.1502 -0.2710
 4344TIP3    H134447   0.092   2.011  15.229  1.7002  0.9884 -1.2924
 4344TIP3    H234448   0.001   2.025  15.109  0.2359 -0.3079 -0.3505
 4345TIP3   OH234449   2.680   1.532  13.869 -0.1436  0.4172 -0.0766
 4345TIP3    H134450   2.726   1.524  13.786 -0.7959 -1.6453 -0.2733
 4345TIP3    H234451   2.588   1.519  13.846 -0.1791 -1.7935  1.1541
 4346TIP3   OH234452   2.952   3.995  12.641  0.3197  0.2694  0.7282
 4346TIP3    H134453   2.984   3.935  12.709 -1.0770 -1.0441  0.2373
 4346TIP3    H234454   3.032   4.030  12.603  1.1364  1.1293  3.1201
 4347TIP3   OH234455   0.885   3.272  13.477 -0.0686  0.0395  0.2385
 4347TIP3    H134456   0.898   3.185  13.514  0.3411 -0.2088 -0.4833
 4347TIP3    H234457   0.850   3.324  13.550  0.9603 -0.3767  1.0358
 4348TIP3   OH234458   4.626   7.007  15.698 -0.2522  0.0281 -0.3126
 4348TIP3    H134459   4.601   6.920  15.728 -2.4466 -0.0064 -2.1048
 4348TIP3    H234460   4.562   7.066  15.740  2.9527  1.2030  3.2382
 4349TIP3   OH234461   6.436   2.674  14.759  0.0766 -0.3056 -0.5023
 4349TIP3    H134462   6.445   2.767  14.737 -1.9155 -0.2509 -1.1695
 4349TIP3    H234463   6.410   2.673  14.851  0.5183 -0.2164 -0.3774
 4350TIP3   OH234464   2.780   2.567  15.844 -0.7444  0.2493  0.2404
 4350TIP3    H134465   2.806   2.583  15.754  0.4252 -0.6682  0.3884
 4350TIP3    H234466   2.792   2.472  15.856  0.2287  0.5289  1.6718
 4351TIP3   OH234467   4.246   2.045  12.047  0.2600 -0.3790  0.0520
 4351TIP3    H134468   4.282   2.045  12.136 -0.2306 -1.8361  0.2454
 4351TIP3    H234469   4.297   1.978  12.000  0.5050  0.3637 -0.7753
 4352TIP3   OH234470   6.472   5.269  13.678 -0.1323  0.0641  0.3695
 4352TIP3    H134471   6.550   5.308  13.638  1.2418 -1.3176  1.6533
 4352TIP3    H234472   6.430   5.221  13.606 -0.2386  1.4555 -0.5155
 4353TIP3   OH234473   1.842   2.151  10.075 -0.4845 -0.0059 -0.4487
 4353TIP3    H134474   1.932   2.180  10.060 -0.1285 -1.1569 -0.5157
 4353TIP3    H234475   1.815   2.112   9.992 -0.1190 -2.1251  0.4116
 4354TIP3   OH234476   1.747   3.429  12.235 -0.0604  0.0988 -0.1097
 4354TIP3    H134477   1.777   3.353  12.186  0.5153 -0.4433  1.0562
 4354TIP3    H234478   1.810   3.438  12.306 -1.3697  0.3285  1.0529
 4355TIP3   OH234479   6.045   2.059  15.307 -0.1515  0.1004 -0.6902
 4355TIP3    H134480   6.006   2.114  15.240 -1.5364  0.3705  0.2970
 4355TIP3    H234481   6.049   1.972  15.268 -1.4856  0.1349 -0.9388
 4356TIP3   OH234482   1.843   2.621  13.091 -0.5129 -0.0389 -0.4624
 4356TIP3    H134483   1.933   2.648  13.073 -0.7570  1.5492  0.7001
 4356TIP3    H234484   1.789   2.686  13.046 -1.1001 -0.1556  0.0776
 4357TIP3   OH234485   3.831   6.785  11.797  0.4235  0.4482 -0.1910
 4357TIP3    H134486   3.838   6.730  11.875 -1.6656 -0.8310 -0.8698
 4357TIP3    H234487   3.842   6.724  11.723 -0.5474  1.1444 -0.9259
 4358TIP3   OH234488   1.370   0.067  14.660 -0.5986  0.0916  0.4737
 4358TIP3    H134489   1.403   0.068  14.750 -0.2675 -0.7169  0.3625
 4358TIP3    H234490   1.299   0.003  14.662 -0.7548  0.2574  0.2163
 4359TIP3   OH234491   5.740   1.501  11.180  0.0877  0.3881  0.1054
 4359TIP3    H134492   5.705   1.469  11.097  2.7111  0.5160 -1.0877
 4359TIP3    H234493   5.686   1.577  11.201 -0.9951 -0.0136 -1.1656
 4360TIP3   OH234494   5.520   4.514  13.619 -1.0603  0.8569  0.4423
 4360TIP3    H134495   5.448   4.465  13.659 -2.4007  2.0701 -0.4372
 4360TIP3    H234496   5.537   4.585  13.680 -0.4322  0.4344  0.7641
 4361TIP3   OH234497   2.562   2.011  12.289  0.1808  0.4698  0.4179
 4361TIP3    H134498   2.633   2.065  12.323 -0.7003  1.7161  0.3017
 4361TIP3    H234499   2.494   2.017  12.356  0.1607 -0.6675  0.5019
 4362TIP3   OH234500   3.144   3.938  12.879 -1.0257 -0.2137  0.0435
 4362TIP3    H134501   3.216   3.895  12.926 -1.1334 -1.8500 -1.2423
 4362TIP3    H234502   3.123   4.015  12.932  0.2353 -0.8958  1.5679
 4363TIP3   OH234503   4.639   1.580  15.310  0.0398  0.4215  0.3613
 4363TIP3    H134504   4.673   1.526  15.239 -2.6987 -1.7980  0.6682
 4363TIP3    H234505   4.687   1.551  15.387 -1.6474 -1.8612  0.5854
 4364TIP3   OH234506   2.257   4.211  11.019 -0.1510 -0.7276  0.3822
 4364TIP3    H134507   2.326   4.271  10.987 -0.7085  0.0836  0.6773
 4364TIP3    H234508   2.228   4.165  10.941  1.5721 -1.9706  0.4437
 4365TIP3   OH234509   2.204   1.604  15.811  1.2762 -0.2924 -0.0298
 4365TIP3    H134510   2.129   1.546  15.823 -1.5213  3.2661  0.1989
 4365TIP3    H234511   2.272   1.547  15.774 -1.7946 -3.3900 -1.1841
 4366TIP3   OH234512   5.938   3.135  12.100  0.1507  0.3443 -0.6299
 4366TIP3    H134513   5.999   3.087  12.156 -1.5558 -1.3757 -0.2187
 4366TIP3    H234514   5.864   3.156  12.156 -0.4344  0.8358 -1.5693
 4367TIP3   OH234515   1.274   2.855  13.385 -0.3493  0.2719 -0.4614
 4367TIP3    H134516   1.312   2.767  13.385  0.4192  0.6008 -1.2765
 4367TIP3    H234517   1.348   2.913  13.400 -0.5403  0.9120 -1.9511
 4368TIP3   OH234518   2.014   3.651  10.723 -0.0407  0.1193  0.4324
 4368TIP3    H134519   2.099   3.630  10.761 -0.3235  0.7892  1.4542
 4368TIP3    H234520   1.959   3.673  10.798 -1.7361 -2.3802 -0.0448
 4369TIP3   OH234521   2.096   7.140  10.975 -0.4377 -0.1744 -0.1712
 4369TIP3    H134522   2.058   7.116  10.890  2.6507 -0.4848 -1.5268
 4369TIP3    H234523   2.076   7.233  10.985 -2.6470 -0.6086 -0.2083
 4370TIP3   OH234524   1.430   0.319  14.898  0.0665  0.5877  0.5119
 4370TIP3    H134525   1.395   0.383  14.960  1.4163  1.5764  0.2928
 4370TIP3    H234526   1.426   0.236  14.944 -1.6462  0.8400  0.8337
 4371TIP3   OH234527   0.672   3.193  12.247 -0.1193 -0.0567 -0.0729
 4371TIP3    H134528   0.741   3.222  12.307 -1.8143  1.6860  1.0888
 4371TIP3    H234529   0.657   3.267  12.190  1.0863 -1.5217 -2.3569
 4372TIP3   OH234530   3.318   4.335  14.436 -0.4499  0.4589  0.0340
 4372TIP3    H134531   3.385   4.377  14.383 -1.9977 -0.9449 -3.1850
 4372TIP3    H234532   3.337   4.241  14.429 -2.2309  0.1000 -0.2861
 4373TIP3   OH234533   4.292   2.326  12.585 -0.0900  0.3970  0.3058
 4373TIP3    H134534   4.374   2.342  12.537 -0.4453  1.6276  0.0858
 4373TIP3    H234535   4.284   2.231  12.587 -0.4848  0.3081 -2.8652
 4374TIP3   OH234536   2.367   3.847  10.796 -0.0194 -0.1461  0.2379
 4374TIP3    H134537   2.296   3.847  10.860  0.0601 -1.1189  0.3284
 4374TIP3    H234538   2.446   3.862  10.848 -0.2264  1.8466  0.0378
 4375TIP3   OH234539   2.377   3.435  11.373 -0.0642 -0.0118  0.2409
 4375TIP3    H134540   2.338   3.515  11.339 -3.5400 -1.0066  1.7629
 4375TIP3    H234541   2.410   3.459  11.460 -0.2721 -0.0084  0.3183
 4376TIP3   OH234542   0.735   7.243  13.338  0.7272  0.3631  0.2069
 4376TIP3    H134543   0.725   7.303  13.412  0.4647 -0.1506  0.5902
 4376TIP3    H234544   0.720   7.156  13.375  0.0166  0.1491 -0.5683
 4377TIP3   OH234545   2.650   2.291  15.166  0.1889  0.0222 -0.4919
 4377TIP3    H134546   2.709   2.358  15.132 -1.2441  0.3647 -2.4438
 4377TIP3    H234547   2.582   2.340  15.211  0.9118 -0.3203  0.9872
 4378TIP3   OH234548   1.321   2.730  12.463 -0.9310 -0.0941  0.3101
 4378TIP3    H134549   1.336   2.816  12.424 -0.8777  0.5567  1.7065
 4378TIP3    H234550   1.402   2.682  12.448 -0.4543  0.5777  0.6836
 4379TIP3   OH234551   5.731   2.528  13.745  0.1281  0.0202  0.4569
 4379TIP3    H134552   5.699   2.444  13.715  0.8899 -0.5466  1.1897
 4379TIP3    H234553   5.745   2.579  13.665  1.4084 -1.1938 -0.1184
 4380TIP3   OH234554   7.049   1.920  14.060  0.2252  0.5874  0.6206
 4380TIP3    H134555   7.132   1.879  14.035  0.2108 -0.7537  2.6420
 4380TIP3    H234556   6.986   1.887  13.996  1.2530  1.7891 -1.0691
 4381TIP3   OH234557   1.437   0.412  11.433  0.4325 -0.0294 -0.3633
 4381TIP3    H134558   1.448   0.479  11.365 -0.6309  1.5916  1.0340
 4381TIP3    H234559   1.386   0.455  11.501 -0.2869 -2.2881  0.5633
 4382TIP3   OH234560   0.571   3.399  13.254 -0.5220  0.1209  0.3265
 4382TIP3    H134561   0.532   3.486  13.254  1.5491  1.0847 -0.1723
 4382TIP3    H234562   0.506   3.343  13.211 -1.7031  1.4925  0.2972
 4383TIP3   OH234563   6.702   0.954  13.855  0.1403 -0.0008  0.4018
 4383TIP3    H134564   6.714   1.040  13.815  0.7756  0.2460  1.1068
 4383TIP3    H234565   6.786   0.935  13.896 -0.0702 -0.8588  0.4427
 4384TIP3   OH234566   0.384   2.757  12.029 -0.5228 -0.7156 -0.4249
 4384TIP3    H134567   0.373   2.680  12.085  0.6172 -1.7006 -1.5230
 4384TIP3    H234568   0.474   2.784  12.044 -0.4160 -0.5908 -1.2827
 4385TIP3   OH234569   5.507   3.530  15.616 -0.1263 -1.0729 -0.1024
 4385TIP3    H134570   5.575   3.472  15.651  0.5125 -0.0356  0.4002
 4385TIP3    H234571   5.526   3.535  15.522  0.4884 -0.7949  0.0327
 4386TIP3   OH234572   3.759   4.708  14.086 -0.3555  0.5239 -0.1005
 4386TIP3    H134573   3.720   4.731  14.002  0.9002  0.6427 -0.6737
 4386TIP3    H234574   3.741   4.614  14.096 -1.4627  0.7463  0.0283
 4387TIP3   OH234575   1.946   2.625  12.319  0.1544  0.2645 -1.0738
 4387TIP3    H134576   1.963   2.717  12.298 -1.4848  0.6167 -0.8740
 4387TIP3    H234577   1.851   2.617  12.316  0.1972 -0.9946  0.7397
 4388TIP3   OH234578   3.250   2.968  12.718 -0.3371 -0.3808 -0.2097
 4388TIP3    H134579   3.340   2.943  12.695 -0.7090 -1.1454 -0.8563
 4388TIP3    H234580   3.258   3.058  12.751  0.5494 -0.1218 -1.1057
 4389TIP3   OH234581   6.678   5.032  11.053 -0.0219  0.0777 -0.3227
 4389TIP3    H134582   6.625   4.953  11.051  0.9923 -0.5808 -1.2912
 4389TIP3    H234583   6.680   5.063  10.963  2.0147 -0.4447 -0.4903
 4390TIP3   OH234584   2.543   7.002  12.148 -0.5096 -0.3053 -0.2345
 4390TIP3    H134585   2.471   7.041  12.098 -0.1969 -0.4081 -0.7736
 4390TIP3    H234586   2.501   6.963  12.224 -0.8837  0.6708  0.0689
 4391TIP3   OH234587   4.268   3.453  10.243  0.0593  0.3059  0.3095
 4391TIP3    H134588   4.286   3.489  10.156  2.4598 -0.0284  0.6182
 4391TIP3    H234589   4.251   3.360  10.226 -0.8426  0.5116  0.0642
 4392TIP3   OH234590   3.123   1.282  14.312 -0.8254 -0.0604 -0.4436
 4392TIP3    H134591   3.074   1.200  14.307 -1.0651  0.0597 -0.0816
 4392TIP3    H234592   3.112   1.322  14.226  0.2080 -0.9269 -0.9963
 4393TIP3   OH234593   7.286   3.334  11.821  0.0513 -0.3479  0.1606
 4393TIP3    H134594   7.304   3.248  11.782 -2.3551 -0.6019 -0.4881
 4393TIP3    H234595   7.310   3.397  11.754 -2.1844 -0.7113 -1.0405
 4394TIP3   OH234596   1.656   5.474  14.551 -0.4630  0.6767  0.1175
 4394TIP3    H134597   1.613   5.558  14.560  1.3787  1.6421  0.1479
 4394TIP3    H234598   1.636   5.445  14.462  0.1271  1.8540 -0.4054
 4395TIP3   OH234599   5.145   0.066  11.288 -0.1822 -0.2787  0.4758
 4395TIP3    H134600   5.075   0.049  11.352 -0.4676 -0.7354  0.0561
 4395TIP3    H234601   5.136   0.159  11.267 -0.0157 -0.1031  1.1834
 4396TIP3   OH234602   5.184   3.689  14.760  0.1258  0.1167  0.2295
 4396TIP3    H134603   5.161   3.601  14.790  0.3426  0.1530  0.4997
 4396TIP3    H234604   5.237   3.726  14.831  0.3155  0.3418 -0.0266
 4397TIP3   OH234605   5.457   1.443  12.680  0.4571 -0.2182  0.2338
 4397TIP3    H134606   5.539   1.458  12.728  0.4409  0.7244 -0.0054
 4397TIP3    H234607   5.390   1.437  12.748  0.7230 -0.9732  0.4305
 4398TIP3   OH234608   3.475   4.781  11.408  0.6791 -0.3465 -1.0420
 4398TIP3    H134609   3.408   4.828  11.458  0.6437 -0.6512 -0.8022
 4398TIP3    H234610   3.456   4.688  11.423  0.1942 -0.4581 -2.2353
 4399TIP3   OH234611   1.337   1.713  13.401 -0.1601 -0.0201  0.2203
 4399TIP3    H134612   1.261   1.677  13.356 -0.3831  0.4511  0.2090
 4399TIP3    H234613   1.387   1.757  13.332  0.1950 -0.4488  0.2043
 4400TIP3   OH234614   4.437   0.627  14.332 -0.2390  0.3778  0.7794
 4400TIP3    H134615   4.486   0.708  14.319  0.6855 -0.1536  0.9060
 4400TIP3    H234616   4.349   0.655  14.355 -0.9380  1.3777 -2.7999
 4401TIP3   OH234617   3.315   1.293  10.752 -0.2270 -0.0666 -0.3183
 4401TIP3    H134618   3.255   1.222  10.729  1.5931 -1.9231  0.5097
 4401TIP3    H234619   3.356   1.317  10.670  0.2190 -0.9837 -0.3653
 4402TIP3   OH234620   2.330   3.572  10.435 -0.5841  0.5625 -0.1800
 4402TIP3    H134621   2.410   3.624  10.431  0.4891 -0.9576  0.7998
 4402TIP3    H234622   2.360   3.485  10.465 -2.1175 -0.9915 -2.9610
 4403TIP3   OH234623   1.842   3.027  13.675  0.1035 -0.4301 -0.3419
 4403TIP3    H134624   1.858   3.116  13.707 -0.4457 -1.3171  2.6181
 4403TIP3    H234625   1.754   3.030  13.638  0.2191  0.3391 -0.5646
 4404TIP3   OH234626   3.805   1.837  12.860 -0.4410  0.4653  0.5289
 4404TIP3    H134627   3.779   1.849  12.768 -0.8260 -0.3746  0.5186
 4404TIP3    H234628   3.790   1.744  12.876  0.2628  0.4731  1.2531
 4405TIP3   OH234629   6.575   2.618  14.550 -0.3011 -0.3116  0.3282
 4405TIP3    H134630   6.507   2.608  14.484  0.3593  0.6095 -0.4970
 4405TIP3    H234631   6.530   2.655  14.626 -1.0176 -1.1813  0.3352
 4406TIP3   OH234632   3.031   0.526  11.598  0.1202 -0.0365  0.1153
 4406TIP3    H134633   3.034   0.615  11.633 -2.0784  0.2093 -0.2570
 4406TIP3    H234634   2.973   0.478  11.657  1.5948 -1.3415  0.5318
 4407TIP3   OH234635   3.739   5.257  13.837  0.4306  0.4301 -0.2435
 4407TIP3    H134636   3.804   5.259  13.907  1.7162  0.4937 -1.4305
 4407TIP3    H234637   3.705   5.346  13.834 -1.1261 -0.0628  1.6676
 4408TIP3   OH234638   4.638   2.659  13.359  0.6487 -0.2062  0.4348
 4408TIP3    H134639   4.585   2.735  13.336 -0.0938 -1.5105 -2.3653
 4408TIP3    H234640   4.728   2.693  13.364  0.2635  0.9503 -0.2749
 4409TIP3   OH234641   3.780   5.565  12.851  0.4970 -0.0424 -0.3529
 4409TIP3    H134642   3.741   5.653  12.851 -0.4294 -0.4440 -0.7915
 4409TIP3    H234643   3.866   5.577  12.812 -0.0115  0.5121 -1.3185
 4410TIP3   OH234644   3.276   0.484  13.171 -0.6744 -0.3766 -0.0779
 4410TIP3    H134645   3.185   0.492  13.199 -0.8455 -0.2264 -0.6703
 4410TIP3    H234646   3.271   0.482  13.075  0.0150  0.4853 -0.1301
 4411TIP3   OH234647   1.051   2.465  11.501 -0.0535  0.4195  0.8931
 4411TIP3    H134648   1.083   2.514  11.426 -0.7079 -0.5416 -0.0240
 4411TIP3    H234649   1.128   2.418  11.534 -0.1948 -0.8026 -0.4643
 4412TIP3   OH234650   0.323   3.616  11.403  0.2475  0.0031  0.2882
 4412TIP3    H134651   0.235   3.655  11.407 -0.0988 -0.6316 -0.7649
 4412TIP3    H234652   0.359   3.628  11.491 -0.7821  0.5373  0.6463
 4413TIP3   OH234653   1.357   2.976  11.095 -0.0136 -0.2137 -0.1920
 4413TIP3    H134654   1.356   3.030  11.016  1.5635 -1.8239 -1.3695
 4413TIP3    H234655   1.314   2.894  11.069  0.2955 -0.6687  0.6794
 4414TIP3   OH234656   4.859   0.010  13.358  0.0211  0.1751  0.1702
 4414TIP3    H134657   4.794  -0.013  13.425  0.4715  0.2269  0.6238
 4414TIP3    H234658   4.818  -0.016  13.276 -0.6143  0.2822  0.4482
 4415TIP3   OH234659   5.108   6.874  13.783 -0.3722  0.0766 -0.1900
 4415TIP3    H134660   5.012   6.884  13.781 -0.3636  0.0676 -0.7703
 4415TIP3    H234661   5.136   6.930  13.855 -0.8930 -0.6093  0.5680
 4416TIP3   OH234662   6.285   4.130  12.421 -0.2408  0.0691  0.3447
 4416TIP3    H134663   6.283   4.226  12.415 -1.3024  0.0055 -0.6754
 4416TIP3    H234664   6.236   4.101  12.344  2.2279 -1.3484 -0.7666
 4417TIP3   OH234665   3.540   0.083  12.112 -0.4706 -1.2007 -0.4021
 4417TIP3    H134666   3.581   0.024  12.048 -3.9742 -1.6893 -2.3128
 4417TIP3    H234667   3.492   0.146  12.058 -0.8250  0.3924  1.7317
 4418TIP3   OH234668   5.440   2.989   0.057 -0.2525 -0.7268 -0.0620
 4418TIP3    H134669   5.351   2.990   0.092  0.1494  0.0734  0.9691
 4418TIP3    H234670   5.451   3.076   0.017  0.2541 -0.6037  0.3318
 4419TIP3   OH234671   6.838   2.655  10.803  0.1246  0.0378 -0.5240
 4419TIP3    H134672   6.767   2.678  10.863  0.3268  0.5211 -0.4599
 4419TIP3    H234673   6.904   2.723  10.819  0.7844 -0.6609 -0.2693
 4420TIP3   OH234674   1.223   2.762  10.998  0.6559  0.2199 -0.0642
 4420TIP3    H134675   1.233   2.667  11.004  1.1262  0.1751 -1.3318
 4420TIP3    H234676   1.134   2.774  10.964  0.8350  0.2034 -0.5463
 4421TIP3   OH234677   4.978   3.403  11.577 -0.0010  0.1138 -0.6353
 4421TIP3    H134678   4.912   3.454  11.625  1.4355  1.2494  0.1662
 4421TIP3    H234679   4.928   3.334  11.533 -1.6110  0.4056  0.7055
 4422TIP3   OH234680   6.242   3.048  11.290  0.0490 -0.3945 -0.3903
 4422TIP3    H134681   6.216   3.112  11.357  1.5759  0.6432 -0.7634
 4422TIP3    H234682   6.298   2.986  11.337  0.9265  0.1991 -0.6372
 4423TIP3   OH234683   5.528   1.681  13.642 -0.1745  0.1596 -0.1627
 4423TIP3    H134684   5.617   1.700  13.613  0.4634  0.8478  2.1743
 4423TIP3    H234685   5.507   1.597  13.601  2.9265 -1.8348  2.0892
 4424TIP3   OH234686   2.665   5.062  12.357  0.1560  0.6420 -0.2155
 4424TIP3    H134687   2.577   5.099  12.359  0.8291  2.2154  0.9955
 4424TIP3    H234688   2.722   5.136  12.340  1.3058 -0.2940 -0.5142
 4425TIP3   OH234689   2.250   3.526  11.051 -0.4626  0.1474 -0.3361
 4425TIP3    H134690   2.303   3.576  11.114 -2.4548  2.7414 -0.6492
 4425TIP3    H234691   2.283   3.553  10.966 -0.1760 -0.6902 -0.5022
 4426TIP3   OH234692   7.206   7.303  14.523 -0.4686  0.4091  0.0474
 4426TIP3    H134693   7.189   7.384  14.571  1.7513 -0.5795  2.6107
 4426TIP3    H234694   7.301   7.294  14.524 -0.6008 -1.5110 -1.4686
 4427TIP3   OH234695   0.302   0.831  13.133  0.3686 -0.1463 -0.1764
 4427TIP3    H134696   0.330   0.885  13.206  1.7267 -0.5030 -0.4106
 4427TIP3    H234697   0.336   0.744  13.153  1.0298 -0.1790 -1.3685
 4428TIP3   OH234698   4.385   1.120  13.903  0.1093  0.6492  0.2874
 4428TIP3    H134699   4.292   1.098  13.897  0.1875  0.7869 -1.7838
 4428TIP3    H234700   4.387   1.213  13.926 -0.2330  0.0349  2.9732
 4429TIP3   OH234701   6.303   4.041  12.665 -0.0426  0.0499 -0.0985
 4429TIP3    H134702   6.301   4.092  12.583 -1.8680  0.1644 -0.0068
 4429TIP3    H234703   6.365   3.971  12.648  2.1441  1.9766 -0.4264
 4430TIP3   OH234704   2.746   4.652  14.087  0.3579  0.2248  0.4384
 4430TIP3    H134705   2.794   4.731  14.061 -0.1598 -0.4389 -2.8116
 4430TIP3    H234706   2.660   4.662  14.047 -0.2020 -1.3448  1.2055
 4431TIP3   OH234707   5.033   2.560  13.289 -0.4508  0.4017  0.1840
 4431TIP3    H134708   5.045   2.500  13.214 -0.6965 -0.1705  0.5977
 4431TIP3    H234709   5.068   2.512  13.364 -1.6443  0.3264  0.7096
 4432TIP3   OH234710   3.032   1.850   0.743 -0.0726  0.0493 -0.4324
 4432TIP3    H134711   3.056   1.900   0.821 -0.3110  0.3129 -0.5248
 4432TIP3    H234712   3.042   1.912   0.671 -0.0058 -0.1474 -0.5916
 4433TIP3   OH234713   5.988   7.203  13.356 -0.0487 -0.0548  0.0479
 4433TIP3    H134714   5.990   7.108  13.346 -0.4482 -0.0971  0.3749
 4433TIP3    H234715   6.073   7.233  13.323 -0.2358 -0.4541 -0.8076
 4434TIP3   OH234716   5.525   4.659  15.037 -0.2993  0.1009 -0.1635
 4434TIP3    H134717   5.433   4.681  15.046 -0.0669  1.0338 -0.0599
 4434TIP3    H234718   5.550   4.694  14.952  0.2962  1.0524  0.3955
 4435TIP3   OH234719   4.771   3.169  10.981 -0.1247  0.5542 -0.5623
 4435TIP3    H134720   4.817   3.086  10.969  1.4286  0.8670  2.6277
 4435TIP3    H234721   4.681   3.151  10.954  0.7868 -1.4024 -2.4397
 4436TIP3   OH234722   4.622   1.255  13.458  0.1409  0.2652 -0.6772
 4436TIP3    H134723   4.644   1.237  13.367  2.0664 -0.0291 -0.1873
 4436TIP3    H234724   4.569   1.181  13.486 -0.4224  0.3397 -1.5485
 4437TIP3   OH234725   6.057   1.988  13.027  0.5072 -0.1502 -0.6591
 4437TIP3    H134726   6.092   1.939  12.952 -1.3127 -0.6551 -1.1975
 4437TIP3    H234727   6.033   2.073  12.991  3.0714  0.9688  0.1453
 4438TIP3   OH234728   4.430   3.194  12.000  0.5619 -0.8839  0.5802
 4438TIP3    H134729   4.355   3.162  12.050 -1.3785 -0.5996 -2.0555
 4438TIP3    H234730   4.422   3.289  12.004  0.0372 -0.8668 -0.7685
 4439TIP3   OH234731   1.336   2.162  13.569 -0.6137  0.2142  0.2563
 4439TIP3    H134732   1.286   2.091  13.529 -1.2760  1.0637 -0.4705
 4439TIP3    H234733   1.270   2.228  13.591  0.0313  0.7658  0.5729
 4440TIP3   OH234734   3.724   1.545  12.622 -0.6052 -0.1481  0.4902
 4440TIP3    H134735   3.680   1.495  12.553  1.6939 -0.6118 -0.7093
 4440TIP3    H234736   3.808   1.500  12.633  0.6104  2.1758  0.9085
 4441TIP3   OH234737   2.810   2.500  13.604 -0.4602 -0.0282 -0.1602
 4441TIP3    H134738   2.840   2.416  13.568 -0.6100 -0.3437  0.4446
 4441TIP3    H234739   2.716   2.489  13.618 -0.4344  0.1443  0.1702
 4442TIP3   OH234740   1.319   4.492  13.294  0.0444 -0.0629  0.2649
 4442TIP3    H134741   1.256   4.434  13.337  0.0684  0.7084  1.3416
 4442TIP3    H234742   1.298   4.579  13.326 -0.1207  0.5733 -1.5121
 4443TIP3   OH234743   2.439   5.823  13.984  0.3356 -0.6196  0.1250
 4443TIP3    H134744   2.490   5.744  14.002 -0.1972 -0.9060  0.3736
 4443TIP3    H234745   2.496   5.895  14.011  0.6150 -0.9420  0.3941
 4444TIP3   OH234746   2.221   1.124  11.584  0.0334 -0.0859 -0.3055
 4444TIP3    H134747   2.310   1.100  11.608 -0.3171 -0.3299  0.8166
 4444TIP3    H234748   2.178   1.040  11.567  0.5284  0.1388 -2.7658
 4445TIP3   OH234749   5.620   2.544  12.354 -0.6869  0.2344  0.5064
 4445TIP3    H134750   5.614   2.516  12.446 -1.1480  1.4506  0.8617
 4445TIP3    H234751   5.561   2.619  12.349 -1.5536 -0.5325 -1.0707
 4446TIP3   OH234752   5.281   4.992  14.985  0.3754 -0.3259 -0.4452
 4446TIP3    H134753   5.271   4.927  14.916 -0.0548  0.7184 -1.3937
 4446TIP3    H234754   5.295   4.941  15.064  0.4071 -1.5600 -1.2269
 4447TIP3   OH234755   1.833   6.682  12.243  1.0014  0.1743 -0.1419
 4447TIP3    H134756   1.805   6.628  12.317 -0.9956  1.2005 -0.1107
 4447TIP3    H234757   1.772   6.756  12.243  1.9123  0.9525 -1.9140
 4448TIP3   OH234758   0.504   2.860  13.384 -0.0562 -0.9700  0.0591
 4448TIP3    H134759   0.541   2.871  13.471 -1.9918 -0.4627  0.8472
 4448TIP3    H234760   0.436   2.794  13.394  0.2854 -1.5374 -1.2506
 4449TIP3   OH234761   3.173   1.309  12.677 -0.0675  0.3909 -0.1322
 4449TIP3    H134762   3.255   1.286  12.721 -0.4374 -1.6099 -0.4243
 4449TIP3    H234763   3.116   1.340  12.748  0.0426 -0.8251  0.5149
 4450TIP3   OH234764   0.280   3.261  11.072  0.2735 -0.3220  0.3847
 4450TIP3    H134765   0.303   3.176  11.109  1.6538  0.3160  0.9982
 4450TIP3    H234766   0.189   3.276  11.100  0.6115 -0.8044  1.7408
 4451TIP3   OH234767   5.612   0.921  11.875 -0.2848 -0.0729  0.3704
 4451TIP3    H134768   5.614   0.979  11.798 -1.1062 -3.3152 -2.2023
 4451TIP3    H234769   5.522   0.929  11.908 -0.9229 -1.1611 -1.0458
 4452TIP3   OH234770   5.946   2.336  11.446 -0.5289 -0.0796  0.1980
 4452TIP3    H134771   5.937   2.346  11.351 -1.2002  0.7221  0.3396
 4452TIP3    H234772   6.040   2.329  11.461 -0.3319  1.1541 -0.4005
 4453TIP3   OH234773   4.870   5.977  11.701 -0.4235  0.1828 -0.3657
 4453TIP3    H134774   4.958   5.949  11.726 -1.3102 -0.9639  1.5936
 4453TIP3    H234775   4.877   6.002  11.609  1.6359 -1.2336 -0.6000
 4454TIP3   OH234776   3.767   2.630  11.930  0.0327 -0.0507 -0.3205
 4454TIP3    H134777   3.771   2.544  11.972  0.1390  0.7305  1.2981
 4454TIP3    H234778   3.748   2.691  12.001  0.2488  1.3097 -1.4039
 4455TIP3   OH234779   2.786   2.732  14.645  0.2529  0.3280 -0.1219
 4455TIP3    H134780   2.745   2.649  14.669  0.7537  0.4065  1.0216
 4455TIP3    H234781   2.880   2.716  14.655  0.4286  0.6220 -1.2199
 4456TIP3   OH234782   4.501   3.215  13.329  0.0067  0.2918 -0.0423
 4456TIP3    H134783   4.556   3.194  13.404  2.4063 -2.2605 -2.4217
 4456TIP3    H234784   4.529   3.303  13.302 -0.0475  0.7267  1.3025
 4457TIP3   OH234785   3.263   1.770  15.651  0.0494  0.0423  0.6282
 4457TIP3    H134786   3.282   1.768  15.745  0.2944  2.6795  0.6690
 4457TIP3    H234787   3.177   1.729  15.644  0.3785 -0.9080  1.9079
 4458TIP3   OH234788   4.385   4.061  11.869  0.4534  0.0477 -0.1812
 4458TIP3    H134789   4.411   4.082  11.958  2.6550  0.4279 -0.8745
 4458TIP3    H234790   4.383   3.965  11.866 -0.2261  0.0341  0.4102
 4459TIP3   OH234791   2.061   0.766  11.251 -0.4622 -0.1588 -0.3506
 4459TIP3    H134792   2.058   0.747  11.345 -0.0199  1.7027  0.0547
 4459TIP3    H234793   2.067   0.680  11.210  3.6090 -0.8639  1.4841
 4460TIP3   OH234794   4.817   5.142  11.391 -0.0152 -0.2416 -0.1617
 4460TIP3    H134795   4.897   5.092  11.373  1.0262  1.4070 -0.3012
 4460TIP3    H234796   4.796   5.184  11.307 -1.5867 -1.4266 -0.3739
 4461TIP3   OH234797   4.942   4.900  10.610 -0.4009  0.1534  0.1552
 4461TIP3    H134798   4.919   4.850  10.532 -0.2889  0.9960 -0.4214
 4461TIP3    H234799   5.034   4.878  10.626 -0.4918 -0.2030  0.1889
 4462TIP3   OH234800   6.818   3.328  13.282 -0.1008 -0.1943  0.0197
 4462TIP3    H134801   6.812   3.423  13.295  0.0351 -0.1215 -0.4431
 4462TIP3    H234802   6.864   3.296  13.359 -2.7883 -0.2588  1.6704
 4463TIP3   OH234803   4.782   4.958  13.800 -0.8544 -0.5574  0.3783
 4463TIP3    H134804   4.791   4.863  13.800 -0.5082 -0.5274  0.5863
 4463TIP3    H234805   4.809   4.985  13.888 -0.6528 -0.2419  0.2230
 4464TIP3   OH234806   3.169   1.373  13.338 -0.1297  0.0225  0.2003
 4464TIP3    H134807   3.247   1.357  13.391 -0.2208 -0.6220  0.1473
 4464TIP3    H234808   3.182   1.318  13.261 -0.5853  0.0067  0.1390
 4465TIP3   OH234809   3.490   2.772  12.792 -0.0865 -0.1033 -0.0398
 4465TIP3    H134810   3.567   2.798  12.842 -0.4189 -0.7669  0.8245
 4465TIP3    H234811   3.523   2.754  12.704  0.7103 -0.2253  0.2836
 4466TIP3   OH234812   3.767   7.006  11.211 -0.3533 -0.4549 -0.2528
 4466TIP3    H134813   3.725   7.079  11.165  1.3581 -0.1917 -1.4640
 4466TIP3    H234814   3.702   6.977  11.276 -2.2838  0.0759 -1.8963
 4467TIP3   OH234815   1.229   2.444  10.767  0.2119  0.3441 -0.1074
 4467TIP3    H134816   1.189   2.464  10.852 -0.3992 -0.6738 -0.1383
 4467TIP3    H234817   1.155   2.441  10.706  0.4170 -0.8160 -0.3098
 4468TIP3   OH234818   5.342   2.456  14.614  0.5090  0.4756  0.5002
 4468TIP3    H134819   5.412   2.435  14.552 -0.5849  0.3657 -0.7352
 4468TIP3    H234820   5.342   2.551  14.619 -0.1250  0.5472 -0.5673
 4469TIP3   OH234821   5.035   1.402   0.893  0.5416 -0.2896 -0.5969
 4469TIP3    H134822   5.116   1.425   0.939  0.9658 -0.3368 -1.3162
 4469TIP3    H234823   5.002   1.486   0.860  1.5000 -0.5463 -2.2568
 4470TIP3   OH234824   3.668   1.153  15.022  0.4150  0.2878  0.2354
 4470TIP3    H134825   3.742   1.093  15.018  2.4014  2.4990  2.1356
 4470TIP3    H234826   3.623   1.130  15.103  0.0877  0.1159  0.0041
 4471TIP3   OH234827   4.378   2.227  10.467 -0.0876 -0.1952 -0.5917
 4471TIP3    H134828   4.330   2.171  10.527  0.9367 -1.7490 -1.1881
 4471TIP3    H234829   4.467   2.193  10.469  0.7672  1.9942 -0.2829
 4472TIP3   OH234830   5.708   3.588  11.090  0.1453  0.3268 -0.0149
 4472TIP3    H134831   5.794   3.548  11.073  0.2203  0.6428 -0.3777
 4472TIP3    H234832   5.656   3.568  11.013 -0.4858 -0.8690  0.7070
 4473TIP3   OH234833   5.117   5.010  11.052 -0.2186 -0.2209 -0.1689
 4473TIP3    H134834   5.141   5.011  10.960 -2.5644  0.4450 -0.8099
 4473TIP3    H234835   5.109   4.918  11.074 -3.3592 -0.3692 -1.6864
 4474TIP3   OH234836   3.818   2.064  10.791 -0.3037  0.2025  0.5050
 4474TIP3    H134837   3.894   2.012  10.764 -0.7854 -1.4197  2.1863
 4474TIP3    H234838   3.754   2.052  10.721 -0.0014 -0.5788  0.3618
 4475TIP3   OH234839   2.846   1.894  13.070 -0.1526  0.5392 -0.1838
 4475TIP3    H134840   2.851   1.909  13.164 -1.1893 -2.4263  0.3825
 4475TIP3    H234841   2.773   1.833  13.059  1.3273 -0.8403 -2.6877
 4476TIP3   OH234842   3.050   2.958  10.523  0.4132 -0.5650 -0.4019
 4476TIP3    H134843   2.986   3.005  10.576 -0.3846 -0.0885 -1.7682
 4476TIP3    H234844   3.046   2.867  10.554 -2.4451 -0.9843 -1.8694
 4477TIP3   OH234845   4.424   2.164  14.074 -0.1827  0.3531  0.0125
 4477TIP3    H134846   4.369   2.112  14.015 -1.1234  0.7186  0.5569
 4477TIP3    H234847   4.513   2.151  14.042 -0.5549 -0.5078 -0.6849
 4478TIP3   OH234848   2.061   5.599  12.511  0.1239  0.0208  0.5870
 4478TIP3    H134849   2.078   5.666  12.577 -0.3045  0.8799 -0.1782
 4478TIP3    H234850   1.995   5.543  12.551 -0.3897  0.7424  0.7508
 4479TIP3   OH234851   5.383   0.586  12.164 -0.2696 -0.0518 -0.9635
 4479TIP3    H134852   5.320   0.610  12.232 -0.3896  0.6342 -1.3219
 4479TIP3    H234853   5.363   0.643  12.090  0.5769 -0.0343 -1.1856
 4480TIP3   OH234854   3.590   4.597  10.708  0.1629 -0.1714 -0.2944
 4480TIP3    H134855   3.673   4.575  10.666  0.9435 -1.9047  2.0589
 4480TIP3    H234856   3.599   4.689  10.731  0.8848  0.0168 -1.2849
 4481TIP3   OH234857   0.281   2.867  15.269 -0.3579  0.3296  0.5387
 4481TIP3    H134858   0.310   2.950  15.305 -0.4402  1.5232 -2.0012
 4481TIP3    H234859   0.336   2.801  15.312  2.5769  2.0837 -0.3841
 4482TIP3   OH234860   1.925   1.584  13.844 -0.4043  0.0622  0.1360
 4482TIP3    H134861   1.888   1.535  13.770  0.2609 -0.9338  0.4593
 4482TIP3    H234862   1.861   1.572  13.915  0.8292 -2.2177  0.9005
 4483TIP3   OH234863   2.559   1.628  12.860  0.2314  0.3831  0.6143
 4483TIP3    H134864   2.632   1.631  12.799  0.4116 -1.0714  0.7421
 4483TIP3    H234865   2.592   1.577  12.934 -1.4299 -1.7516 -0.0499
 4484TIP3   OH234866   1.581   1.337  13.013  0.3680 -0.0036 -0.0858
 4484TIP3    H134867   1.639   1.312  12.942  1.0517 -0.3293  0.5760
 4484TIP3    H234868   1.637   1.341  13.090 -0.2200  1.0552  0.3089
 4485TIP3   OH234869   6.144   5.301  12.006 -0.0859 -0.0869  0.1826
 4485TIP3    H134870   6.173   5.239  12.074  0.5977 -0.0921 -0.1082
 4485TIP3    H234871   6.200   5.377  12.018 -1.2324  0.6679  0.8269
 4486TIP3   OH234872   5.735   2.473  11.586  0.1771  0.0363 -0.1187
 4486TIP3    H134873   5.808   2.423  11.550 -0.6114 -1.1252 -0.1551
 4486TIP3    H234874   5.750   2.563  11.557 -0.6063 -0.9174 -3.6520
 4487TIP3   OH234875   5.394   2.135  11.993 -0.2910 -0.0228  0.1187
 4487TIP3    H134876   5.453   2.103  11.925 -0.6654 -4.2151  1.6082
 4487TIP3    H234877   5.451   2.151  12.068 -0.4323  0.7344  0.0719
 4488TIP3   OH234878   2.588   0.617  13.119  0.0198 -0.7531 -0.2216
 4488TIP3    H134879   2.643   0.678  13.168  0.4426 -0.0150 -1.5867
 4488TIP3    H234880   2.578   0.542  13.177  1.0469 -0.1699  0.7350
 4489TIP3   OH234881   5.778   2.750  13.521  0.6992  0.2128  0.0649
 4489TIP3    H134882   5.859   2.792  13.550 -0.1111  1.5662  0.4542
 4489TIP3    H234883   5.709   2.805  13.559 -0.3895 -0.8231 -0.4063
 4490TIP3   OH234884   6.770   1.715  10.658  0.0617  0.7701 -0.1921
 4490TIP3    H134885   6.730   1.786  10.708  0.4836  1.4449 -0.8012
 4490TIP3    H234886   6.725   1.717  10.573 -0.6056 -0.3256  0.1143
 4491TIP3   OH234887   2.224   3.320  10.682 -0.4370 -1.0696 -0.0423
 4491TIP3    H134888   2.279   3.309  10.604 -0.6487  0.5501 -0.4281
 4491TIP3    H234889   2.247   3.406  10.716 -0.8822 -1.4631  1.2731
 4492TIP3   OH234890   6.650   0.028  13.816 -0.2708  0.0100 -0.0861
 4492TIP3    H134891   6.742   0.007  13.801 -0.0692  1.8093 -1.5913
 4492TIP3    H234892   6.651   0.092  13.887 -0.3335  0.2829 -0.3303
 4493TIP3   OH234893   6.733   2.555  10.536  0.1007  0.2468  0.3254
 4493TIP3    H134894   6.769   2.612  10.469 -0.0015  0.9203  0.8398
 4493TIP3    H234895   6.673   2.611  10.586  1.0600  0.0652  1.7118
 4494TIP3   OH234896   1.827   2.350   0.638 -0.0523  0.1571 -0.3062
 4494TIP3    H134897   1.905   2.341   0.584 -0.0603  0.2574 -0.3347
 4494TIP3    H234898   1.779   2.424   0.599  0.9342  1.5404  1.0462
 4495TIP3   OH234899   6.239   0.767  13.181  0.2474 -0.4966 -0.5764
 4495TIP3    H134900   6.297   0.786  13.107 -1.6734  4.2810 -1.0619
 4495TIP3    H234901   6.278   0.812  13.255 -0.5104 -0.9441  0.0994
 4496TIP3   OH234902   2.706   4.650   1.688  0.3710 -0.5644  0.0405
 4496TIP3    H134903   2.797   4.662   1.661  0.2023 -0.8628 -0.6935
 4496TIP3    H234904   2.704   4.564   1.731  0.6027 -0.1769  0.8319
 4497TIP3   OH234905   5.178   3.479  15.855  0.7210  0.1229 -0.2472
 4497TIP3    H134906   5.128   3.449  15.932 -0.9719  0.4670 -1.1834
 4497TIP3    H234907   5.269   3.464  15.879  0.2537  0.7735  2.0698
 4498TIP3   OH234908   0.471   3.521  11.146  0.1453  0.1284 -0.1629
 4498TIP3    H134909   0.527   3.457  11.102 -1.1372 -0.0508 -1.5926
 4498TIP3    H234910   0.393   3.471  11.170 -1.0300  1.2127 -1.6442
 4499TIP3   OH234911   2.823   2.234  11.190  0.6835  0.3721  0.4951
 4499TIP3    H134912   2.877   2.308  11.162  0.9987 -0.0128  0.0762
 4499TIP3    H234913   2.738   2.272  11.211  1.1714  1.0133  1.3527
 4500TIP3   OH234914   3.926   4.196  13.390 -0.0723  0.1081 -0.8684
 4500TIP3    H134915   3.860   4.239  13.335 -0.3915  1.9646  0.9272
 4500TIP3    H234916   3.997   4.260  13.396  1.0804 -1.1246 -1.2344
 4501TIP3   OH234917   7.243   2.189  12.036 -0.1029 -0.0943  0.7652
 4501TIP3    H134918   7.334   2.160  12.045 -0.0740 -0.5888 -0.8871
 4501TIP3    H234919   7.245   2.249  11.961 -1.0498  0.2716  1.0301
 4502TIP3   OH234920   3.010   0.838  12.537  0.3574  0.5901  0.3550
 4502TIP3    H134921   3.031   0.886  12.457  1.1095  1.2603  0.9488
 4502TIP3    H234922   2.927   0.795  12.518  0.2213  1.2477 -0.5675
 4503TIP3   OH234923   3.965   4.678  13.396 -0.2406  0.1080 -0.4709
 4503TIP3    H134924   3.924   4.749  13.445 -0.0252  1.3949 -2.1133
 4503TIP3    H234925   4.049   4.714  13.367  1.2845 -1.8936  1.3243
 4504TIP3   OH234926   1.677   1.641  12.273  0.0141 -0.0174 -0.3196
 4504TIP3    H134927   1.716   1.727  12.259 -0.3063  0.8666  3.6959
 4504TIP3    H234928   1.602   1.638  12.214 -0.3498  2.6831 -0.0254
 4505TIP3   OH234929   6.553   0.180  12.007  0.0741 -0.4968 -0.5034
 4505TIP3    H134930   6.614   0.139  12.069 -4.4900 -1.9150  3.3323
 4505TIP3    H234931   6.534   0.110  11.944 -0.5145 -1.2734  0.5248
 4506TIP3   OH234932   4.639   2.946   1.039  0.2647 -0.1050  0.5744
 4506TIP3    H134933   4.672   2.887   1.107  0.4757 -0.8846 -0.1960
 4506TIP3    H234934   4.706   3.014   1.033  0.2620 -0.0502  1.1293
 4507TIP3   OH234935   3.181   2.241  11.808  0.1973  0.1172  0.3080
 4507TIP3    H134936   3.197   2.150  11.786 -0.8845 -0.1969  0.7916
 4507TIP3    H234937   3.234   2.291  11.746 -0.6790 -0.7961 -1.1760
 4508TIP3   OH234938   4.319   2.387  12.208 -0.1151  0.0097  0.2306
 4508TIP3    H134939   4.370   2.464  12.184  0.3612  0.0940  1.4298
 4508TIP3    H234940   4.374   2.313  12.183 -0.4799  0.0576 -0.7264
 4509TIP3   OH234941   6.135   1.586  13.096  0.4186  0.3974 -0.3883
 4509TIP3    H134942   6.169   1.498  13.082  0.9824  0.7512 -1.2973
 4509TIP3    H234943   6.050   1.587  13.050  0.0548  0.0991  0.2715
 4510TIP3   OH234944   5.950   2.635  14.082  1.2549 -0.0330 -0.3672
 4510TIP3    H134945   5.995   2.604  14.004  0.2958  1.2468 -1.4502
 4510TIP3    H234946   5.886   2.566  14.102  2.6876 -1.1801  0.3363
 4511TIP3   OH234947   2.433   4.162  14.725  0.0776  0.3582 -0.4341
 4511TIP3    H134948   2.439   4.070  14.698 -0.8710  0.7920 -2.1967
 4511TIP3    H234949   2.505   4.205  14.678  0.7976  0.4567  0.7356
 4512TIP3   OH234950   4.066   3.953  13.479 -0.6618 -0.3309  0.6072
 4512TIP3    H134951   4.038   3.955  13.570 -1.0323 -0.9857  0.5167
 4512TIP3    H234952   4.019   4.025  13.438  0.3522  0.6489  1.1626
 4513TIP3   OH234953   3.867   0.774  11.118  0.1145 -0.1198 -0.4415
 4513TIP3    H134954   3.839   0.863  11.093 -0.1591 -0.2129 -0.4743
 4513TIP3    H234955   3.833   0.763  11.207 -2.0274 -1.1100 -1.3469
 4514TIP3   OH234956   3.923   6.305  15.331  0.7362  0.5802  0.0208
 4514TIP3    H134957   3.871   6.381  15.356  0.8206  0.4108  0.7367
 4514TIP3    H234958   3.865   6.253  15.275  0.2855  0.6166  0.4469
 4515TIP3   OH234959   1.367   4.095  10.998 -0.0036 -0.4098  0.0707
 4515TIP3    H134960   1.307   4.132  11.063  0.2887 -1.7219  1.1028
 4515TIP3    H234961   1.453   4.098  11.040  0.7588  1.7874 -1.5346
 4516TIP3   OH234962   4.955   0.582  10.379  0.2036 -0.2032  0.2690
 4516TIP3    H134963   4.911   0.646  10.324  0.7991  0.0458  0.0808
 4516TIP3    H234964   4.885   0.543  10.431 -0.0191  1.3773  1.1751
 4517TIP3   OH234965   3.892   3.342   9.962 -0.0963  0.4731 -0.0226
 4517TIP3    H134966   3.875   3.373  10.051 -1.5692  1.1206 -0.5181
 4517TIP3    H234967   3.951   3.408   9.925  0.4774  0.2283  0.4524
 4518TIP3   OH234968   2.092   5.402  10.074  0.4787 -0.0577 -0.2775
 4518TIP3    H134969   2.054   5.322  10.038  0.0220  0.1271 -0.2048
 4518TIP3    H234970   2.156   5.430  10.008  0.1908 -0.1400 -0.5893
 4519TIP3   OH234971   2.491   1.290  11.136  0.2159 -0.3350  0.1005
 4519TIP3    H134972   2.422   1.240  11.093  0.1414 -0.6392  0.5709
 4519TIP3    H234973   2.570   1.237  11.126  0.2490 -0.2938  0.1412
 4520TIP3   OH234974   6.544   3.040  10.992  0.0798 -0.1792 -0.4665
 4520TIP3    H134975   6.462   3.026  11.039  0.1338  1.4011  0.1203
 4520TIP3    H234976   6.519   3.085  10.912  0.3264 -0.1604 -0.5349
 4521TIP3   OH234977   1.940   2.137  15.523  0.1253 -0.0631 -0.4380
 4521TIP3    H134978   2.010   2.072  15.513  0.8643  0.5210  0.8898
 4521TIP3    H234979   1.985   2.216  15.552 -1.2885 -0.2103  2.2706
 4522TIP3   OH234980   2.540   5.158  15.072  0.1850  0.6541  0.2107
 4522TIP3    H134981   2.540   5.086  15.009  1.0615  3.0053 -2.6009
 4522TIP3    H234982   2.448   5.185  15.078  0.2281  1.0821 -0.9101
 4523TIP3   OH234983   5.205   3.649  13.464 -0.2420  0.2427  0.5116
 4523TIP3    H134984   5.296   3.658  13.495 -0.4954  0.4523  1.2124
 4523TIP3    H234985   5.189   3.555  13.463  1.3087 -0.1084 -3.5596
 4524TIP3   OH234986   6.111   3.305  10.692 -0.0844 -0.6450 -0.6342
 4524TIP3    H134987   6.018   3.313  10.714 -0.2469 -0.4292 -1.3843
 4524TIP3    H234988   6.126   3.210  10.688  0.1155 -0.6995  1.0593
 4525TIP3   OH234989   0.158   7.242  14.801  0.6356 -0.6888  0.2252
 4525TIP3    H134990   0.130   7.310  14.739 -1.6856  0.7459  2.7678
 4525TIP3    H234991   0.137   7.160  14.756  1.6310  0.2527 -2.0642
 4526TIP3   OH234992   3.966   2.551  13.652 -0.5931  0.0070  0.2361
 4526TIP3    H134993   3.960   2.646  13.644 -2.1435 -0.0877  0.0390
 4526TIP3    H234994   3.993   2.536  13.743 -0.5605  0.6374  0.3323
 4527TIP3   OH234995   7.109   2.285  12.380 -0.3620  0.3027  0.0449
 4527TIP3    H134996   7.118   2.327  12.294 -0.2247  1.8631  0.8082
 4527TIP3    H234997   7.024   2.316  12.412  0.2688  0.9198  1.1202
 4528TIP3   OH234998   6.110   5.764  11.716 -0.2169 -0.1593 -0.4478
 4528TIP3    H134999   6.131   5.792  11.805  0.1836 -1.3113 -0.1721
 4528TIP3    H235000   6.192   5.772  11.667  0.1955 -1.9309 -0.0783
 4529TIP3   OH235001   5.128   6.518  10.489  0.2848 -0.2168  0.3844
 4529TIP3    H135002   5.149   6.455  10.420 -1.2055 -0.1876 -0.1081
 4529TIP3    H235003   5.116   6.601  10.443 -1.1216 -0.2817  0.5968
 4530TIP3   OH235004   5.038   0.014  14.962  0.0067  0.5790  0.0440
 4530TIP3    H135005   4.974  -0.019  14.899  1.7953 -0.4030 -1.2776
 4530TIP3    H235006   5.070  -0.064  15.007 -0.2047  1.1384  1.1976
 4531TIP3   OH235007   4.371   0.023  12.921 -0.1463  0.3731 -0.0518
 4531TIP3    H135008   4.446   0.044  12.866 -0.2635 -1.3777 -0.9195
 4531TIP3    H235009   4.301   0.003  12.859 -1.2913  1.8388  0.7493
 4532TIP3   OH235010   5.743   4.403  12.674 -0.0273 -0.2609  0.1265
 4532TIP3    H135011   5.741   4.499  12.679 -0.3997 -0.2069 -0.9600
 4532TIP3    H235012   5.807   4.377  12.740  1.4790  0.8430 -0.8686
 4533TIP3   OH235013   5.516   2.209  11.109 -0.0401 -0.1409 -0.3327
 4533TIP3    H135014   5.449   2.156  11.066  1.3873 -2.4165  0.1562
 4533TIP3    H235015   5.492   2.300  11.089 -2.6005 -0.9577 -1.1031
 4534TIP3   OH235016   4.205   3.482   1.340 -0.4547  0.1081 -0.1275
 4534TIP3    H135017   4.248   3.434   1.270 -1.5087 -0.2229 -0.5582
 4534TIP3    H235018   4.237   3.571   1.332 -0.5055  0.0507 -0.9779
 4535TIP3   OH235019   5.081   6.895  13.076 -0.0436  0.3176 -0.1705
 4535TIP3    H135020   5.111   6.966  13.020  0.3557 -0.8002 -1.3845
 4535TIP3    H235021   5.117   6.917  13.163  1.3299  0.8067 -0.8518
 4536TIP3   OH235022   6.400   2.473  13.590 -0.1603 -0.3683  0.1665
 4536TIP3    H135023   6.324   2.500  13.539  1.2340 -0.4700 -2.0698
 4536TIP3    H235024   6.467   2.452  13.524  2.7054  2.3390  2.0562
 4537TIP3   OH235025   0.882   4.239  13.281  0.0138  0.2675  0.3404
 4537TIP3    H135026   0.797   4.198  13.295  0.5260 -0.9112  0.0607
 4537TIP3    H235027   0.862   4.329  13.256 -1.1523 -0.0393  0.1635
 4538TIP3   OH235028   3.209   5.297  12.329  0.1517 -0.2092 -0.0369
 4538TIP3    H135029   3.287   5.248  12.353  1.0070  0.1468 -2.0173
 4538TIP3    H235030   3.210   5.374  12.387  1.2658 -0.2035 -0.0609
 4539TIP3   OH235031   2.864   6.463  13.023 -0.5228  0.5071  0.4633
 4539TIP3    H135032   2.869   6.558  13.009 -0.1420  0.4257  0.0503
 4539TIP3    H235033   2.903   6.450  13.109  1.4266  0.4853 -0.4085
 4540TIP3   OH235034   5.306   4.724  13.157  0.4181 -0.1988 -0.9080
 4540TIP3    H135035   5.339   4.708  13.069 -0.4465 -0.5078 -1.1866
 4540TIP3    H235036   5.371   4.781  13.198  0.9876 -0.3288 -1.6345
 4541TIP3   OH235037   1.371   1.617  14.866  0.1532 -0.3344 -0.2399
 4541TIP3    H135038   1.326   1.620  14.951 -0.3232 -2.0654 -0.4191
 4541TIP3    H235039   1.300   1.615  14.802  0.4922  3.0116 -0.8049
 4542TIP3   OH235040   4.926   2.452  11.932 -0.2792  0.2899  0.1277
 4542TIP3    H135041   4.948   2.492  11.847 -1.1184  1.3553  0.4000
 4542TIP3    H235042   5.003   2.401  11.954  0.3860  0.8690 -0.7759
 4543TIP3   OH235043   1.584   2.382  14.395 -0.5423 -0.2499 -0.8651
 4543TIP3    H135044   1.630   2.311  14.439 -0.1342  0.2662 -0.4503
 4543TIP3    H235045   1.649   2.452  14.388 -1.0737  0.2521 -0.8438
 4544TIP3   OH235046   4.125   1.314  11.594 -0.2225 -0.1119 -0.4420
 4544TIP3    H135047   4.127   1.393  11.648 -2.5238 -0.4036  0.1210
 4544TIP3    H235048   4.203   1.266  11.618  0.3821  1.2484  0.3515
 4545TIP3   OH235049   4.760   1.447  15.097  0.3593  0.0641 -0.0968
 4545TIP3    H135050   4.855   1.459  15.093  0.4671 -1.2578 -2.0746
 4545TIP3    H235051   4.742   1.375  15.037 -1.8835  0.1237  0.4470
 4546TIP3   OH235052   5.120   0.830  13.415 -0.3500  0.3144  0.5876
 4546TIP3    H135053   5.090   0.744  13.386  2.3780  0.1030 -1.7788
 4546TIP3    H235054   5.179   0.811  13.488  1.7738 -0.0034 -1.1777
 4547TIP3   OH235055   0.531   0.757  14.544 -0.1656 -0.3221  0.7107
 4547TIP3    H135056   0.506   0.844  14.512  0.1263 -0.9806 -1.3616
 4547TIP3    H235057   0.576   0.717  14.471  0.9178 -1.7267  2.1255
 4548TIP3   OH235058   6.164   1.385  10.704  0.0480  0.3358 -0.3256
 4548TIP3    H135059   6.170   1.330  10.626 -1.3698  0.0343 -0.2396
 4548TIP3    H235060   6.203   1.469  10.678  1.0399 -0.2867 -0.8555
 4549TIP3   OH235061   4.401   4.859  13.094 -0.2650  0.3030 -0.0971
 4549TIP3    H135062   4.326   4.800  13.102 -0.8853  1.2449  1.2123
 4549TIP3    H235063   4.364   4.938  13.055  0.6494 -0.3042 -2.2606
 4550TIP3   OH235064   2.933   6.840  13.645 -0.5747  0.0263 -0.6270
 4550TIP3    H135065   2.853   6.864  13.691 -1.4210 -0.4951 -1.8109
 4550TIP3    H235066   2.912   6.851  13.553  0.9873  0.6824 -0.9188
 4551TIP3   OH235067   2.045   0.759  10.769 -0.3035  0.4656 -0.0114
 4551TIP3    H135068   2.094   0.837  10.797 -0.9471  0.2570  1.7656
 4551TIP3    H235069   1.954   0.780  10.787 -0.4881 -0.6913  0.4479
 4552TIP3   OH235070   4.528   6.887  10.321  0.2953  0.2522  0.1995
 4552TIP3    H135071   4.573   6.971  10.324  1.3005 -0.2758  0.2380
 4552TIP3    H235072   4.473   6.887  10.399 -0.6783  1.3947 -0.4679
 4553TIP3   OH235073   4.392   0.783  13.252  0.1456 -0.1811 -0.7082
 4553TIP3    H135074   4.318   0.753  13.199  0.5926 -0.8151 -0.9722
 4553TIP3    H235075   4.470   0.759  13.202  0.5351  0.5917 -0.4829
 4554TIP3   OH235076   6.391   5.493  11.909 -0.5350 -0.1212 -0.6893
 4554TIP3    H135077   6.476   5.458  11.882 -0.7057 -0.6127 -0.6062
 4554TIP3    H235078   6.411   5.577  11.949 -0.2797  0.6269 -2.3640
 4555TIP3   OH235079   6.340   2.526   0.950  0.7702 -0.3897 -0.0930
 4555TIP3    H135080   6.252   2.490   0.943  0.7168 -0.7447  2.1724
 4555TIP3    H235081   6.396   2.459   0.910  0.0360 -0.1181 -1.6282
 4556TIP3   OH235082   4.681   1.575  12.182 -0.4145 -0.1010  0.2333
 4556TIP3    H135083   4.731   1.540  12.108 -0.0491 -1.0110  0.9028
 4556TIP3    H235084   4.734   1.647  12.215 -1.1651  1.1108 -1.1449
 4557TIP3   OH235085   6.570   1.853  13.552 -0.3725 -0.0107  0.4346
 4557TIP3    H135086   6.638   1.916  13.577 -0.5288  0.4410 -0.2965
 4557TIP3    H235087   6.488   1.896  13.572 -0.4509 -0.5871  1.3851
 4558TIP3   OH235088   3.199   7.199  13.085  0.5103  0.0024  0.2360
 4558TIP3    H135089   3.267   7.227  13.146 -0.3629 -0.4012  1.4237
 4558TIP3    H235090   3.142   7.141  13.137 -1.8255  1.8370 -0.1858
 4559TIP3   OH235091   2.724   0.002  11.403 -0.0526  0.1147  0.4511
 4559TIP3    H135092   2.648   0.039  11.357 -0.9329 -1.0077  0.9593
 4559TIP3    H235093   2.686  -0.062  11.463  1.1159  1.3354  2.5244
 4560TIP3   OH235094   0.761   2.073   0.824 -0.3774  0.0331 -0.9109
 4560TIP3    H135095   0.764   2.137   0.895 -0.0332 -1.2109  0.2294
 4560TIP3    H235096   0.667   2.057   0.810 -0.4438 -0.0423 -0.4085
 4561TIP3   OH235097   2.153   6.541  12.574 -0.2796  0.3229  0.2541
 4561TIP3    H135098   2.130   6.622  12.621  0.8633  0.3909  0.7070
 4561TIP3    H235099   2.198   6.571  12.495 -0.1392  0.1400  0.2636
 4562TIP3   OH235100   5.143   0.667  10.870 -0.4202  0.3671  0.7670
 4562TIP3    H135101   5.159   0.759  10.889 -1.3764  0.9260 -1.0986
 4562TIP3    H235102   5.102   0.666  10.784  0.2966 -1.8559  0.4085
 4563TIP3   OH235103   5.414   4.004  10.764  0.4721 -0.0290 -0.4778
 4563TIP3    H135104   5.429   3.917  10.726 -0.6771 -0.1119 -0.7574
 4563TIP3    H235105   5.345   3.990  10.829 -0.3251  0.8233 -1.1294
 4564TIP3   OH235106   3.416   3.422  14.235  0.2253  0.0861 -0.3529
 4564TIP3    H135107   3.450   3.411  14.146  0.3867  0.7168 -0.3695
 4564TIP3    H235108   3.473   3.367  14.289  0.2249 -0.1767 -0.6187
 4565TIP3   OH235109   5.138   3.572  11.202  0.2121 -0.2169  0.4827
 4565TIP3    H135110   5.177   3.557  11.116  1.2511  5.2940 -0.1782
 4565TIP3    H235111   5.044   3.573  11.185  0.4254  1.1935 -0.6812
 4566TIP3   OH235112   4.763   4.684  13.778 -0.2155 -0.9984 -0.3815
 4566TIP3    H135113   4.722   4.615  13.726 -0.3588 -0.7755 -0.5647
 4566TIP3    H235114   4.794   4.640  13.857 -0.3572 -1.2598 -0.4741
 4567TIP3   OH235115   5.957   2.441  12.768  0.4585  0.2876  0.4728
 4567TIP3    H135116   6.021   2.503  12.803 -1.5077  2.3204  0.5159
 4567TIP3    H235117   5.975   2.441  12.674  1.2492 -0.0113  0.6150
 4568TIP3   OH235118   6.805   0.099  11.229  0.1767  0.5249  0.8421
 4568TIP3    H135119   6.745   0.045  11.279  1.3487  0.1553  1.8880
 4568TIP3    H235120   6.881   0.110  11.286  0.9264  1.3387 -0.2730
 4569TIP3   OH235121   5.127   2.817  14.557 -0.3865 -0.0532 -0.2229
 4569TIP3    H135122   5.110   2.785  14.468  0.0182  3.0148 -1.4639
 4569TIP3    H235123   5.042   2.849  14.588 -0.0945  0.8381 -0.3354
 4570TIP3   OH235124   1.272   1.926  11.466 -0.5782 -0.1279  0.6690
 4570TIP3    H135125   1.299   1.923  11.374 -0.9935 -1.3539  0.5818
 4570TIP3    H235126   1.228   2.011  11.475 -1.7352 -0.5813 -0.5948
 4571TIP3   OH235127   2.852   3.803  13.436 -0.2554 -0.5989  0.3554
 4571TIP3    H135128   2.871   3.894  13.413 -1.1409 -0.4436  0.2139
 4571TIP3    H235129   2.933   3.771  13.476 -1.1853  1.4592  4.0836
 4572TIP3   OH235130   3.728   4.900  11.384  0.4181 -0.5239  0.3555
 4572TIP3    H135131   3.767   4.851  11.456 -0.0787 -0.0854  0.9361
 4572TIP3    H235132   3.640   4.864  11.376 -0.4425  1.1766  1.7050
 4573TIP3   OH235133   6.322   2.372   0.273 -0.4449 -0.2428  0.0293
 4573TIP3    H135134   6.358   2.285   0.258  2.8660  1.2046 -0.6885
 4573TIP3    H235135   6.286   2.368   0.362  0.8547 -1.9460  0.4905
 4574TIP3   OH235136   0.270   0.341  10.736 -0.0108  0.4208  0.1410
 4574TIP3    H135137   0.242   0.305  10.820 -1.4643  0.9072 -0.1167
 4574TIP3    H235138   0.195   0.327  10.677  0.1886  1.9495 -0.5077
 4575TIP3   OH235139   0.723   1.546  13.579  0.4069  0.5918 -0.2548
 4575TIP3    H135140   0.710   1.525  13.486  0.9572  3.7092 -1.1089
 4575TIP3    H235141   0.650   1.502  13.624 -2.8275  3.1017 -2.8073
 4576TIP3   OH235142   5.218   2.794  12.223 -0.1187  0.9456 -0.7039
 4576TIP3    H135143   5.220   2.786  12.318  1.0402 -0.1113 -0.8035
 4576TIP3    H235144   5.138   2.747  12.197 -0.2863  0.9896 -0.2742
 4577TIP3   OH235145   2.922   3.127  12.498  0.5205 -0.0017  0.3041
 4577TIP3    H135146   2.857   3.079  12.446  0.3722 -1.1006  1.4679
 4577TIP3    H235147   2.888   3.124  12.588  0.4632  2.3790  0.4086
 4578TIP3   OH235148   5.576   1.058  11.634 -0.5725 -0.1741 -0.5550
 4578TIP3    H135149   5.576   1.020  11.546  2.3022 -0.0411 -0.6565
 4578TIP3    H235150   5.648   1.121  11.633 -0.5976 -0.0504  1.8685
 4579TIP3   OH235151   0.274   3.304  11.902 -0.3214 -0.2347  0.0501
 4579TIP3    H135152   0.272   3.208  11.902  1.7419 -0.3116  1.3593
 4579TIP3    H235153   0.224   3.329  11.980 -1.2012 -0.2101 -0.5095
 4580TIP3   OH235154   6.414   0.994  10.310  0.0586  0.0691  0.0009
 4580TIP3    H135155   6.459   0.952  10.383  2.3181  2.4292  0.0328
 4580TIP3    H235156   6.482   1.045  10.266 -1.9573  1.2707 -1.8322
 4581TIP3   OH235157   3.750   2.980  14.085  0.2915  0.1154 -0.1456
 4581TIP3    H135158   3.737   3.070  14.117 -3.2875 -0.1480 -0.6330
 4581TIP3    H235159   3.775   2.990  13.993  2.2778  0.6221  0.4132
 4582TIP3   OH235160   6.855   3.371  12.653  0.2830  0.6642  0.3519
 4582TIP3    H135161   6.778   3.421  12.628  1.0657  1.3535 -0.7191
 4582TIP3    H235162   6.924   3.436  12.666  0.6862  0.0633  1.3272
 4583TIP3   OH235163   4.558   2.459  14.794  0.1067  0.0119  0.0453
 4583TIP3    H135164   4.504   2.536  14.772  0.2041 -0.2138 -1.0208
 4583TIP3    H235165   4.601   2.436  14.712  1.7580  0.1155  0.8641
 4584TIP3   OH235166   5.251   0.693  12.389 -0.1076  0.6166 -0.5029
 4584TIP3    H135167   5.213   0.750  12.455 -1.9501 -0.7731 -0.3154
 4584TIP3    H235168   5.339   0.673  12.421 -1.2948 -0.8088  2.0615
 4585TIP3   OH235169   3.998   2.197  13.765  0.3146  0.0342  0.3308
 4585TIP3    H135170   4.055   2.274  13.761 -0.0274  0.2079 -1.9187
 4585TIP3    H235171   3.912   2.230  13.739  0.1312 -1.0676 -0.4898
 4586TIP3   OH235172   3.752   2.178  15.359  0.4366  0.1917 -0.6027
 4586TIP3    H135173   3.660   2.182  15.386  0.7867 -1.0905  0.8522
 4586TIP3    H235174   3.786   2.266  15.377 -0.1735  0.2963  0.0690
 4587TIP3   OH235175   6.334   5.856  11.596 -0.9734 -0.8944 -0.5060
 4587TIP3    H135176   6.379   5.915  11.535 -1.5313  0.9201  0.8219
 4587TIP3    H235177   6.365   5.882  11.682 -1.5934 -2.2416  0.1436
 4588TIP3   OH235178   5.525   3.150  14.116  0.3326 -0.0424  0.0094
 4588TIP3    H135179   5.473   3.085  14.163 -0.1357 -0.4708 -1.0770
 4588TIP3    H235180   5.608   3.107  14.099 -0.2924 -0.7164 -1.4973
 4589TIP3   OH235181   4.721   4.199  12.659  0.0567  0.0550  0.2763
 4589TIP3    H135182   4.777   4.121  12.666 -1.0804 -1.0842 -2.5130
 4589TIP3    H235183   4.692   4.216  12.748  2.2303 -1.2822  1.2856
 4590TIP3   OH235184   1.758   0.678  11.272 -0.4971  0.2814  0.2807
 4590TIP3    H135185   1.781   0.771  11.267  1.9575 -0.2663  0.6771
 4590TIP3    H235186   1.755   0.658  11.365  0.9888 -0.4842  0.1784
 4591TIP3   OH235187   1.715   2.317  12.211 -0.1754  0.2858 -0.1403
 4591TIP3    H135188   1.657   2.283  12.143 -0.1274 -0.2961  0.1048
 4591TIP3    H235189   1.771   2.380  12.165 -0.6567  0.4720 -0.4798
 4592TIP3   OH235190   3.017   6.993  11.206  0.1141 -0.1209 -0.2038
 4592TIP3    H135191   2.996   6.923  11.145 -4.1628  1.2715 -0.5563
 4592TIP3    H235192   3.003   7.073  11.156  1.7959  1.0185  1.0869
 4593TIP3   OH235193   6.108   4.386  14.089  0.2198 -0.5133  0.1123
 4593TIP3    H135194   6.167   4.385  14.163 -0.8764  0.7759  1.0236
 4593TIP3    H235195   6.033   4.439  14.118  0.2181  0.8403 -2.2282
 4594TIP3   OH235196   5.195   3.066  15.228 -0.0540  0.0177  0.0105
 4594TIP3    H135197   5.261   3.011  15.187  1.5576  0.0894  2.4119
 4594TIP3    H235198   5.139   3.005  15.276 -0.2553  0.1823 -0.0139
 4595TIP3   OH235199   5.583   0.350  11.127 -0.1657 -0.6088  0.4699
 4595TIP3    H135200   5.599   0.433  11.081  0.3397  0.4374  2.4506
 4595TIP3    H235201   5.520   0.304  11.073 -0.0819  0.8678 -0.9215
 4596TIP3   OH235202   6.788   1.357  14.226  0.2474  0.5076 -0.2489
 4596TIP3    H135203   6.703   1.343  14.268  0.5462 -0.0448  0.1809
 4596TIP3    H235204   6.852   1.342  14.296  0.6727  1.6218 -0.3912
 4597TIP3   OH235205   6.549   5.566  14.555  0.2819 -0.0586 -0.2017
 4597TIP3    H135206   6.642   5.553  14.572  0.2344  0.6723  0.6998
 4597TIP3    H235207   6.545   5.635  14.489  0.3605  0.9508  0.8275
 4598TIP3   OH235208   6.383   5.087  13.457  0.1335  0.4650 -0.3984
 4598TIP3    H135209   6.344   5.158  13.406 -0.3617 -0.4613 -1.3148
 4598TIP3    H235210   6.458   5.059  13.405 -0.7598 -0.9230 -0.9561
 4599TIP3   OH235211   4.054   3.203  14.585  0.5422  0.1894  0.1318
 4599TIP3    H135212   4.073   3.279  14.639  0.1438 -0.8130  1.7182
 4599TIP3    H235213   4.097   3.221  14.502  1.9281  1.3605  1.0866
 4600TIP3   OH235214   5.418   0.569  13.445  0.4812  0.2640  0.1513
 4600TIP3    H135215   5.456   0.496  13.493  0.4175 -1.0481 -1.7598
 4600TIP3    H235216   5.448   0.647  13.492 -1.1441 -1.0126  3.4118
 4601TIP3   OH235217   5.816   2.766  11.529 -0.1038  0.5288 -0.7290
 4601TIP3    H135218   5.800   2.775  11.435  1.3861  1.2086 -0.9235
 4601TIP3    H235219   5.886   2.829  11.548  0.1061 -0.1196  0.7031
 4602TIP3   OH235220   5.484   4.741  12.308  0.4894  0.0179 -0.4154
 4602TIP3    H135221   5.477   4.818  12.365 -2.2802  1.3296 -2.3811
 4602TIP3    H235222   5.508   4.776  12.222 -1.6358 -1.1383 -1.5527
 4603TIP3   OH235223   2.714   1.207  10.457 -0.1597 -0.0051  0.0111
 4603TIP3    H135224   2.670   1.123  10.444  0.8312 -0.9176  2.2084
 4603TIP3    H235225   2.661   1.270  10.409 -1.3601 -1.7668 -1.0267
 4604TIP3   OH235226   3.086   7.014  10.458  0.3287  0.2191 -0.2000
 4604TIP3    H135227   3.127   6.949  10.400 -2.0586 -0.1449 -1.5648
 4604TIP3    H235228   3.101   7.098  10.414  1.0831  0.2939  0.1889
 4605TIP3   OH235229   4.086   3.698  14.234 -0.2113  1.0428  0.3826
 4605TIP3    H135230   4.083   3.657  14.320 -1.9317 -1.7793 -0.9494
 4605TIP3    H235231   4.005   3.750  14.229  0.9136  2.9245  1.2387
 4606TIP3   OH235232   6.047   1.448  10.932  0.0990 -0.0473  0.1820
 4606TIP3    H135233   6.076   1.423  10.844  0.8298 -0.8732  0.6476
 4606TIP3    H235234   6.124   1.485  10.973 -0.2613  0.4060  0.4541
 4607TIP3   OH235235   0.382   5.753  11.344  0.1777  0.2852  0.3675
 4607TIP3    H135236   0.340   5.705  11.415  3.2039 -1.4986  1.0437
 4607TIP3    H235237   0.438   5.817  11.389  2.2268 -0.9600 -0.3985
 4608TIP3   OH235238   4.914   2.423  15.452 -0.5865 -0.5078  0.0444
 4608TIP3    H135239   4.882   2.374  15.528  2.4278 -2.1291  0.3320
 4608TIP3    H235240   4.906   2.362  15.379 -0.6655  0.0201 -0.3906
 4609TIP3   OH235241   5.371   6.701  13.481  0.0163  0.6068 -0.0358
 4609TIP3    H135242   5.331   6.679  13.397 -1.9512  0.2289  0.9710
 4609TIP3    H235243   5.344   6.791  13.497 -0.5898  0.2863  0.7432
 4610TIP3   OH235244   3.370   1.972   0.337  0.2136  0.1387 -0.5115
 4610TIP3    H135245   3.331   1.908   0.278 -1.9032  0.9070  0.0285
 4610TIP3    H235246   3.408   1.919   0.407  0.2660 -0.6122 -1.0900
 4611TIP3   OH235247   3.569   2.787  14.182 -0.3277 -0.1834 -0.3084
 4611TIP3    H135248   3.638   2.850  14.163 -0.8836  1.0368  1.5815
 4611TIP3    H235249   3.543   2.806  14.272 -0.2801 -3.3288  0.4561
 4612TIP3   OH235250   0.996   2.764  10.334 -0.2311 -0.9579  0.1104
 4612TIP3    H135251   0.952   2.815  10.402  0.0834 -0.2340 -0.2243
 4612TIP3    H235252   1.089   2.779  10.349 -0.1083 -1.9787  0.4265
 4613TIP3   OH235253   6.240   7.171  10.555  0.5851  0.7070  0.0361
 4613TIP3    H135254   6.293   7.203  10.482 -0.3439  0.6615 -0.6693
 4613TIP3    H235255   6.149   7.190  10.529  0.1847 -0.2404  0.7146
 4614TIP3   OH235256   6.036   4.580   0.313  0.2695  0.0241  0.6836
 4614TIP3    H135257   6.052   4.530   0.393 -1.5628  1.0660  1.7334
 4614TIP3    H235258   6.049   4.671   0.340 -1.8582  0.4942  0.2107
 4615TIP3   OH235259   6.169   1.490  11.643  0.8247  0.4159  0.4620
 4615TIP3    H135260   6.121   1.564  11.606  1.2611 -0.2387 -1.4685
 4615TIP3    H235261   6.244   1.530  11.687  1.3281  1.1223 -0.9873
 4616TIP3   OH235262   2.844   4.321  15.622  0.0924  0.2172  0.0387
 4616TIP3    H135263   2.891   4.240  15.604 -0.1535 -0.4762  2.3341
 4616TIP3    H235264   2.894   4.363  15.692 -0.3510  1.5419 -0.4249
 4617TIP3   OH235265   2.814   2.008   0.471  0.0989  0.4894 -0.7760
 4617TIP3    H135266   2.740   2.068   0.481 -1.0567 -0.9380 -0.6683
 4617TIP3    H235267   2.803   1.973   0.383 -0.9771 -1.8432  0.2475
 4618TIP3   OH235268   2.926   3.621  10.641 -0.1635  0.3768  0.0496
 4618TIP3    H135269   2.928   3.527  10.620 -0.2044  0.2702  0.5140
 4618TIP3    H235270   2.991   3.660  10.582 -1.3237  0.3044 -1.3134
 4619TIP3   OH235271   1.639   2.775  13.827 -0.0085  0.4296 -0.0555
 4619TIP3    H135272   1.618   2.707  13.891  0.1763 -0.8444 -1.3100
 4619TIP3    H235273   1.712   2.738  13.777 -1.1051  0.7630 -1.9568
 4620TIP3   OH235274   3.655   0.500  14.480  0.0819  0.0246  0.1211
 4620TIP3    H135275   3.629   0.421  14.528  1.5835 -1.2448 -1.0755
 4620TIP3    H235276   3.701   0.553  14.544  0.8973 -1.0422  0.4372
 4621TIP3   OH235277   4.058   1.585  10.575 -0.4672  0.1552  0.4145
 4621TIP3    H135278   3.987   1.638  10.538 -2.1111 -2.0729  0.2966
 4621TIP3    H235279   4.134   1.605  10.521 -2.5076 -2.0754 -3.4426
 4622TIP3   OH235280   3.458   4.338  12.786 -0.0036 -0.4413  0.2514
 4622TIP3    H135281   3.385   4.398  12.769 -1.0861 -2.4206 -2.5842
 4622TIP3    H235282   3.498   4.371  12.866 -0.9256  3.6941 -0.8483
 4623TIP3   OH235283   6.900   0.430  13.826 -0.1924 -0.1864  0.7500
 4623TIP3    H135284   6.952   0.382  13.890 -0.7169 -0.9265  0.6289
 4623TIP3    H235285   6.906   0.378  13.745  0.3526  0.6665  0.2297
 4624TIP3   OH235286   7.237   1.248  10.150  0.2984  0.6221 -0.2567
 4624TIP3    H135287   7.317   1.285  10.111 -0.1939  0.9669 -0.9614
 4624TIP3    H235288   7.257   1.155  10.162  0.1619  0.3027 -2.1952
 4625TIP3   OH235289   5.567   3.259  13.041  0.0521  0.2589  0.1666
 4625TIP3    H135290   5.567   3.164  13.052  3.2750  0.2621  0.7584
 4625TIP3    H235291   5.486   3.288  13.082  0.7658 -1.9489  3.3211
 4626TIP3   OH235292   6.962   6.463  10.515  0.8635  0.1985 -0.4846
 4626TIP3    H135293   7.049   6.455  10.555 -0.1562  0.8071  1.9134
 4626TIP3    H235294   6.917   6.382  10.540  0.3071  0.4618 -0.6297
 4627TIP3   OH235295   6.141   3.575  15.363 -0.5983 -0.2545 -0.4554
 4627TIP3    H135296   6.145   3.506  15.430 -2.8013 -2.3273 -2.3406
 4627TIP3    H235297   6.189   3.538  15.289 -2.4378 -0.1076 -1.7469
 4628TIP3   OH235298   5.306   4.911  10.249  0.1005 -0.3529 -0.6151
 4628TIP3    H135299   5.248   4.982  10.223 -1.3669 -1.1040  0.5121
 4628TIP3    H235300   5.336   4.871  10.167 -1.8845 -0.6772 -1.1957
 4629TIP3   OH235301   5.227   4.181  14.908  0.7815  0.0766 -0.3228
 4629TIP3    H135302   5.226   4.101  14.855  1.9726  1.5159 -2.6054
 4629TIP3    H235303   5.304   4.171  14.965  0.2621 -0.8976  0.2116
 4630TIP3   OH235304   3.564   2.200   1.314  0.0499 -0.2974 -0.0608
 4630TIP3    H135305   3.636   2.164   1.263  0.4799  1.1475 -0.5071
 4630TIP3    H235306   3.537   2.278   1.265 -0.8052  0.0255  0.9057
 4631TIP3   OH235307   0.444   1.719  13.433  0.5854 -0.2482  0.9386
 4631TIP3    H135308   0.529   1.675  13.431  0.2162 -1.0678  2.3954
 4631TIP3    H235309   0.386   1.656  13.477 -0.9164  0.0540 -0.5524
 4632TIP3   OH235310   7.151   4.193  10.294 -0.0089  0.0492 -0.2321
 4632TIP3    H135311   7.059   4.188  10.319 -0.2403  0.0916 -1.0684
 4632TIP3    H235312   7.159   4.275  10.245  1.0619  1.4584  2.1954
 4633TIP3   OH235313   5.412   2.813  15.106  0.2558 -0.2765  0.6145
 4633TIP3    H135314   5.361   2.738  15.073  0.6875 -0.4772  0.3952
 4633TIP3    H235315   5.442   2.858  15.027 -0.2951  0.3320  0.7480
 4634TIP3   OH235316   7.135   4.978  10.856 -0.0467 -0.1047 -0.3139
 4634TIP3    H135317   7.216   4.952  10.899  0.3039 -0.0204 -0.9219
 4634TIP3    H235318   7.098   4.895  10.823  0.6800  0.0694 -1.5737
 4635TIP3   OH235319   7.080   2.462  10.840  0.4832 -0.8805  0.0032
 4635TIP3    H135320   7.078   2.445  10.934  0.0799 -2.8800 -0.3356
 4635TIP3    H235321   7.173   2.474  10.820  0.3591  2.0795  1.0478
 4636TIP3   OH235322   7.037   3.548  11.547 -0.2540 -0.5892  0.4880
 4636TIP3    H135323   7.004   3.627  11.591  0.5538  0.9091 -1.5255
 4636TIP3    H235324   7.121   3.574  11.510  0.7105 -2.8377  1.0255
 4637TIP3   OH235325   1.430   1.983  12.888 -0.3325  0.1208  0.0002
 4637TIP3    H135326   1.524   1.976  12.871 -0.1690 -0.7582  1.1900
 4637TIP3    H235327   1.400   1.892  12.891 -0.7851  0.3219  1.9783
 4638TIP3   OH235328   5.792   6.975  13.703  0.2708  0.1273  0.2321
 4638TIP3    H135329   5.820   6.978  13.612 -1.1343  2.2587 -0.1614
 4638TIP3    H235330   5.743   6.893  13.710 -1.3723  0.9230 -1.4849
 4639TIP3   OH235331   5.086   3.969  10.664  0.2301 -0.8091  0.9603
 4639TIP3    H135332   5.131   4.004  10.741  0.4087 -1.7627  1.3025
 4639TIP3    H235333   5.105   3.875  10.667 -0.3077 -0.9442  0.1131
 4640TIP3   OH235334   7.010   1.731  13.307  0.2082  0.8166  0.4853
 4640TIP3    H135335   7.065   1.682  13.247  2.3908  2.3281  1.1852
 4640TIP3    H235336   6.950   1.779  13.250 -1.0597 -1.5344 -0.2485
 4641TIP3   OH235337   4.293   6.869  10.532 -0.1766  0.1642  0.8804
 4641TIP3    H135338   4.349   6.877  10.610 -0.3022 -0.4937  1.0400
 4641TIP3    H235339   4.209   6.906  10.560 -0.1192  0.2432  0.9506
 4642TIP3   OH235340   0.956   0.753  13.299  0.2584  0.1469  0.2081
 4642TIP3    H135341   0.976   0.825  13.239  0.6792  0.0097  0.1796
 4642TIP3    H235342   1.015   0.683  13.272 -0.4651 -0.3687 -0.0572
 4643TIP3   OH235343   1.047   0.144  10.856  0.1094  0.1041  0.4013
 4643TIP3    H135344   1.078   0.193  10.932  0.2891 -0.7342  0.8745
 4643TIP3    H235345   1.092   0.184  10.782 -1.6607  2.3191  0.4629
 4644TIP3   OH235346   5.806   0.590  12.309 -0.0355 -0.1239  0.6058
 4644TIP3    H135347   5.822   0.666  12.253 -0.2555  0.7205  1.6785
 4644TIP3    H235348   5.762   0.527  12.252  1.6842 -0.1156 -0.7521
 4645TIP3   OH235349   1.527   4.286  13.672  0.0045 -0.5252  0.1709
 4645TIP3    H135350   1.614   4.289  13.632 -0.6525 -1.2464 -1.3692
 4645TIP3    H235351   1.506   4.193  13.678  0.1549 -0.4276  2.3987
 4646TIP3   OH235352   3.998   2.756  10.702 -0.0379  0.1335 -0.4241
 4646TIP3    H135353   3.924   2.800  10.659  0.0054  0.5149 -0.1095
 4646TIP3    H235354   4.076   2.798  10.665  0.0117  0.1162 -0.3392
 4647TIP3   OH235355   5.828   7.265  12.034  0.0332  0.0928  0.2422
 4647TIP3    H135356   5.823   7.275  12.129  0.1190 -0.8954  0.3594
 4647TIP3    H235357   5.918   7.291  12.012  0.0490  0.2096  0.4526
 4648TIP3   OH235358   4.910   2.655  11.420  0.5835 -0.1980 -0.1298
 4648TIP3    H135359   4.894   2.575  11.471  0.3289 -0.4432 -0.5880
 4648TIP3    H235360   4.864   2.724  11.468  0.1021 -0.4780 -0.1900
 4649TIP3   OH235361   6.612   6.522  10.726  0.0118 -0.1347  0.5046
 4649TIP3    H135362   6.662   6.556  10.652  0.2301  1.6194  1.4280
 4649TIP3    H235363   6.555   6.455  10.688  1.5030 -0.6202 -0.9099
 4650TIP3   OH235364   6.365   3.004  13.859  0.6092 -0.0997 -0.5126
 4650TIP3    H135365   6.317   2.929  13.823 -0.4286  0.8163 -1.0379
 4650TIP3    H235366   6.441   2.964  13.903 -0.2173 -1.5006 -0.3215
 4651TIP3   OH235367   6.801   2.269  13.161  0.5230 -0.1323  0.4096
 4651TIP3    H135368   6.734   2.277  13.093 -1.1886 -0.7410  1.9587
 4651TIP3    H235369   6.855   2.347  13.152 -0.6418  0.5554 -0.6412
 4652TIP3   OH235370   0.200   0.602  13.358  0.2030  0.1280  0.4791
 4652TIP3    H135371   0.147   0.610  13.278 -0.5092 -0.8866  0.8423
 4652TIP3    H235372   0.184   0.684  13.405 -2.6036 -0.9456  1.5067
 4653TIP3   OH235373   4.732   3.950  13.355 -0.2244  0.7190 -0.0628
 4653TIP3    H135374   4.705   3.869  13.399 -0.9318  0.4856 -0.9188
 4653TIP3    H235375   4.824   3.959  13.377  0.0217 -0.6586 -0.4848
 4654TIP3   OH235376   0.797   3.644  12.823  0.2126  0.2576 -0.2036
 4654TIP3    H135377   0.705   3.631  12.846 -0.1285  1.8825 -0.5588
 4654TIP3    H235378   0.839   3.560  12.842 -0.5884  0.6249  3.7071
 4655TIP3   OH235379   3.013   1.000  12.304  0.6219 -0.0412  0.2034
 4655TIP3    H135380   3.044   1.084  12.271  0.6214 -0.0831  0.0981
 4655TIP3    H235381   2.943   0.975  12.245 -0.6978  0.8216  1.3655
 4656TIP3   OH235382   5.399   4.842  10.907 -0.4353  0.7066 -0.2698
 4656TIP3    H135383   5.322   4.853  10.852 -0.5470  2.0730  0.1373
 4656TIP3    H235384   5.383   4.760  10.954 -0.4614 -0.3263 -2.0346
 4657TIP3   OH235385   2.456   4.099   0.459 -0.2722  0.2008 -0.2790
 4657TIP3    H135386   2.404   4.063   0.531  1.7334 -2.5285 -0.1062
 4657TIP3    H235387   2.418   4.060   0.380 -1.0844  1.4748 -0.5301
 4658TIP3   OH235388   5.779   4.233  11.859 -0.7676 -0.1166  0.2150
 4658TIP3    H135389   5.752   4.144  11.883 -1.4841  0.2470  0.7485
 4658TIP3    H235390   5.800   4.275  11.942  0.2833 -0.0137 -0.0943
 4659TIP3   OH235391   6.466   2.073  12.462  0.0283 -0.6891 -0.0393
 4659TIP3    H135392   6.549   2.026  12.470 -0.1852 -1.1051 -0.2409
 4659TIP3    H235393   6.485   2.146  12.403  0.4837 -0.2307  0.6622
 4660TIP3   OH235394   0.270   2.263  10.667  0.4309  0.2893 -0.4163
 4660TIP3    H135395   0.302   2.223  10.587  0.5985 -2.6546  1.0429
 4660TIP3    H235396   0.342   2.320  10.696  0.8650  0.3856 -1.6511
 4661TIP3   OH235397   5.402   2.630  12.147 -0.1837 -0.0243 -0.7270
 4661TIP3    H135398   5.371   2.551  12.191  3.0807 -1.3916 -0.7624
 4661TIP3    H235399   5.340   2.698  12.175 -1.4826 -2.0005  1.4521
 4662TIP3   OH235400   0.288   5.186  10.424  0.0617  0.0644 -0.1716
 4662TIP3    H135401   0.381   5.202  10.437  0.2444  1.0489 -2.5010
 4662TIP3    H235402   0.284   5.099  10.383 -0.2131 -0.9886  2.0350
 4663TIP3   OH235403   5.754   3.735  12.039  0.2518  0.2252 -0.0043
 4663TIP3    H135404   5.734   3.774  12.124  1.3694 -0.8018  0.7408
 4663TIP3    H235405   5.678   3.681  12.018  0.2174  0.0393  0.6019
 4664TIP3   OH235406   4.890   2.175  11.594  0.3543  0.2332  0.2349
 4664TIP3    H135407   4.979   2.140  11.591  0.3450  0.2962 -1.0091
 4664TIP3    H235408   4.834   2.098  11.588  0.3201  0.1850  1.1285
 4665TIP3   OH235409   5.547   2.832  10.836  0.2647  0.1873  0.1781
 4665TIP3    H135410   5.541   2.928  10.841  1.1861  0.2240  0.5873
 4665TIP3    H235411   5.484   2.808  10.767  0.7420  1.1650 -0.6109
 4666TIP3   OH235412   4.538   4.883  10.847 -0.3221 -0.3455  0.5886
 4666TIP3    H135413   4.617   4.935  10.864 -0.2134 -0.3675  0.1773
 4666TIP3    H235414   4.529   4.827  10.923  0.4123 -0.7821  0.3679
 4667TIP3   OH235415   0.754   4.354  12.948  0.7449  0.0189 -0.3676
 4667TIP3    H135416   0.704   4.428  12.913  0.7310  0.1738 -0.0226
 4667TIP3    H235417   0.688   4.298  12.988  0.9294  0.6240  0.8037
 4668TIP3   OH235418   7.161   0.571  15.012 -0.1769  0.3070 -0.4279
 4668TIP3    H135419   7.088   0.568  15.075 -0.0960 -0.9486 -0.3709
 4668TIP3    H235420   7.213   0.647  15.039 -0.0643 -0.3006  1.1407
 4669TIP3   OH235421   3.572   3.864  10.851  0.1555 -0.6159 -0.4093
 4669TIP3    H135422   3.530   3.945  10.881  1.4765 -0.5275  1.2269
 4669TIP3    H235423   3.583   3.812  10.930  0.7243 -1.7640 -1.2353
 4670TIP3   OH235424   0.259   7.058  10.232  0.1175 -0.0241 -0.6792
 4670TIP3    H135425   0.269   7.153  10.228 -0.5920 -0.0104 -2.7383
 4670TIP3    H235426   0.298   7.033  10.316 -0.6819  2.1914  0.3841
 4671TIP3   OH235427   7.204   5.046  14.521 -0.3836 -0.1728  0.3062
 4671TIP3    H135428   7.147   5.022  14.594 -0.8190  0.9677  0.3413
 4671TIP3    H235429   7.217   4.963  14.473 -2.5190 -0.3533 -0.0244
 4672TIP3   OH235430   5.813   4.780  14.744  0.3018 -0.1166 -0.0262
 4672TIP3    H135431   5.781   4.811  14.659  1.7756 -1.0871 -0.9416
 4672TIP3    H235432   5.908   4.789  14.740  0.4758 -1.2485  1.0951
 4673TIP3   OH235433   5.397   2.984  12.751  0.1125 -0.5268 -0.1616
 4673TIP3    H135434   5.367   2.931  12.676  0.6886 -0.8291 -0.1871
 4673TIP3    H235435   5.325   2.981  12.813 -0.6795  0.3528 -1.0263
 4674TIP3   OH235436   5.732   3.121  10.174  0.0928 -1.0097  0.7178
 4674TIP3    H135437   5.746   3.201  10.224 -1.8541 -0.4094  0.3309
 4674TIP3    H235438   5.818   3.098  10.140  0.3651  1.8475 -0.5680
 4675TIP3   OH235439   0.086   3.362  14.143  0.3082  0.1917  1.0755
 4675TIP3    H135440   0.111   3.432  14.203 -0.6570 -0.2497  1.9939
 4675TIP3    H235441   0.022   3.401  14.084  1.9040  0.8749 -0.2665
 4676TIP3   OH235442   0.413   2.176  15.913  0.1785  0.4967 -0.2670
 4676TIP3    H135443   0.370   2.099  15.875 -1.4062  1.3848 -0.3354
 4676TIP3    H235444   0.449   2.224  15.839 -0.0137  0.5082 -0.3537
 4677TIP3   OH235445   4.970   3.494  14.163  0.3821 -0.5432 -0.0659
 4677TIP3    H135446   5.036   3.518  14.227 -1.0172  2.3874  0.3437
 4677TIP3    H235447   4.919   3.425  14.206  0.0963  0.6792  1.5779
 4678TIP3   OH235448   5.687   2.714  14.260  0.8172  0.0223  0.4291
 4678TIP3    H135449   5.773   2.737  14.227  0.5121  1.3418  0.5098
 4678TIP3    H235450   5.684   2.618  14.258  2.0947 -0.0060 -0.0231
 4679TIP3   OH235451   0.755   4.413  12.258 -0.0405 -0.5469  0.1692
 4679TIP3    H135452   0.691   4.400  12.188 -0.3447 -0.5033  0.4356
 4679TIP3    H235453   0.747   4.506  12.280  0.4576 -0.4364 -0.1285
 4680TIP3   OH235454   0.976   3.864   0.886 -0.2627  0.0130 -0.1904
 4680TIP3    H135455   0.931   3.948   0.877 -1.6130 -0.3105  2.8124
 4680TIP3    H235456   1.069   3.886   0.873 -0.6600  1.8789 -0.0606
 4681TIP3   OH235457   6.853   0.475  13.265 -0.3089 -0.0001 -0.2670
 4681TIP3    H135458   6.800   0.450  13.341  0.6242 -0.9495  0.0818
 4681TIP3    H235459   6.854   0.398  13.209  2.9180 -0.9764  1.0087
 4682TIP3   OH235460   3.439   3.530  11.486  0.2584  0.2046  0.2091
 4682TIP3    H135461   3.529   3.500  11.495  0.1122 -0.3196 -0.0675
 4682TIP3    H235462   3.400   3.472  11.421 -0.3415  0.2943  0.4791
 4683TIP3   OH235463   6.942   0.019  13.793  0.1722  0.1127 -0.0781
 4683TIP3    H135464   6.977  -0.064  13.825 -1.0568  0.0033  1.0185
 4683TIP3    H235465   6.988   0.086  13.845 -0.5553  0.0130  0.6925
 4684TIP3   OH235466   1.536   1.043  13.701 -0.1259 -0.1386  0.0309
 4684TIP3    H135467   1.602   1.068  13.766  0.1052 -0.5173 -0.0533
 4684TIP3    H235468   1.570   0.961  13.664  0.0230  0.3760 -0.9759
 4685TIP3   OH235469   6.921   1.146  13.297 -0.0949  0.3552 -0.7525
 4685TIP3    H135470   6.901   1.239  13.282  2.7795  1.4139  1.4775
 4685TIP3    H235471   6.836   1.104  13.301 -1.4424  2.7646 -2.6039
 4686TIP3   OH235472   0.616   6.136  11.859  0.2168 -0.3791 -0.1399
 4686TIP3    H135473   0.648   6.132  11.769  2.5761 -0.4029  0.6665
 4686TIP3    H235474   0.695   6.133  11.913 -1.1409 -0.0604  1.9322
 4687TIP3   OH235475   7.237   3.937  10.394 -0.8006  0.6012 -0.3576
 4687TIP3    H135476   7.162   3.913  10.448  0.4468 -0.1275  1.0807
 4687TIP3    H235477   7.221   4.029  10.371 -0.2740  1.6412  3.1423
 4688TIP3   OH235478   5.647   5.294  14.808  0.0809  0.0036  0.5814
 4688TIP3    H135479   5.674   5.211  14.847 -0.4283 -0.7034 -0.5533
 4688TIP3    H235480   5.703   5.305  14.731 -1.3720 -0.4260 -0.5641
 4689TIP3   OH235481   4.333   2.456  10.285  0.2646  0.0785  0.4212
 4689TIP3    H135482   4.382   2.443  10.204  1.2451  1.8724  0.6969
 4689TIP3    H235483   4.358   2.383  10.342  0.4339 -0.5614 -0.4700
 4690TIP3   OH235484   5.117   6.413  12.865 -0.5321  0.0548  0.0375
 4690TIP3    H135485   5.084   6.472  12.932 -0.0791  1.4631 -0.9654
 4690TIP3    H235486   5.098   6.457  12.782 -0.7334 -1.4837 -0.7483
 4691TIP3   OH235487   0.558   2.335  10.720  0.4932  0.2336  0.2635
 4691TIP3    H135488   0.637   2.326  10.667 -0.4842  0.1053 -1.1811
 4691TIP3    H235489   0.555   2.254  10.772  0.2437 -0.6644 -1.1338
 4692TIP3   OH235490   3.772   0.932  11.835 -0.1375 -0.2817  0.3171
 4692TIP3    H135491   3.682   0.954  11.862  0.9122  2.4968  1.7578
 4692TIP3    H235492   3.770   0.937  11.740 -1.2656  0.9643  0.3859
 4693TIP3   OH235493   4.489   6.603  12.057  0.0394  0.0220 -0.2213
 4693TIP3    H135494   4.456   6.692  12.043  2.3503  0.8923 -0.2990
 4693TIP3    H235495   4.518   6.603  12.149  0.6457 -0.4398 -0.4135
 4694TIP3   OH235496   6.527   2.834  12.918  0.4414 -0.2963  0.1018
 4694TIP3    H135497   6.584   2.809  12.991  0.7113  2.5717  0.9586
 4694TIP3    H235498   6.449   2.869  12.959 -0.4646 -0.9385 -1.0408
 4695TIP3   OH235499   2.892   1.181  10.682 -0.1537  0.0214 -0.3843
 4695TIP3    H135500   2.944   1.130  10.620 -1.2009  0.4969 -1.6706
 4695TIP3    H235501   2.822   1.220  10.629 -0.3425  1.4387  0.8762
 4696TIP3   OH235502   7.254   1.912  15.611  0.1126 -0.1886 -0.5585
 4696TIP3    H135503   7.248   1.899  15.517 -0.0456  0.4651 -0.6376
 4696TIP3    H235504   7.271   1.824  15.646 -2.3349 -0.8605 -0.9767
 4697TIP3   OH235505   0.741   0.175  13.540 -0.0907 -0.0493 -0.2677
 4697TIP3    H135506   0.735   0.088  13.579  0.5931 -0.5293 -1.2114
 4697TIP3    H235507   0.651   0.201  13.523 -0.2570 -0.8613 -0.6145
 4698TIP3   OH235508   1.709   2.559   1.144  0.5009  0.1580 -0.0864
 4698TIP3    H135509   1.739   2.569   1.234  0.1381 -1.9574  0.3191
 4698TIP3    H235510   1.774   2.502   1.103 -0.0922 -0.0652 -0.7385
 4699TIP3   OH235511   6.742   1.975  12.467 -0.5905  0.1139  0.0575
 4699TIP3    H135512   6.805   1.965  12.395 -1.6832  0.8311 -1.0151
 4699TIP3    H235513   6.745   1.892  12.513  0.6790 -0.0908 -0.3710
 4700TIP3   OH235514   1.057   1.565  11.214 -0.3028 -0.6953 -0.7933
 4700TIP3    H135515   1.123   1.498  11.231  1.1298  0.6878 -0.7699
 4700TIP3    H235516   1.031   1.595  11.302 -1.5452 -1.7719 -0.7808
 4701TIP3   OH235517   4.300   0.241  10.696  0.1972 -0.3643  0.0428
 4701TIP3    H135518   4.218   0.286  10.716 -0.3550 -1.8364  1.1949
 4701TIP3    H235519   4.312   0.254  10.602 -1.2076  0.1081 -0.0864
 4702TIP3   OH235520   6.412   4.152  10.889 -0.2263 -0.0468 -0.1338
 4702TIP3    H135521   6.343   4.135  10.953 -0.8904 -0.5200 -0.9695
 4702TIP3    H235522   6.474   4.081  10.900  0.3426  0.6117  0.9123
 4703TIP3   OH235523   3.170   5.527  11.819  0.3328  0.2856  0.1607
 4703TIP3    H135524   3.118   5.564  11.889 -1.5046  0.1430 -1.1019
 4703TIP3    H235525   3.237   5.593  11.801 -1.9191  2.3439 -0.9758
 4704TIP3   OH235526   5.127   6.007  10.387  0.3430 -0.1522  0.2664
 4704TIP3    H135527   5.173   5.960  10.317  0.0559  0.5434 -0.3979
 4704TIP3    H235528   5.177   6.088  10.398 -1.5291  1.3189 -1.5021
 4705TIP3   OH235529   6.405   1.767  10.498 -0.5196  0.2680  0.1358
 4705TIP3    H135530   6.373   1.804  10.416 -1.0859  0.5017  0.4579
 4705TIP3    H235531   6.457   1.691  10.472  2.1074  2.2689 -0.6557
 4706TIP3   OH235532   0.241   2.348  13.238 -0.0367 -0.1712  0.0655
 4706TIP3    H135533   0.318   2.291  13.237 -0.8740 -1.2988 -0.2103
 4706TIP3    H235534   0.200   2.334  13.153 -0.9877 -0.1643  0.5211
 4707TIP3   OH235535   3.593   2.816  11.254 -0.2969  0.3037 -0.3670
 4707TIP3    H135536   3.639   2.745  11.210  1.5652  1.3735 -0.2373
 4707TIP3    H235537   3.658   2.886  11.260 -1.5184  1.3537  1.1374
 4708TIP3   OH235538   0.756   3.834  10.945 -0.0677  0.0631 -0.4228
 4708TIP3    H135539   0.819   3.901  10.920  0.5781  0.6217  2.6110
 4708TIP3    H235540   0.677   3.884  10.969  0.2816 -0.2743  1.4439
 4709TIP3   OH235541   0.361   1.394   0.714 -0.1773 -0.0525  0.2757
 4709TIP3    H135542   0.276   1.351   0.721 -0.2461 -0.0473 -0.5768
 4709TIP3    H235543   0.424   1.323   0.700  0.1866 -0.2250  2.5173
 4710TIP3   OH235544   5.126   4.099  10.415  0.2639 -0.4490  0.1545
 4710TIP3    H135545   5.138   4.067  10.504  0.9884  1.5792  0.8140
 4710TIP3    H235546   5.208   4.078  10.370  0.4971 -0.1175  0.4162
 4711TIP3   OH235547   5.703   4.319  12.393 -0.3428 -0.4038  0.3763
 4711TIP3    H135548   5.722   4.322  12.487  0.1455 -1.4874  0.3272
 4711TIP3    H235549   5.700   4.410  12.366 -0.3626 -0.0849  1.4242
 4712TIP3   OH235550   0.893   4.022  14.004 -0.4785  0.3054  0.3240
 4712TIP3    H135551   0.812   3.991  14.045 -0.4044  0.6574  0.7438
 4712TIP3    H235552   0.963   3.993  14.062 -0.5486  3.0119  1.8455
 4713TIP3   OH235553   2.001   4.432  12.330 -0.0969 -0.0074 -0.1412
 4713TIP3    H135554   1.911   4.456  12.312 -1.0904 -2.5884  1.0265
 4713TIP3    H235555   2.029   4.492  12.399 -0.5174  1.5555 -1.3148
 4714TIP3   OH235556   0.664   1.005   9.995 -0.1587 -0.5232  0.4532
 4714TIP3    H135557   0.626   1.060   9.927 -1.1218 -0.2531  1.1909
 4714TIP3    H235558   0.729   0.951   9.950 -1.3651 -0.9277 -0.8285
 4715TIP3   OH235559   0.924   1.880  10.532 -0.2396  0.5250 -0.3381
 4715TIP3    H135560   1.015   1.851  10.532  0.3884  2.4031 -0.0092
 4715TIP3    H235561   0.884   1.836  10.457  0.7078 -0.9945  0.0384
 4716TIP3   OH235562   6.414   3.923  10.242 -0.2756 -0.7034 -0.3950
 4716TIP3    H135563   6.356   3.998  10.252 -0.3110 -0.8664  0.7195
 4716TIP3    H235564   6.370   3.868  10.177 -0.3691  0.1127 -1.0379
 4717TIP3   OH235565   6.202   2.920  14.928  0.4828  0.2120 -0.3128
 4717TIP3    H135566   6.224   2.935  15.020  0.5449  0.0871 -0.3073
 4717TIP3    H235567   6.243   2.994  14.882  0.2849  0.3813 -0.2183
 4718TIP3   OH235568   1.226   0.560   0.279 -0.4257 -0.6309  0.1836
 4718TIP3    H135569   1.166   0.619   0.323 -0.1147  0.2218 -0.5270
 4718TIP3    H235570   1.204   0.567   0.186  0.5221 -0.5768 -0.0482
 4719TIP3   OH235571   0.354   6.642  11.814  0.1826 -0.2417  0.3293
 4719TIP3    H135572   0.353   6.676  11.724 -3.2791  0.6037  0.6107
 4719TIP3    H235573   0.313   6.556  11.807  0.3826 -0.3932  1.0304
 4720TIP3   OH235574   6.328   2.563  12.360  0.2001 -0.1738 -0.3363
 4720TIP3    H135575   6.248   2.587  12.311  1.1196  0.3165 -1.6358
 4720TIP3    H235576   6.311   2.475  12.392 -1.2882  0.3246  0.3003
 4721TIP3   OH235577   1.686   4.111  10.468 -0.0897 -0.0267 -0.1590
 4721TIP3    H135578   1.696   4.058  10.547  0.2176  0.4549  0.1261
 4721TIP3    H235579   1.721   4.197  10.491 -1.7673  0.6973 -0.1985
 4722TIP3   OH235580   2.133   2.469  13.978 -0.7417 -0.5529 -0.2736
 4722TIP3    H135581   2.118   2.501  14.067  0.2353 -3.1804  0.8968
 4722TIP3    H235582   2.228   2.465  13.969 -0.8357 -1.7066 -0.8866
 4723TIP3   OH235583   5.108   5.024  13.869 -0.2535  0.2010 -0.3781
 4723TIP3    H135584   5.024   5.005  13.910 -0.1469  0.8607  0.1493
 4723TIP3    H235585   5.130   4.944  13.821  0.5192 -1.3130  2.3696
 4724TIP3   OH235586   2.834   4.051  14.579 -0.0520  0.4266  0.1727
 4724TIP3    H135587   2.795   4.091  14.656  1.2327  3.4880 -0.6949
 4724TIP3    H235588   2.760   4.030  14.522 -0.7787  1.3403  0.7675
 4725TIP3   OH235589   3.435   1.137  13.009 -0.3377  0.1630  0.0226
 4725TIP3    H135590   3.399   1.056  13.045  2.6471 -1.6655 -0.9508
 4725TIP3    H235591   3.389   1.207  13.056 -4.2447 -2.0213 -0.3663
 4726TIP3   OH235592   4.185   2.614  12.320 -0.1475  0.1725  0.0963
 4726TIP3    H135593   4.217   2.530  12.287  0.7292  0.6544 -0.3024
 4726TIP3    H235594   4.089   2.606  12.319 -0.0490 -1.3432  1.4676
 4727TIP3   OH235595   4.736   6.969  13.227 -0.1606  0.2678  0.0256
 4727TIP3    H135596   4.793   6.913  13.173 -0.3908  0.1963 -0.1454
 4727TIP3    H235597   4.665   6.911  13.255 -0.3778  0.4625 -0.1175
 4728TIP3   OH235598   1.336   4.166  14.426 -0.3443 -0.0821  0.7487
 4728TIP3    H135599   1.426   4.158  14.456  0.5959  1.1793 -1.5195
 4728TIP3    H235600   1.318   4.084  14.380 -0.5848 -0.6114  1.7969
 4729TIP3   OH235601   0.980   1.762  12.942  0.2527  0.6083 -0.1364
 4729TIP3    H135602   0.933   1.835  12.982 -1.5246 -0.3166 -0.4692
 4729TIP3    H235603   0.923   1.732  12.871  1.8132  0.0808 -1.2020
 4730TIP3   OH235604   6.854   2.780  10.347 -0.0797  0.2868  0.0714
 4730TIP3    H135605   6.860   2.772  10.252  0.9889 -0.6278  0.2071
 4730TIP3    H235606   6.943   2.801  10.375 -0.1569 -0.5380  0.9647
 4731TIP3   OH235607   5.771   1.397  10.914  0.3058  0.5870  0.9258
 4731TIP3    H135608   5.861   1.428  10.901  0.2421  0.3222 -0.1725
 4731TIP3    H235609   5.721   1.437  10.843 -0.6218  1.4187  2.0169
 4732TIP3   OH235610   0.682   2.371  12.810 -0.4018  0.2944 -0.2440
 4732TIP3    H135611   0.597   2.385  12.767 -1.1793  1.1189  1.5045
 4732TIP3    H235612   0.697   2.452  12.858  1.7611  0.4492 -1.1356
 4733TIP3   OH235613   0.234   6.998  12.055 -0.1056  0.1326 -0.3708
 4733TIP3    H135614   0.291   6.980  12.129  0.8223  1.2193 -0.8003
 4733TIP3    H235615   0.169   7.060  12.088  0.7057  1.1348 -0.6198
 4734TIP3   OH235616   3.870   2.562  13.036 -0.5755 -0.5641  0.0689
 4734TIP3    H135617   3.814   2.496  12.995 -0.5368 -1.0537  0.8005
 4734TIP3    H235618   3.879   2.533  13.126  1.0359 -0.6031 -0.0922
 4735TIP3   OH235619   5.090   2.903  10.939  0.2244  0.3515 -0.3834
 4735TIP3    H135620   5.137   2.972  10.892  1.4838 -1.3410 -1.6745
 4735TIP3    H235621   5.044   2.854  10.870 -1.3528  0.4123  0.6069
 4736TIP3   OH235622   2.158   2.771  11.969  0.1108  0.3458  0.8662
 4736TIP3    H135623   2.244   2.743  11.937  0.4279  2.0092  0.2331
 4736TIP3    H235624   2.128   2.698  12.024  1.2968 -0.8587 -0.0433
 4737TIP3   OH235625   6.515   1.661  14.695  0.4254  0.1147 -0.4064
 4737TIP3    H135626   6.602   1.664  14.654 -0.3641  1.0521 -2.0622
 4737TIP3    H235627   6.492   1.568  14.697  0.6449  0.0295 -1.7514
 4738TIP3   OH235628   7.241   4.521  12.861 -0.0487  0.3037 -0.2533
 4738TIP3    H135629   7.207   4.452  12.804  1.1213 -0.3069 -0.2118
 4738TIP3    H235630   7.162   4.560  12.900 -0.7372 -0.6944 -0.6227
 4739TIP3   OH235631   2.662   4.154  10.676  0.1503 -0.0930  0.0247
 4739TIP3    H135632   2.596   4.093  10.644 -0.0212 -0.8317  1.6983
 4739TIP3    H235633   2.660   4.227  10.614 -2.5638  0.1051  0.2925
 4740TIP3   OH235634   5.461   6.904  11.999 -0.8555  0.4056  0.1969
 4740TIP3    H135635   5.459   6.998  11.980 -0.9423  0.7061  1.6407
 4740TIP3    H235636   5.554   6.883  12.006 -0.8219  0.2898 -0.5198
 4741TIP3   OH235637   5.358   2.029  13.500 -0.3644  0.4675 -0.5406
 4741TIP3    H135638   5.384   2.028  13.408  1.1390 -1.0750 -0.1238
 4741TIP3    H235639   5.401   2.107  13.536  0.3886  0.1795 -0.7933
 4742TIP3   OH235640   7.065   1.769  12.847  0.2427  0.1900 -0.4970
 4742TIP3    H135641   7.035   1.714  12.776 -1.7648 -0.8546  1.1177
 4742TIP3    H235642   7.044   1.858  12.820 -0.7437 -0.2259 -1.0824
 4743TIP3   OH235643   1.830   6.913  11.895  0.3740  0.0223 -0.1311
 4743TIP3    H135644   1.753   6.886  11.944 -0.0849 -0.6500 -1.2066
 4743TIP3    H235645   1.875   6.832  11.873  0.0664  0.2500 -1.6326
 4744TIP3   OH235646   6.605   2.935  14.012  0.0121 -0.4187 -0.3318
 4744TIP3    H135647   6.689   2.947  14.055  0.9007  0.6077 -2.3085
 4744TIP3    H235648   6.567   2.858  14.055  1.1282  0.1814  1.8151
 4745TIP3   OH235649   6.460   3.190  12.917  0.0526 -0.3982 -0.1359
 4745TIP3    H135650   6.475   3.268  12.970 -1.1275  0.2441 -0.7290
 4745TIP3    H235651   6.545   3.172  12.877  0.2891  0.7121 -0.1645
 4746TIP3   OH235652   6.752   3.325  12.028 -0.4364  0.2244 -0.2357
 4746TIP3    H135653   6.795   3.390  12.084  0.3356 -0.8380  0.4391
 4746TIP3    H235654   6.788   3.341  11.941  0.2651  0.2896  0.0584
 4747TIP3   OH235655   6.231   5.004  10.339 -0.5245  0.3895  0.1043
 4747TIP3    H135656   6.200   5.017  10.250 -2.1756  0.9335  0.7277
 4747TIP3    H235657   6.298   5.072  10.351  1.7810 -1.5031 -1.6191
 4748TIP3   OH235658   2.317   3.041  13.228  0.1677  0.3811 -0.4556
 4748TIP3    H135659   2.348   3.130  13.248  0.6875  0.1165 -0.0695
 4748TIP3    H235660   2.237   3.031  13.279  0.9291  0.0838  0.7065
 4749TIP3   OH235661   0.605   4.017  11.207  0.0184 -0.1388 -0.0198
 4749TIP3    H135662   0.575   3.927  11.218 -0.4974 -0.0015 -0.2817
 4749TIP3    H235663   0.535   4.071  11.243  0.8148  0.1372  1.1736
 4750TIP3   OH235664   4.917   3.551  12.062  0.3001 -0.0986 -0.6441
 4750TIP3    H135665   4.979   3.486  12.027  0.4450 -0.7591  0.8365
 4750TIP3    H235666   4.886   3.513  12.144 -0.6126  1.1142 -0.4270
 4751TIP3   OH235667   6.939   3.266  13.006  0.8045  0.6446 -0.4978
 4751TIP3    H135668   7.020   3.217  13.023 -0.6700 -2.1432 -1.2116
 4751TIP3    H235669   6.896   3.271  13.091  0.4797 -0.2146 -0.6055
 4752TIP3   OH235670   6.478   2.328  12.715  0.1888 -0.0969 -0.2672
 4752TIP3    H135671   6.439   2.413  12.693 -0.9377 -0.3803  0.5875
 4752TIP3    H235672   6.417   2.264  12.678 -1.0386 -0.5612  2.4097
 4753TIP3   OH235673   3.518   4.060  14.993 -0.4800  0.3704  0.0249
 4753TIP3    H135674   3.480   3.982  14.952 -2.2937  0.6597  1.0706
 4753TIP3    H235675   3.518   4.040  15.087 -0.1773  1.2898  0.2256
 4754TIP3   OH235676   6.939   3.714  11.934  0.4201  0.9061 -0.3507
 4754TIP3    H135677   7.027   3.684  11.912 -0.0193 -0.1747 -0.6639
 4754TIP3    H235678   6.912   3.766  11.859 -0.4195 -1.3755 -1.6694
 4755TIP3   OH235679   5.569   3.201  12.712  0.0055 -0.4328  0.1404
 4755TIP3    H135680   5.582   3.164  12.625  0.2413 -2.2417  0.9035
 4755TIP3    H235681   5.522   3.132  12.760  2.8809 -0.9175  2.4304
 4756TIP3   OH235682   0.066   3.593  15.414 -0.1000 -0.1970  0.0052
 4756TIP3    H135683   0.056   3.655  15.487 -0.8833  1.3685 -1.3867
 4756TIP3    H235684   0.067   3.507  15.455  1.1742  0.7358  2.0210
 4757TIP3   OH235685   0.132   4.818  15.322  0.6594 -0.1788 -0.3361
 4757TIP3    H135686   0.101   4.749  15.264 -0.8302  0.0448  0.1442
 4757TIP3    H235687   0.068   4.889  15.311  0.7743  0.1495  0.9981
 4758TIP3   OH235688   1.600   5.228  13.297 -0.4233  0.3921 -0.1098
 4758TIP3    H135689   1.530   5.212  13.361 -0.3907 -0.9963 -0.3998
 4758TIP3    H235690   1.675   5.180  13.331  0.7552  2.8070  0.7789
 4759TIP3   OH235691   7.241   3.247  12.975 -0.7357  0.5564  0.1902
 4759TIP3    H135692   7.240   3.153  12.995 -1.6381  0.7750  1.2429
 4759TIP3    H235693   7.331   3.275  12.994 -0.6943  0.0731  0.7312
 4760TIP3   OH235694   4.332   0.400  15.228 -0.3410  0.0408  0.0887
 4760TIP3    H135695   4.388   0.330  15.195 -1.0850 -1.1836  1.3399
 4760TIP3    H235696   4.383   0.439  15.299  0.2747  1.0870 -0.9339
 4761TIP3   OH235697   1.341   2.382  12.025 -0.0132  0.4990 -0.7032
 4761TIP3    H135698   1.290   2.312  11.986  0.0994  0.5365 -0.9165
 4761TIP3    H235699   1.298   2.399  12.109  0.5216 -0.4643 -0.2319
 4762TIP3   OH235700   0.128   2.344  13.772  0.1626  0.2124 -0.1365
 4762TIP3    H135701   0.091   2.400  13.704  0.4359  0.3577 -0.1641
 4762TIP3    H235702   0.211   2.386  13.795 -0.2426  0.5189  0.7531
 4763TIP3   OH235703   1.661   1.470  13.976  0.8143  0.0197  0.4355
 4763TIP3    H135704   1.613   1.542  13.936  0.1554 -0.0731  1.0639
 4763TIP3    H235705   1.712   1.511  14.046 -0.2489 -0.2511  1.3814
 4764TIP3   OH235706   1.075   4.229  14.444 -0.2747  0.1698  0.2149
 4764TIP3    H135707   1.170   4.234  14.435 -0.4878  2.0670 -1.2363
 4764TIP3    H235708   1.053   4.139  14.421  1.2038 -0.4014  0.9786
 4765TIP3   OH235709   4.385   1.208  12.520 -0.1980  0.5204 -1.1793
 4765TIP3    H135710   4.362   1.298  12.496 -0.6853  1.4296  2.5001
 4765TIP3    H235711   4.472   1.195  12.481  0.3038  2.9150 -0.9472
 4766TIP3   OH235712   0.169   4.012  14.244  0.3228  0.5493 -0.0917
 4766TIP3    H135713   0.126   3.965  14.317 -0.9372 -0.6082 -1.5370
 4766TIP3    H235714   0.108   4.081  14.221  0.1294  0.1339 -0.8562
 4767TIP3   OH235715   6.804   4.052  14.783 -0.0880 -0.4386 -0.1041
 4767TIP3    H135716   6.801   3.959  14.763 -0.7076 -0.5023  0.3006
 4767TIP3    H235717   6.894   4.068  14.811 -0.1535 -1.0298  0.4270
 4768TIP3   OH235718   5.314   1.139  13.610  0.2391  0.1452 -0.1041
 4768TIP3    H135719   5.288   1.161  13.520 -2.3233 -2.7305 -0.1342
 4768TIP3    H235720   5.286   1.214  13.662 -2.5274 -0.1630 -1.0685
 4769TIP3   OH235721   5.434   6.351  12.358 -0.0627 -0.6524 -0.1556
 4769TIP3    H135722   5.497   6.314  12.420 -1.0044 -2.0390 -0.0138
 4769TIP3    H235723   5.475   6.338  12.273  1.0203  0.8316  0.1195
 4770TIP3   OH235724   6.306   0.232  14.559  0.2969  0.5295  0.6567
 4770TIP3    H135725   6.381   0.291  14.566 -0.8034  1.8495  1.5949
 4770TIP3    H235726   6.344   0.144  14.558  1.8721  1.1996  0.7235
 4771TIP3   OH235727   5.306   5.378   0.152 -0.2997  0.2094 -0.1032
 4771TIP3    H135728   5.347   5.425   0.079  0.3223 -1.0416 -0.5618
 4771TIP3    H235729   5.292   5.289   0.119 -0.9468 -0.0985  0.9597
 4772TIP3   OH235730   6.698   5.288  13.537 -0.1684 -0.2935  0.2615
 4772TIP3    H135731   6.774   5.343  13.552 -0.0109 -0.1808 -0.8773
 4772TIP3    H235732   6.727   5.200  13.559 -0.2887  0.0053  1.6661
 4773TIP3   OH235733   4.869   1.479  12.002  0.7349  0.0928  0.2822
 4773TIP3    H135734   4.827   1.434  11.928  0.2112  2.1215 -0.6840
 4773TIP3    H235735   4.942   1.527  11.963 -0.1982  2.0557  0.8802
 4774TIP3   OH235736   7.225   2.096  10.930 -0.4263 -0.6431 -0.1193
 4774TIP3    H135737   7.248   2.105  10.837  0.8604  2.2805  0.4258
 4774TIP3    H235738   7.135   2.062  10.929 -0.9411  0.6525 -2.4731
 4775TIP3   OH235739   4.825   3.786  12.816  0.0533  0.2197 -0.4951
 4775TIP3    H135740   4.862   3.698  12.828  0.1306  0.4390  0.9552
 4775TIP3    H235741   4.749   3.788  12.873 -0.0822  1.0182 -0.6957
 4776TIP3   OH235742   1.025   6.300  13.065 -0.4087  0.5445  0.2035
 4776TIP3    H135743   0.973   6.379  13.077 -0.6373  0.2041  1.4974
 4776TIP3    H235744   0.960   6.230  13.055 -0.2076  0.4424 -0.3898
 4777TIP3   OH235745   5.062   7.166  13.494  0.1586 -0.2510  0.3222
 4777TIP3    H135746   5.062   7.207  13.581  1.0876  1.0409 -0.2701
 4777TIP3    H235747   4.991   7.209  13.446  0.6671  0.1583 -0.0679
 4778TIP3   OH235748   5.781   0.872  10.980  0.2686 -0.0857  0.3231
 4778TIP3    H135749   5.826   0.956  10.989  1.2490 -0.5010 -0.5427
 4778TIP3    H235750   5.720   0.885  10.908 -1.5866  0.7105  1.9950
 4779TIP3   OH235751   2.517   0.998  12.367 -0.2733  0.4496 -0.6684
 4779TIP3    H135752   2.442   0.940  12.358 -0.4511  0.6029 -0.1992
 4779TIP3    H235753   2.503   1.066  12.302 -0.3613  0.2891 -0.8213
 4780TIP3   OH235754   0.235   1.078  12.740  0.2828 -0.0200  0.0683
 4780TIP3    H135755   0.187   1.128  12.807 -2.1122 -1.1784 -0.7273
 4780TIP3    H235756   0.274   1.005  12.788  0.5970  0.4827  0.5913
 4781TIP3   OH235757   7.186   3.671  13.438 -0.2295  0.2477 -0.0150
 4781TIP3    H135758   7.173   3.606  13.369  0.0523  0.4783 -0.2925
 4781TIP3    H235759   7.137   3.748  13.407 -0.3105  0.2654  0.1613
 4782TIP3   OH235760   6.558   1.567  10.408  0.0099 -0.0839 -0.4340
 4782TIP3    H135761   6.548   1.498  10.342 -1.4993 -0.9769  0.6858
 4782TIP3    H235762   6.629   1.536  10.464  0.8894  0.3915 -1.2717
 4783TIP3   OH235763   0.761   1.824  13.596  0.2207  0.5118 -0.2053
 4783TIP3    H135764   0.775   1.730  13.593  0.5551  0.5888 -1.4787
 4783TIP3    H235765   0.701   1.838  13.669 -2.5682 -1.0310 -2.0904
 4784TIP3   OH235766   0.282   6.009  13.212 -0.4424 -0.2710  0.0809
 4784TIP3    H135767   0.217   5.998  13.144  0.0678 -0.0484 -0.4489
 4784TIP3    H235768   0.348   5.943  13.193 -0.4672 -0.4334  0.5566
 4785TIP3   OH235769   5.443   1.433  13.520  0.4008 -0.6093  0.6606
 4785TIP3    H135770   5.493   1.372  13.465 -0.0613 -0.3069 -0.1034
 4785TIP3    H235771   5.358   1.439  13.477  0.7422  1.2654  0.2076
 4786TIP3   OH235772   1.947   3.690  13.146  0.2984  0.1200  0.0965
 4786TIP3    H135773   1.928   3.606  13.103 -2.1559 -0.3787  2.0299
 4786TIP3    H235774   1.906   3.756  13.091  0.5095 -0.1387 -0.3713
 4787TIP3   OH235775   2.937   1.406  10.923 -0.8087  0.3593  0.4441
 4787TIP3    H135776   2.878   1.426  10.851 -0.1141  0.2685 -0.1552
 4787TIP3    H235777   2.967   1.317  10.906 -1.7347 -0.1933  1.6115
 4788TIP3   OH235778   4.078   2.194  11.452 -0.5404 -0.2853  0.0949
 4788TIP3    H135779   4.123   2.159  11.529 -0.1249 -0.8076 -0.3819
 4788TIP3    H235780   4.148   2.213  11.390 -1.0417 -2.1636 -1.0887
 4789TIP3   OH235781   7.116   5.384  14.630  0.1622  0.0608 -0.4996
 4789TIP3    H135782   7.060   5.313  14.598 -0.0429  0.9720 -2.2357
 4789TIP3    H235783   7.111   5.451  14.562  1.1108  1.3515  0.6638
 4790TIP3   OH235784   6.846   2.436  12.874 -0.4392  0.6675  0.1095
 4790TIP3    H135785   6.837   2.480  12.789 -1.9029  1.7320  0.7987
 4790TIP3    H235786   6.800   2.353  12.861  0.4291  0.2707 -0.5141
 4791TIP3   OH235787   0.393   6.878  12.944 -0.4983  0.4640  0.0894
 4791TIP3    H135788   0.328   6.936  12.984 -1.3451 -1.6999  1.9817
 4791TIP3    H235789   0.353   6.791  12.948  2.2961 -0.8529  0.8509
 4792TIP3   OH235790   7.234   2.114  13.441  0.6509  0.1492  0.1452
 4792TIP3    H135791   7.267   2.066  13.365 -0.1751  1.1250 -0.8461
 4792TIP3    H235792   7.311   2.129  13.495  1.2160 -0.7390 -0.3994
 4793TIP3   OH235793   5.278   4.849  12.716 -0.3686  0.8660  0.1002
 4793TIP3    H135794   5.241   4.783  12.658  0.4802  1.5924 -1.3015
 4793TIP3    H235795   5.289   4.926  12.660  1.0335  1.3965  1.0869
 4794TIP3   OH235796   3.104   5.022  12.355  0.0038  0.0595 -0.1277
 4794TIP3    H135797   3.149   5.105  12.343 -0.8469  0.4146 -0.8627
 4794TIP3    H235798   3.141   4.965  12.288  0.4756 -0.1164  0.2749
 4795TIP3   OH235799   6.287   0.344  12.865  0.2084  0.1574 -0.0093
 4795TIP3    H135800   6.247   0.381  12.943  1.3135 -0.6442  0.9653
 4795TIP3    H235801   6.351   0.410  12.837 -1.4228  1.2273 -1.2899
 4796TIP3   OH235802   0.360   4.410  11.176  0.3833 -0.6420  0.0937
 4796TIP3    H135803   0.387   4.393  11.266  1.0371 -0.1114 -0.0024
 4796TIP3    H235804   0.438   4.442  11.132  0.2501 -1.5753 -0.8562
 4797TIP3   OH235805   6.513   1.343  13.307  0.1879 -0.3523 -0.6632
 4797TIP3    H135806   6.528   1.373  13.217  0.0473  0.4106 -0.4367
 4797TIP3    H235807   6.510   1.423  13.359 -0.8469 -0.7197 -0.1368
 4798TIP3   OH235808   0.392   6.261  15.245 -0.3704  0.0647 -0.1594
 4798TIP3    H135809   0.363   6.208  15.170 -0.3263 -0.4775  0.2015
 4798TIP3    H235810   0.329   6.333  15.250 -1.1063 -0.5864  0.0407
 4799TIP3   OH235811   4.364   1.450  12.970 -0.0026  0.0207 -0.0811
 4799TIP3    H135812   4.395   1.377  13.025 -0.3029 -1.2970 -1.6292
 4799TIP3    H235813   4.297   1.410  12.914 -0.4191  1.5861 -0.7011
 4800TIP3   OH235814   6.630   4.017  11.059 -0.2489  0.2024 -0.1119
 4800TIP3    H135815   6.618   3.956  11.132 -0.6079  0.7234  0.2734
 4800TIP3    H235816   6.712   3.990  11.018 -1.3001 -1.6724 -1.0615
 4801TIP3   OH235817   0.635   1.930  12.789 -0.8136  0.2760  0.4739
 4801TIP3    H135818   0.585   2.011  12.791 -0.3562  0.5301  1.6937
 4801TIP3    H235819   0.570   1.862  12.768 -1.6818  0.5937  2.0581
 4802TIP3   OH235820   1.760   6.708  13.046 -0.1959  0.7063  0.5023
 4802TIP3    H135821   1.833   6.722  12.986 -1.8020 -1.6235 -2.1163
 4802TIP3    H235822   1.790   6.639  13.105 -0.9476 -1.6208 -1.7965
 4803TIP3   OH235823   0.687   6.874  15.057 -0.0035  0.3635  0.6108
 4803TIP3    H135824   0.600   6.840  15.038 -0.1062  1.2561 -0.5620
 4803TIP3    H235825   0.738   6.797  15.081 -0.1576 -0.7075 -2.2614
 4804TIP3   OH235826   5.949   6.933  11.293  0.1915 -0.1297 -0.4194
 4804TIP3    H135827   6.024   6.927  11.234 -0.2545 -0.2523 -0.9829
 4804TIP3    H235828   5.873   6.924  11.236 -0.2296 -1.4154  0.3178
 4805TIP3   OH235829   0.939   2.155  10.719  0.2409  0.6280  0.4127
 4805TIP3    H135830   0.958   2.063  10.737 -1.1952  0.7645  2.7757
 4805TIP3    H235831   0.998   2.178  10.647  0.8240 -2.0411 -0.0075
 4806TIP3   OH235832   4.916   0.111  12.402  0.4269  0.8061 -0.5376
 4806TIP3    H135833   4.852   0.086  12.468 -0.8317 -0.9963 -2.3511
 4806TIP3    H235834   5.000   0.115  12.449 -0.4890 -0.0834  1.2155
 4807TIP3   OH235835   0.605   1.319  10.854  0.4436  0.3321  0.5403
 4807TIP3    H135836   0.685   1.313  10.802 -0.4163 -0.2716 -0.7613
 4807TIP3    H235837   0.534   1.310  10.789 -0.6549 -0.9589  1.8889
 4808TIP3   OH235838   0.446   4.927   0.497 -0.3172  0.6398  0.8471
 4808TIP3    H135839   0.491   4.860   0.446 -1.7291 -0.2463  0.7148
 4808TIP3    H235840   0.505   4.946   0.569  0.5445 -0.0249  0.3235
 4809TIP3   OH235841   6.085   6.929  13.878 -0.4020 -0.5211  0.1844
 4809TIP3    H135842   6.113   6.875  13.952  1.7709 -0.1464 -0.3191
 4809TIP3    H235843   6.055   6.866  13.812 -0.5172 -0.9549  0.6510
 4810TIP3   OH235844   0.894   6.153  13.367  1.0010 -0.3523  0.6154
 4810TIP3    H135845   0.808   6.117  13.346  1.1458 -0.3054 -0.0741
 4810TIP3    H235846   0.887   6.246  13.345  2.1170 -0.8986 -2.2531
 4811TIP3   OH235847   0.643   2.589  13.118  0.0973 -0.3887  0.2827
 4811TIP3    H135848   0.631   2.546  13.203  1.2329 -0.6422  0.3210
 4811TIP3    H235849   0.571   2.555  13.064 -2.3073  1.8383  1.9046
 4812TIP3   OH235850   3.086   3.288  15.084 -0.2070  0.0641 -0.1225
 4812TIP3    H135851   3.136   3.208  15.102 -0.0038  0.5522  1.6145
 4812TIP3    H235852   3.098   3.303  14.991  4.8385  1.4138  0.5745
 4813TIP3   OH235853   2.762   2.470  12.291  0.5135  1.0124 -0.3525
 4813TIP3    H135854   2.723   2.477  12.204  0.7922  1.6963 -0.4277
 4813TIP3    H235855   2.856   2.476  12.275  0.8614 -3.1502 -0.4408
 4814TIP3   OH235856   2.855   3.885  10.732  0.4579  0.5393 -0.5127
 4814TIP3    H135857   2.872   3.947  10.661 -2.2727  1.0572 -0.7929
 4814TIP3    H235858   2.827   3.805  10.687  0.6827  0.2100 -0.0660
 4815TIP3   OH235859   0.686   3.602  10.452 -0.0160  0.0363 -0.2182
 4815TIP3    H135860   0.597   3.614  10.483  0.2829 -0.2949  0.7816
 4815TIP3    H235861   0.677   3.587  10.357 -0.9224  1.1053 -0.3113
 4816TIP3   OH235862   2.722   5.113  13.234 -0.3264  0.2175  0.0132
 4816TIP3    H135863   2.697   5.170  13.161  0.3696 -0.4753 -0.7873
 4816TIP3    H235864   2.779   5.167  13.289  0.2434  0.3347 -0.6837
 4817TIP3   OH235865   6.990   2.882  10.874  0.1490  0.6569  0.3578
 4817TIP3    H135866   6.928   2.872  10.946  0.4837 -0.1930  0.5405
 4817TIP3    H235867   6.943   2.933  10.808 -0.8804 -0.3073  0.3304
 4818TIP3   OH235868   1.473   4.003  15.888 -0.1626 -0.4579 -0.1138
 4818TIP3    H135869   1.536   3.940  15.924 -1.1681 -0.8489  0.9791
 4818TIP3    H235870   1.444   3.962  15.806  0.9150 -0.3160 -0.5876
 4819TIP3   OH235871   5.741   4.869  11.045  0.5477  0.0796 -0.2354
 4819TIP3    H135872   5.802   4.839  10.978  1.2878  0.0040  0.4816
 4819TIP3    H235873   5.773   4.956  11.070  0.8802 -0.3407  0.7942
 4820TIP3   OH235874   6.155   6.145  15.086  0.0271 -0.2907  0.0812
 4820TIP3    H135875   6.086   6.082  15.107 -1.7288  1.4711 -0.2439
 4820TIP3    H235876   6.156   6.148  14.990 -0.8175  1.1166  0.1000
 4821TIP3   OH235877   3.108   2.170  12.261  0.0485  0.2125 -0.3386
 4821TIP3    H135878   3.156   2.146  12.182 -1.2608  0.9643 -1.3874
 4821TIP3    H235879   3.090   2.264  12.251 -2.6055 -0.2779 -0.5333
 4822TIP3   OH235880   4.671   5.932  12.265 -1.1283  0.2865 -0.2735
 4822TIP3    H135881   4.664   5.843  12.231 -1.4001 -0.0670  0.6977
 4822TIP3    H235882   4.726   5.924  12.343  0.7784  1.3275 -1.4651
 4823TIP3   OH235883   6.364   3.812  10.900  0.3677  0.1472 -0.7031
 4823TIP3    H135884   6.376   3.731  10.949  0.5054  1.1181  0.9186
 4823TIP3    H235885   6.423   3.805  10.825  3.3780  0.4447  1.5674
 4824TIP3   OH235886   0.139   4.596  14.706  0.3677 -0.3404  0.2393
 4824TIP3    H135887   0.226   4.633  14.687  0.3933 -2.0630 -3.3372
 4824TIP3    H235888   0.078   4.666  14.683  0.7010  0.1208  0.7279
 4825TIP3   OH235889   2.532   2.900  12.831  0.1162  0.4676  0.2560
 4825TIP3    H135890   2.536   2.821  12.777 -4.3325 -0.3552  0.8709
 4825TIP3    H235891   2.543   2.972  12.769  0.7095 -0.5676 -0.8656
 4826TIP3   OH235892   6.889   4.813  10.146 -0.0051 -0.1574 -0.1102
 4826TIP3    H135893   6.863   4.747  10.083 -1.0964  1.3948 -1.3364
 4826TIP3    H235894   6.819   4.814  10.211 -0.9508  1.1154 -1.1372
 4827TIP3   OH235895   0.310   4.583  13.536  0.3563 -0.3596  0.2880
 4827TIP3    H135896   0.330   4.581  13.630  0.0646 -0.1042  0.3554
 4827TIP3    H235897   0.348   4.502  13.502  0.8109 -0.2575  0.5571
 4828TIP3   OH235898   6.840   5.879  12.471  0.2333 -0.2512 -0.3865
 4828TIP3    H135899   6.786   5.912  12.543  1.2014 -1.5291  0.9650
 4828TIP3    H235900   6.868   5.792  12.500 -0.8271 -1.5409 -3.0984
 4829TIP3   OH235901   0.823   5.627  15.237  0.0228  0.3507 -0.4333
 4829TIP3    H135902   0.803   5.635  15.331 -2.3149 -0.9920 -0.7628
 4829TIP3    H235903   0.769   5.695  15.196  1.2219  1.0923 -0.8012
 4830TIP3   OH235904   2.611   4.289  10.447 -0.2333 -0.0667 -0.1418
 4830TIP3    H135905   2.670   4.348  10.400 -0.2466  0.3479  0.3546
 4830TIP3    H235906   2.619   4.206  10.401  1.0783 -0.1412  0.1890
 4831TIP3   OH235907   1.223   6.297  12.578 -0.6149  0.2184  0.0630
 4831TIP3    H135908   1.297   6.322  12.523  0.4095  0.9019  1.7046
 4831TIP3    H235909   1.170   6.240  12.523  1.9673 -1.6094 -0.6081
 4832TIP3   OH235910   1.784   7.129  12.944 -0.0402  0.6632  0.1165
 4832TIP3    H135911   1.787   7.177  13.027 -1.6889 -2.3889  2.0569
 4832TIP3    H235912   1.691   7.127  12.922 -0.0803 -2.0040  0.3735
 4833TIP3   OH235913   0.437   1.786  12.103 -0.6731 -0.2501  0.7206
 4833TIP3    H135914   0.524   1.746  12.095  0.8721  2.8208  1.0145
 4833TIP3    H235915   0.439   1.831  12.187 -1.3290  2.4428 -0.6171
 4834TIP3   OH235916   6.433   5.261  13.935 -0.0654  0.3541  0.3486
 4834TIP3    H135917   6.409   5.351  13.957 -0.9517 -0.2867  2.1348
 4834TIP3    H235918   6.460   5.264  13.843 -1.4264  2.1720 -0.0061
 4835TIP3   OH235919   0.883   4.086  10.904 -0.0321 -0.0342  0.5739
 4835TIP3    H135920   0.861   4.156  10.966  0.3578 -0.6898  1.4646
 4835TIP3    H235921   0.831   4.106  10.827 -1.5276  0.0807  1.5802
 4836TIP3   OH235922   1.677   3.341  13.225  0.3678 -0.1198 -0.0187
 4836TIP3    H135923   1.715   3.423  13.256  1.2208 -0.6842  0.4744
 4836TIP3    H235924   1.583   3.358  13.219  0.3738  0.4820  1.3868
 4837TIP3   OH235925   1.855   2.656  15.209  0.3745 -0.4942  0.3685
 4837TIP3    H135926   1.813   2.616  15.133 -2.7726  1.2568  1.0655
 4837TIP3    H235927   1.803   2.626  15.284  0.3267  1.6801  1.2677
 4838TIP3   OH235928   6.366   6.833  14.029  0.0107 -0.3419  0.2683
 4838TIP3    H135929   6.423   6.907  14.051 -1.5632  1.0180 -0.1272
 4838TIP3    H235930   6.346   6.792  14.113 -0.0286  0.3656  0.6029
 4839TIP3   OH235931   6.230   3.403  14.809 -0.3893  0.5731 -0.2286
 4839TIP3    H135932   6.246   3.440  14.896 -0.3182 -0.6874  0.3133
 4839TIP3    H235933   6.306   3.428  14.757  0.5800 -0.4568  0.6782
 4840TIP3   OH235934   5.791   7.270  11.725 -0.1285  0.0489 -0.1565
 4840TIP3    H135935   5.886   7.263  11.719 -0.1000 -0.7045  1.0353
 4840TIP3    H235936   5.774   7.293  11.816 -1.1239 -0.6401 -0.1533
 4841TIP3   OH235937   7.096   1.453  13.877  0.0972  0.2257  0.3884
 4841TIP3    H135938   7.122   1.545  13.889  0.9782  0.1379 -0.7699
 4841TIP3    H235939   7.008   1.448  13.914 -0.6218  1.9364 -1.0279
 4842TIP3   OH235940   3.093   3.544  13.854  0.1098 -0.2981 -0.1812
 4842TIP3    H135941   3.151   3.515  13.783 -0.1684  0.6096 -0.7763
 4842TIP3    H235942   3.006   3.545  13.815  0.1005  1.2596 -0.1397
 4843TIP3   OH235943   3.456   3.826  11.803 -0.3120  0.5637  0.3518
 4843TIP3    H135944   3.533   3.810  11.749  0.7486  0.0520  1.9876
 4843TIP3    H235945   3.484   3.891  11.868 -1.8099  1.8031 -0.2108
 4844TIP3   OH235946   0.248   5.691  12.259 -0.0575 -0.6896 -0.4393
 4844TIP3    H135947   0.211   5.637  12.189  0.6312 -1.3942 -0.2650
 4844TIP3    H235948   0.193   5.769  12.261 -1.7722 -1.9061  0.0812
 4845TIP3   OH235949   0.627   4.660  10.886 -0.1657 -0.3552  0.6168
 4845TIP3    H135950   0.713   4.683  10.852 -0.4856 -0.2766 -0.1520
 4845TIP3    H235951   0.592   4.598  10.822 -0.1268 -1.4401  1.6277
 4846TIP3   OH235952   1.516   5.682  13.569  0.8816  0.1932  0.0422
 4846TIP3    H135953   1.480   5.769  13.582  0.5092  0.0738 -0.1686
 4846TIP3    H235954   1.443   5.631  13.533  0.9708 -0.3145  0.5645
 4847TIP3   OH235955   6.715   0.653  11.235  0.3645 -0.1670  0.2497
 4847TIP3    H135956   6.781   0.685  11.174  1.7230 -3.1551  0.0626
 4847TIP3    H235957   6.632   0.681  11.197  1.3755  1.4039 -0.8738
 4848TIP3   OH235958   5.623   4.897   0.083 -0.4006 -0.2481 -0.1982
 4848TIP3    H135959   5.646   4.810   0.117 -1.2972  0.0883  1.2908
 4848TIP3    H235960   5.593   4.946   0.159  1.7844  1.9686 -0.6997
 4849TIP3   OH235961   6.707   5.921  12.230  0.1583  0.2696 -0.0717
 4849TIP3    H135962   6.681   5.829  12.224  0.0604  0.1770  1.6240
 4849TIP3    H235963   6.774   5.923  12.298  0.9498  1.2917 -0.8694
 4850TIP3   OH235964   1.469   6.251  13.593  0.5610  0.1042  0.1587
 4850TIP3    H135965   1.381   6.219  13.614  0.5937 -1.2686 -1.6398
 4850TIP3    H235966   1.459   6.295  13.508  1.7081 -0.6383 -0.3811
 4851TIP3   OH235967   5.037   6.260  10.605  0.4566  0.2710 -0.0496
 4851TIP3    H135968   5.008   6.198  10.671  1.5821 -0.3427 -0.1191
 4851TIP3    H235969   5.001   6.226  10.523 -1.8435  1.6145  0.3619
 4852TIP3   OH235970   0.123   5.736  12.553 -0.0381 -0.1425  0.0098
 4852TIP3    H135971   0.094   5.753  12.463 -0.4603  1.9135  0.4965
 4852TIP3    H235972   0.043   5.738  12.605  0.3574  0.0133  0.6139
 4853TIP3   OH235973   1.047   5.494  13.389  0.0360  0.0874 -0.2252
 4853TIP3    H135974   1.039   5.588  13.375  0.3744  0.1716  0.1634
 4853TIP3    H235975   1.090   5.485  13.474  3.1482 -0.3893 -1.7952
 4854TIP3   OH235976   2.374   5.046  10.994 -0.1711  0.4148  0.2891
 4854TIP3    H135977   2.459   5.019  10.960 -0.6058  2.2899 -2.4375
 4854TIP3    H235978   2.364   4.995  11.075  2.3143 -1.8612 -0.7260
 4855TIP3   OH235979   5.971   4.874  12.266 -0.0574 -0.0165 -0.3360
 4855TIP3    H135980   5.988   4.944  12.202  0.8836 -0.7523 -0.9010
 4855TIP3    H235981   6.041   4.811  12.252 -0.2947 -0.5777  0.8962
 4856TIP3   OH235982   3.135   3.619  11.954 -0.2329 -0.2697  0.0151
 4856TIP3    H135983   3.044   3.613  11.980 -0.0684  0.9119  0.9343
 4856TIP3    H235984   3.133   3.667  11.871 -0.2111  3.2922  1.9801
 4857TIP3   OH235985   3.496   5.347  12.650 -0.3685 -0.2409 -0.3399
 4857TIP3    H135986   3.521   5.338  12.742 -0.5406  1.0203 -0.1650
 4857TIP3    H235987   3.565   5.401  12.611 -0.7232 -0.0899 -0.7608
 4858TIP3   OH235988   3.469   5.215  11.958 -0.1195 -0.0452  0.2682
 4858TIP3    H135989   3.395   5.272  11.982  0.5917  0.7102  0.6977
 4858TIP3    H235990   3.445   5.180  11.872  0.2161  2.3287 -0.8553
 4859TIP3   OH235991   6.725   6.951  14.912 -0.2462 -0.0635  0.6077
 4859TIP3    H135992   6.799   6.896  14.936 -0.5928 -1.0604 -0.5447
 4859TIP3    H235993   6.731   6.960  14.817 -1.0046  0.7301  0.6243
 4860TIP3   OH235994   1.503   6.778  15.581 -0.3807  0.0120 -0.0755
 4860TIP3    H135995   1.464   6.695  15.607 -1.0833  1.0991  2.4460
 4860TIP3    H235996   1.432   6.825  15.537 -1.4037  1.1576  2.6963
 4861TIP3   OH235997   4.776   1.376  11.152 -0.2641  0.3664  0.1148
 4861TIP3    H135998   4.862   1.338  11.134 -0.6266 -0.3405 -0.1396
 4861TIP3    H235999   4.728   1.307  11.197 -0.5179  0.9497  0.7473
 4862TIP3   OH236000   1.686   3.947  14.173 -0.0307  0.2793 -0.5556
 4862TIP3    H136001   1.609   3.948  14.230  1.2169  1.2426  1.1594
 4862TIP3    H236002   1.656   3.990  14.092 -1.7629 -0.9232 -0.5896
 4863TIP3   OH236003   2.479   4.816  13.357  0.6750  0.5926 -0.0155
 4863TIP3    H136004   2.480   4.905  13.392  0.6242  1.4158 -2.0422
 4863TIP3    H236005   2.392   4.806  13.319  0.7722 -0.2319 -0.0248
 4864TIP3   OH236006   0.937   6.144  11.075 -0.1022  0.2018 -0.3790
 4864TIP3    H136007   0.917   6.143  11.168  0.1889 -2.4243 -0.3082
 4864TIP3    H236008   0.861   6.105  11.033  0.7262 -0.7702 -1.0156
 4865TIP3   OH236009   6.049   2.762  11.830  0.1117  0.6474  0.1948
 4865TIP3    H136010   5.961   2.799  11.841  0.1447  1.1876 -1.3677
 4865TIP3    H236011   6.108   2.832  11.857  0.1017  0.8332 -0.2613
 4866TIP3   OH236012   1.761   5.779  12.992  0.4681  0.1594  0.0530
 4866TIP3    H136013   1.813   5.701  13.012 -0.6226 -0.9369 -1.2344
 4866TIP3    H236014   1.687   5.774  13.054  0.8398  0.6316  0.5379
 4867TIP3   OH236015   0.941   2.841  11.768 -0.6951  0.2483 -0.3932
 4867TIP3    H136016   1.000   2.837  11.692 -0.8670  2.0930 -0.6433
 4867TIP3    H236017   0.956   2.928  11.804 -1.8484 -0.0109  0.7116
 4868TIP3   OH236018   0.357   6.266  14.398  0.0064 -0.2919 -0.3312
 4868TIP3    H136019   0.451   6.252  14.384  0.2534  0.8105  0.1974
 4868TIP3    H236020   0.327   6.308  14.317  0.5691  2.0966  0.6870
 4869TIP3   OH236021   7.182   5.090  13.972 -0.0839  0.1426  0.2722
 4869TIP3    H136022   7.211   5.148  14.042 -0.7950  2.1011 -1.0095
 4869TIP3    H236023   7.089   5.111  13.961 -0.4186 -1.4422 -0.0375
 4870TIP3   OH236024   5.389   2.533  13.762  0.3106  0.5363  0.8585
 4870TIP3    H136025   5.359   2.604  13.819 -1.7323  0.6449 -0.2975
 4870TIP3    H236026   5.429   2.578  13.687  0.0664  0.4573  0.6781
 4871TIP3   OH236027   6.438   3.519   1.015  0.1127  0.2290 -0.1042
 4871TIP3    H136028   6.471   3.486   1.098  1.7804 -1.6142 -1.4409
 4871TIP3    H236029   6.419   3.611   1.031  0.4161 -0.1009  2.2997
 4872TIP3   OH236030   0.956   4.650  14.197  0.2725  0.1301 -0.2130
 4872TIP3    H136031   0.943   4.573  14.252 -0.6684 -0.6035 -1.4160
 4872TIP3    H236032   1.044   4.681  14.218 -1.2091  1.8136  4.0642
 4873TIP3   OH236033   7.024   6.376  12.981  0.3926  0.2506 -0.4316
 4873TIP3    H136034   7.074   6.341  12.908  2.3486  0.8040  0.6197
 4873TIP3    H236035   6.989   6.459  12.950 -0.3232 -0.3716 -1.3305
 4874TIP3   OH236036   1.938   4.527  12.932 -0.4232  0.1520  0.1564
 4874TIP3    H136037   1.845   4.517  12.948 -0.3951 -1.9848 -0.8027
 4874TIP3    H236038   1.944   4.558  12.841 -0.2369  1.3790  0.5849
 4875TIP3   OH236039   4.842   0.581  11.143  0.4951 -0.3557 -0.1210
 4875TIP3    H136040   4.854   0.600  11.236 -0.1091  1.5543 -0.4181
 4875TIP3    H236041   4.752   0.606  11.125  0.5895 -0.7801 -1.2128
 4876TIP3   OH236042   4.627   1.633  11.629  0.4729 -0.0349 -0.0741
 4876TIP3    H136043   4.581   1.550  11.618  0.4643  0.1975 -2.1042
 4876TIP3    H236044   4.680   1.642  11.550  1.0736  1.5160  0.4753
 4877TIP3   OH236045   0.878   3.384  12.902 -0.1078 -0.2202 -0.3005
 4877TIP3    H136046   0.970   3.375  12.879  0.0430  1.5881 -0.5225
 4877TIP3    H236047   0.879   3.409  12.994 -0.4879 -2.3853  0.3091
 4878TIP3   OH236048   0.415   5.200  12.411  0.0541 -0.4144 -0.3007
 4878TIP3    H136049   0.468   5.193  12.331  1.2237  0.4453  0.3949
 4878TIP3    H236050   0.325   5.188  12.380  0.6125 -1.6016 -1.5318
 4879TIP3   OH236051   3.377   3.256  12.684 -0.4006 -0.7996 -0.4992
 4879TIP3    H136052   3.357   3.270  12.776  0.5619  2.4088 -0.7328
 4879TIP3    H236053   3.451   3.194  12.684  0.1978 -0.0900  0.9122
 4880TIP3   OH236054   6.481   5.949  10.994 -0.4200  0.2070  0.0334
 4880TIP3    H136055   6.418   5.939  11.066 -0.4582 -0.8229 -0.1348
 4880TIP3    H236056   6.557   5.897  11.021  0.0403  0.7838 -0.1364
 4881TIP3   OH236057   1.082   3.662  12.542  0.4272 -0.1286 -0.3049
 4881TIP3    H136058   1.174   3.650  12.563  0.4029  1.0470  0.4791
 4881TIP3    H236059   1.052   3.575  12.514  2.0650 -0.2423 -1.7487
 4882TIP3   OH236060   0.310   3.744  11.078  0.0383  0.4925 -0.2761
 4882TIP3    H136061   0.360   3.677  11.125 -0.8418  0.7445  1.0576
 4882TIP3    H236062   0.252   3.782  11.144 -1.2470  0.8565 -1.5680
 4883TIP3   OH236063   4.162   4.237  15.113  0.5402  0.0834  0.5477
 4883TIP3    H136064   4.236   4.294  15.090  0.6273 -0.2066  0.0886
 4883TIP3    H236065   4.194   4.149  15.094 -0.7221  0.1087 -1.9037
 4884TIP3   OH236066   4.473   4.014   1.201  0.4177 -0.3202  0.6546
 4884TIP3    H136067   4.540   4.075   1.171 -0.2428  0.2913  0.3941
 4884TIP3    H236068   4.390   4.055   1.175 -0.1778  0.1470  3.1594
 4885TIP3   OH236069   5.202   3.418  12.261  0.2013  0.3862  0.1692
 4885TIP3    H136070   5.195   3.505  12.221 -0.8604  0.8844  1.3787
 4885TIP3    H236071   5.139   3.365  12.213  1.0845  0.2057 -0.7846
 4886TIP3   OH236072   6.292   6.290  10.432 -0.3567  0.4200 -0.0933
 4886TIP3    H136073   6.236   6.368  10.424  1.1944  1.8075  1.9827
 4886TIP3    H236074   6.231   6.219  10.451 -1.7089  1.2836 -1.0827
 4887TIP3   OH236075   3.759   0.621  12.777  0.3130  0.1626 -0.0040
 4887TIP3    H136076   3.687   0.616  12.714  0.1280 -3.8301  0.3994
 4887TIP3    H236077   3.754   0.711  12.812 -2.2325  1.0864 -2.5288
 4888TIP3   OH236078   0.052   4.622  10.008  0.4293 -0.4226  0.3463
 4888TIP3    H136079   0.046   4.709   9.969  2.8004  0.2133  1.3167
 4888TIP3    H236080  -0.028   4.613  10.059 -1.1037  0.1015 -1.8823
 4889TIP3   OH236081   5.618   6.051  14.770 -0.7308  0.5108 -0.2268
 4889TIP3    H136082   5.659   5.976  14.725 -1.1637  1.2835 -1.9452
 4889TIP3    H236083   5.549   6.012  14.824 -0.6604 -0.3766 -0.7634
 4890TIP3   OH236084   0.400   2.507  12.151  0.1981 -0.0097  0.2169
 4890TIP3    H136085   0.451   2.462  12.084  0.8133  0.9734  0.0262
 4890TIP3    H236086   0.426   2.464  12.233  0.2565 -0.4756 -0.0432
 4891TIP3   OH236087   5.964   2.247  15.081  0.4945 -0.3470  0.1851
 4891TIP3    H136088   5.923   2.332  15.095 -0.6821 -0.7844 -0.5092
 4891TIP3    H236089   6.036   2.264  15.021 -0.7282 -0.0683 -1.2355
 4892TIP3   OH236090   6.873   3.506  14.326 -0.0935 -0.0756  0.4897
 4892TIP3    H136091   6.827   3.581  14.289 -0.0882 -0.3299 -0.0423
 4892TIP3    H236092   6.882   3.445  14.253  0.1921 -0.4570  0.8381
 4893TIP3   OH236093   4.989   6.232  13.234  0.1141  0.2819  0.5086
 4893TIP3    H136094   5.027   6.175  13.300 -1.5347 -1.0382  0.3287
 4893TIP3    H236095   5.060   6.244  13.170  1.6910  1.5097  2.4092
 4894TIP3   OH236096   7.140   5.467  13.985 -0.4168 -0.0378 -0.5019
 4894TIP3    H136097   7.229   5.481  13.955  0.2020 -1.2942  0.7278
 4894TIP3    H236098   7.092   5.443  13.906  0.6073 -0.6536 -0.9346
 4895TIP3   OH236099   0.587   0.099  12.307  0.0598 -0.9175 -0.5309
 4895TIP3    H136100   0.512   0.138  12.352  0.5185  1.2329 -1.6223
 4895TIP3    H236101   0.548   0.037  12.245 -0.8853  0.8329 -1.7195
 4896TIP3   OH236102   1.095   6.011  13.271  0.5468  0.6303  0.4178
 4896TIP3    H136103   1.114   6.022  13.178 -1.3073 -1.6272 -0.2722
 4896TIP3    H236104   1.020   6.069  13.287  0.0325  0.0170  0.2105
 4897TIP3   OH236105   2.587   4.626  11.794  0.0243  0.1537  0.0196
 4897TIP3    H136106   2.647   4.659  11.727 -0.1787  0.3416 -0.0705
 4897TIP3    H236107   2.503   4.617  11.749 -0.3692  1.2966  0.5235
 4898TIP3   OH236108   4.985   1.923  12.151 -0.8870 -0.2431 -0.7146
 4898TIP3    H136109   5.020   1.936  12.063 -0.8844  0.6874 -0.5875
 4898TIP3    H236110   5.047   1.969  12.208 -1.6363  0.3656 -0.3722
 4899TIP3   OH236111   3.660   6.494  14.395  0.0510 -0.0953  0.3369
 4899TIP3    H136112   3.701   6.559  14.337 -0.5290  0.1838  0.2338
 4899TIP3    H236113   3.568   6.522  14.400  0.1649  0.0551  1.6370
 4900TIP3   OH236114   0.214   5.766  13.447  0.4587  0.1495 -0.4396
 4900TIP3    H136115   0.149   5.836  13.459 -0.6239 -0.8612 -0.3133
 4900TIP3    H236116   0.162   5.687  13.433  1.6786 -0.5666 -1.0021
 4901TIP3   OH236117   5.015   3.755  12.399  0.3070  0.3010 -0.5127
 4901TIP3    H136118   5.046   3.722  12.483  1.9971  2.9567 -0.0367
 4901TIP3    H236119   5.092   3.754  12.342 -0.3494  0.4288 -1.4217
 4902TIP3   OH236120   6.965   4.990  13.292  0.1497  0.3193  0.2502
 4902TIP3    H136121   6.894   4.927  13.296  0.1297  0.3673  0.6775
 4902TIP3    H236122   6.922   5.073  13.271  0.2081  0.1361 -0.5859
 4903TIP3   OH236123   7.185   6.103  13.626  1.0668 -0.1865  0.3831
 4903TIP3    H136124   7.103   6.147  13.648  2.0231  0.7882  2.0706
 4903TIP3    H236125   7.250   6.141  13.685  3.0723  0.2062 -1.9754
 4904TIP3   OH236126   1.341   3.227  12.354 -0.1783 -0.0752 -0.1775
 4904TIP3    H136127   1.385   3.171  12.418 -0.6681 -0.7075 -0.3903
 4904TIP3    H236128   1.405   3.241  12.285 -0.0165 -0.2697 -0.0651
 4905TIP3   OH236129   4.056   6.732  12.537 -0.0286 -0.0247  0.1022
 4905TIP3    H136130   4.126   6.795  12.555 -0.6412  0.5305  0.5773
 4905TIP3    H236131   4.048   6.681  12.617 -0.9199  0.6553  0.4605
 4906TIP3   OH236132   1.929   6.598  13.425 -0.1082 -0.0802 -0.5801
 4906TIP3    H136133   1.952   6.517  13.379  0.3483 -1.3219  1.7540
 4906TIP3    H236134   1.834   6.605  13.415 -0.0589 -0.5475 -1.3983
 4907TIP3   OH236135   1.962   4.097  11.061  0.4400  0.2916 -0.3166
 4907TIP3    H136136   1.986   4.176  11.109 -1.3038 -0.5586  2.0627
 4907TIP3    H236137   1.975   4.026  11.124 -0.6266 -1.0155 -1.5214
 4908TIP3   OH236138   3.413   4.730  14.035  0.2276 -0.5275 -0.2914
 4908TIP3    H136139   3.382   4.640  14.036 -1.1558 -0.0872 -1.6106
 4908TIP3    H236140   3.333   4.783  14.029  1.0129  0.7861  0.6906
 4909TIP3   OH236141   2.852   1.276  12.352  0.1796 -0.3555  0.5531
 4909TIP3    H136142   2.837   1.210  12.419 -0.8525 -1.2905 -0.5588
 4909TIP3    H236143   2.866   1.357  12.400  1.8800 -1.4556  1.9547
 4910TIP3   OH236144   3.308   3.734  15.784  0.3534 -0.0210 -0.1999
 4910TIP3    H136145   3.367   3.689  15.844 -0.8692 -0.4868  0.6469
 4910TIP3    H236146   3.230   3.680  15.781 -0.2561  0.8828 -0.8971
 4911TIP3   OH236147   2.565   4.758  12.961 -0.1901  0.0098 -0.5835
 4911TIP3    H136148   2.593   4.716  12.880  0.8958 -0.8072  0.2093
 4911TIP3    H236149   2.515   4.690  13.006  1.2355 -0.3109  0.5206
 4912TIP3   OH236150   0.760   0.617  12.859  0.4024 -0.1394 -0.3265
 4912TIP3    H136151   0.813   0.578  12.928  0.3918  2.4360  1.1888
 4912TIP3    H236152   0.821   0.626  12.785  0.6285 -2.1701 -0.4001
 4913TIP3   OH236153   1.545   5.799  10.707 -0.0387  0.4110 -0.7726
 4913TIP3    H136154   1.633   5.800  10.669  0.0538  0.3786 -0.5627
 4913TIP3    H236155   1.495   5.740  10.649  0.8581 -1.9698  0.7899
 4914TIP3   OH236156   2.888   1.534  11.612 -0.0286 -0.0168 -0.2323
 4914TIP3    H136157   2.854   1.458  11.564  0.7145 -0.7515  0.3959
 4914TIP3    H236158   2.913   1.500  11.697 -1.8099  1.4012  0.8883
 4915TIP3   OH236159   1.643   4.097  12.125 -0.3010  0.5433  0.1041
 4915TIP3    H136160   1.707   4.144  12.070 -1.7030  0.4711 -1.6574
 4915TIP3    H236161   1.683   4.094  12.212  2.4431 -0.1950 -1.1252
 4916TIP3   OH236162   3.910   4.632  10.998  0.2686  0.6141 -0.2606
 4916TIP3    H136163   3.915   4.725  11.021  1.6404  0.3598  0.5207
 4916TIP3    H236164   3.984   4.618  10.939  1.5708 -0.5072  1.5916
 4917TIP3   OH236165   0.328   4.741  14.539  0.9067  0.2442  0.2745
 4917TIP3    H136166   0.333   4.837  14.538  0.3721  0.2681 -0.2111
 4917TIP3    H236167   0.319   4.717  14.447 -0.7444 -0.1698  0.5250
 4918TIP3   OH236168   1.458   0.714  13.211  0.5250 -0.2184  0.4728
 4918TIP3    H136169   1.391   0.649  13.232  1.2032 -1.5655 -1.3667
 4918TIP3    H236170   1.456   0.720  13.116 -1.5077  4.6448  0.6867
 4919TIP3   OH236171   1.056   7.038  14.329  0.2330  0.3325 -0.2474
 4919TIP3    H136172   1.139   7.005  14.295 -1.1705 -3.4268 -0.2201
 4919TIP3    H236173   1.075   7.129  14.354  4.8077 -0.9233  1.4152
 4920TIP3   OH236174   1.513   2.613  12.080 -0.0004  0.1352 -0.1784
 4920TIP3    H136175   1.456   2.538  12.058  1.5885 -1.6963  1.7990
 4920TIP3    H236176   1.597   2.591  12.040  0.9382  0.0688  1.7934
 4921TIP3   OH236177   3.085   3.251  10.887  0.1975 -0.4523  0.1288
 4921TIP3    H136178   3.158   3.313  10.880  1.3739 -1.4420  2.8739
 4921TIP3    H236179   3.011   3.304  10.916  0.6376  0.0363  0.3554
 4922TIP3   OH236180   7.219   3.184  12.055 -0.3272 -0.5400 -0.1034
 4922TIP3    H136181   7.167   3.168  11.977  0.4756 -1.4576 -0.4556
 4922TIP3    H236182   7.292   3.237  12.025 -0.7495  0.2683  0.2848
 4923TIP3   OH236183   1.151   1.560  10.942  0.0247  0.1068  0.0783
 4923TIP3    H136184   1.109   1.494  10.888  0.7674 -0.7479  0.5378
 4923TIP3    H236185   1.108   1.553  11.027 -1.4257  1.7278 -0.4936
 4924TIP3   OH236186   2.096   2.193  10.437  0.2266 -0.0262 -0.4663
 4924TIP3    H136187   2.096   2.277  10.391 -2.5152  1.6456  2.3204
 4924TIP3    H236188   2.032   2.139  10.390 -0.7092  0.7752 -0.1285
 4925TIP3   OH236189   1.174   2.090  11.204  0.3688  0.4794 -0.7131
 4925TIP3    H136190   1.202   2.004  11.172 -1.2730 -1.1025  1.8561
 4925TIP3    H236191   1.120   2.125  11.134  0.7869 -0.7125 -1.6625
 4926TIP3   OH236192   1.305   0.932  13.378  0.0395 -0.1613  0.3137
 4926TIP3    H136193   1.236   0.903  13.318 -0.5353  3.2035 -0.7840
 4926TIP3    H236194   1.373   0.968  13.320  0.6489  0.7130  1.5446
 4927TIP3   OH236195   0.707   5.168   0.085  0.0909  0.7369  0.3934
 4927TIP3    H136196   0.733   5.124   0.004  1.7313 -0.9044  1.7781
 4927TIP3    H236197   0.623   5.128   0.108  0.0736  0.5499  0.0007
 4928TIP3   OH236198   6.157   4.472  11.699  0.2109  0.0661  0.7113
 4928TIP3    H136199   6.200   4.495  11.616 -0.2355 -0.2609  0.3866
 4928TIP3    H236200   6.066   4.499  11.688 -0.3684 -2.0057  0.2423
 4929TIP3   OH236201   7.160   7.250  13.447 -0.3328  0.1095 -0.2244
 4929TIP3    H136202   7.186   7.290  13.530  0.4072  3.0079 -1.7983
 4929TIP3    H236203   7.149   7.157  13.468  1.1677  0.5551  2.7925
 4930TIP3   OH236204   1.745   5.560  13.449  0.2970 -0.4982  0.1020
 4930TIP3    H136205   1.655   5.588  13.466  0.2739 -0.6211  0.1814
 4930TIP3    H236206   1.777   5.529  13.534  0.0236 -1.5585 -0.1762
 4931TIP3   OH236207   3.240   4.975  11.774  0.0557 -0.5708  0.2808
 4931TIP3    H136208   3.293   4.985  11.853  2.2980 -0.1839 -1.2071
 4931TIP3    H236209   3.178   5.048  11.777  1.2765  0.4616  0.8248
 4932TIP3   OH236210   0.296   2.386  12.958  0.0002  0.0523 -0.1913
 4932TIP3    H136211   0.306   2.346  12.872 -0.3928  2.8624 -1.5857
 4932TIP3    H236212   0.353   2.463  12.955  0.1131  0.0828  2.1317
 4933TIP3   OH236213   6.867   5.822  10.347  0.0776  0.4987 -0.0504
 4933TIP3    H136214   6.953   5.785  10.366 -0.3780 -1.0481 -0.8386
 4933TIP3    H236215   6.885   5.899  10.293  0.9736  0.0679 -0.3842
 4934TIP3   OH236216   0.920   4.220  12.019 -0.4833 -0.0817  0.1573
 4934TIP3    H136217   0.973   4.298  12.034  0.9577 -0.7085 -1.5504
 4934TIP3    H236218   0.981   4.146  12.029 -1.1824 -0.8476 -1.0598
 4935TIP3   OH236219   1.562   6.865  12.002 -0.5136 -0.2236 -0.1591
 4935TIP3    H136220   1.483   6.817  12.025 -1.0681  0.4793 -0.5792
 4935TIP3    H236221   1.546   6.896  11.913  0.6906 -1.0124 -0.6529
 4936TIP3   OH236222   6.823   5.242  13.292 -0.2002  0.0302  0.2810
 4936TIP3    H136223   6.841   5.331  13.264  2.9250 -0.4682  0.5209
 4936TIP3    H236224   6.738   5.247  13.336 -1.0071  2.4658 -1.4970
 4937TIP3   OH236225   0.877   0.345  10.672  0.4114 -0.7664  0.0109
 4937TIP3    H136226   0.895   0.406  10.743 -0.1792  0.0319 -0.5173
 4937TIP3    H236227   0.923   0.265  10.697  1.1495 -0.1241  0.7321
 4938TIP3   OH236228   0.985   5.157  14.246  0.5059 -0.6917 -0.4001
 4938TIP3    H136229   1.045   5.102  14.297 -0.2261  0.2037  1.4596
 4938TIP3    H236230   0.898   5.127  14.271  0.0843  1.4963  0.8696
 4939TIP3   OH236231   0.334   1.677  13.145 -0.5953 -0.0225  0.3757
 4939TIP3    H136232   0.306   1.754  13.194 -0.9598 -1.9592  3.3194
 4939TIP3    H236233   0.260   1.655  13.089 -0.5381  1.6720 -0.3745
 4940TIP3   OH236234   6.391   5.335  13.267  0.5136 -0.0247 -0.5991
 4940TIP3    H136235   6.415   5.427  13.261 -0.5402  0.5640  3.2878
 4940TIP3    H236236   6.442   5.293  13.198  0.1504  3.5705 -3.2342
 4941TIP3   OH236237   4.499   4.807  15.088  0.3596 -0.3181 -0.7696
 4941TIP3    H136238   4.590   4.816  15.058 -0.1500 -1.4750 -2.8251
 4941TIP3    H236239   4.501   4.733  15.149  1.1156  0.9078  0.7155
 4942TIP3   OH236240   1.764   6.280  12.295 -0.3404 -0.1326 -0.4153
 4942TIP3    H136241   1.821   6.340  12.341 -1.5283 -0.3017  1.3453
 4942TIP3    H236242   1.803   6.270  12.209  1.5443  0.7566  0.3184
 4943TIP3   OH236243   1.103   2.484  10.980  0.5675 -0.2407 -0.3862
 4943TIP3    H136244   1.039   2.520  11.041  1.9753  2.6277 -0.5052
 4943TIP3    H236245   1.099   2.390  10.994 -1.4636  0.1179  1.7971
 4944TIP3   OH236246   7.124   4.990  12.553  0.1205  0.2311  1.0349
 4944TIP3    H136247   7.113   5.043  12.632  0.2507  0.0223  1.1935
 4944TIP3    H236248   7.202   4.937  12.570  0.0997  0.1240  0.8020
 4945TIP3   OH236249   5.156   3.047  12.948  0.7812 -0.2451 -0.1474
 4945TIP3    H136250   5.086   2.992  12.912 -0.2717  1.3834 -0.6216
 4945TIP3    H236251   5.182   3.002  13.029 -1.0324 -0.7137  0.1961
 4946TIP3   OH236252   3.454   3.871  10.610  0.2430 -0.2544  0.0692
 4946TIP3    H136253   3.401   3.950  10.619 -0.7879 -0.8210 -0.8550
 4946TIP3    H236254   3.502   3.864  10.693  0.8206  1.6724 -0.0905
 4947TIP3   OH236255   3.998   7.180  10.054 -0.7885 -0.1887 -0.2586
 4947TIP3    H136256   4.001   7.085  10.054  2.3350 -0.1567  0.9562
 4947TIP3    H236257   4.015   7.204  10.145  1.6809  1.5655 -1.1514
 4948TIP3   OH236258   5.996   3.163  10.950  0.5252  0.4209  0.2524
 4948TIP3    H136259   5.937   3.103  10.905 -1.1145  1.5975  0.8102
 4948TIP3    H236260   6.073   3.110  10.970 -0.2765 -1.0951 -0.6034
 4949TIP3   OH236261   0.402   6.677  12.437 -0.3661 -0.0124  0.6793
 4949TIP3    H136262   0.425   6.770  12.445 -2.1426  0.4217  0.8314
 4949TIP3    H236263   0.417   6.658  12.344 -0.1735  0.4758  0.6050
 4950TIP3   OH236264   7.194   5.479   9.591  0.4531 -0.3152  0.3736
 4950TIP3    H136265   7.239   5.464   9.508  0.5151  2.9625 -0.2771
 4950TIP3    H236266   7.261   5.516   9.649 -0.6377  1.8479  0.3226
 4951TIP3   OH236267   2.819   5.255  12.266 -0.3400 -0.5193 -0.4950
 4951TIP3    H136268   2.852   5.320  12.328 -1.4798 -0.5866  0.2005
 4951TIP3    H236269   2.897   5.215  12.229  0.3699 -0.9857  1.4596
 4952TIP3   OH236270   1.425   4.831  14.433  0.5512  0.2301  0.4829
 4952TIP3    H136271   1.492   4.813  14.498  1.1770 -0.2116 -0.2690
 4952TIP3    H236272   1.472   4.875  14.362  0.2536 -0.9674 -0.4810
 4953TIP3   OH236273   3.305   0.448  10.943 -0.0623  0.2264 -0.5711
 4953TIP3    H136274   3.377   0.470  11.002 -0.3684 -1.2570  0.3853
 4953TIP3    H236275   3.226   0.462  10.996 -0.3783 -0.1902 -0.9298
 4954TIP3   OH236276   0.019   1.939  12.246 -0.4273  0.3170  0.0075
 4954TIP3    H136277   0.068   2.011  12.287 -0.9587  1.1242 -0.7720
 4954TIP3    H236278  -0.061   1.979  12.214  0.7886  0.0984 -3.5149
 4955TIP3   OH236279   3.770   4.034  13.571 -0.4354 -0.5362 -0.5132
 4955TIP3    H136280   3.683   4.075  13.574  0.2343  0.8404  0.2930
 4955TIP3    H236281   3.803   4.055  13.483 -0.8726 -0.9819 -0.7862
 4956TIP3   OH236282   2.020   4.147  12.383  0.1652  0.0396 -0.5406
 4956TIP3    H136283   2.027   4.235  12.347 -0.1473  0.8083  1.2203
 4956TIP3    H236284   1.929   4.123  12.370  0.0469  0.3295 -0.2685
 4957TIP3   OH236285   1.387   3.855  15.411 -0.1429 -0.1404  0.1730
 4957TIP3    H136286   1.414   3.946  15.398 -0.3963 -0.1824 -0.6637
 4957TIP3    H236287   1.366   3.850  15.504  0.4447  0.5022  0.3483
 4958TIP3   OH236288   2.338   3.793  12.719  0.7377  0.4568 -0.5097
 4958TIP3    H136289   2.248   3.762  12.722  1.2575 -1.0961 -0.2900
 4958TIP3    H236290   2.389   3.722  12.759  1.9962  1.5303 -0.1634
 4959TIP3   OH236291   0.002   2.124  14.315  0.5605 -0.3971  0.4372
 4959TIP3    H136292  -0.058   2.166  14.253  2.4812 -0.1187 -1.3044
 4959TIP3    H236293  -0.006   2.031  14.297  1.9450 -0.2467 -1.0517
 4960TIP3   OH236294   0.101   2.609  12.972  0.1441 -0.0244 -0.4157
 4960TIP3    H136295   0.158   2.534  12.986 -2.0931 -1.5439  0.7591
 4960TIP3    H236296   0.077   2.605  12.879  0.3726 -0.4853 -0.4545
 4961TIP3   OH236297   5.434   4.813   0.843  0.1074  0.2076  0.6217
 4961TIP3    H136298   5.465   4.722   0.837  0.5208  0.2117  2.3843
 4961TIP3    H236299   5.471   4.856   0.766 -0.2893 -1.1677 -0.3640
 4962TIP3   OH236300   2.174   4.785  13.002  0.1057 -0.7804 -0.2565
 4962TIP3    H136301   2.120   4.709  13.023  1.1132 -0.9719  1.8439
 4962TIP3    H236302   2.210   4.812  13.087  2.2923  0.1014 -1.4382
 4963TIP3   OH236303   1.624   4.071   0.938 -0.0658 -0.1561  0.2035
 4963TIP3    H136304   1.668   4.115   1.011 -2.2149 -1.2885  2.2681
 4963TIP3    H236305   1.622   4.136   0.868  1.1974  1.3008  1.5044
 4964TIP3   OH236306   6.991   4.644  13.033 -0.4803 -0.0525  0.2442
 4964TIP3    H136307   7.049   4.718  13.053 -0.3944  0.4876 -1.8658
 4964TIP3    H236308   6.917   4.683  12.987 -1.8017 -0.9507  1.5579
 4965TIP3   OH236309   6.822   2.657  14.043 -0.0362  0.5494  0.1846
 4965TIP3    H136310   6.905   2.610  14.055 -0.2758 -0.2776 -1.2799
 4965TIP3    H236311   6.777   2.609  13.974 -1.4768  1.3632  0.5462
 4966TIP3   OH236312   0.624   2.586  13.623  0.0509  0.3035  0.0828
 4966TIP3    H136313   0.695   2.579  13.558 -0.4193 -0.5931 -0.3476
 4966TIP3    H236314   0.670   2.586  13.707  0.5328 -1.3983 -0.1484
 4967TIP3   OH236315   6.787   4.604  12.589  0.5920 -0.4471  0.0066
 4967TIP3    H136316   6.820   4.676  12.643  0.6930  1.0777 -2.0376
 4967TIP3    H236317   6.692   4.617  12.588  0.3758 -1.8182  1.6732
 4968TIP3   OH236318   0.381   6.358  10.678  0.7111 -0.0115  0.3358
 4968TIP3    H136319   0.392   6.354  10.773 -2.7490  0.5306  0.8333
 4968TIP3    H236320   0.390   6.267  10.649  1.6894 -0.1962  1.2068
 4969TIP3   OH236321   1.971   3.843  11.251 -0.3843 -0.4410  0.0943
 4969TIP3    H136322   1.940   3.759  11.218 -0.1916 -1.6362  2.7934
 4969TIP3    H236323   1.929   3.852  11.337 -1.0654  2.6253 -0.4788
 4970TIP3   OH236324   0.270   0.062  10.499  0.1670 -0.1228  0.0041
 4970TIP3    H136325   0.237   0.008  10.572 -2.8918  2.1482  0.3756
 4970TIP3    H236326   0.353   0.097  10.532  0.5091 -1.8471  1.0690
 4971TIP3   OH236327   1.681   5.045  14.999 -0.1960 -0.4444 -0.0324
 4971TIP3    H136328   1.724   5.026  15.083  1.1248 -0.7891 -0.7781
 4971TIP3    H236329   1.608   5.103  15.022  0.6385  0.1167  1.2651
 4972TIP3   OH236330   6.713   1.634  15.406  0.4227 -0.3363  0.0608
 4972TIP3    H136331   6.792   1.649  15.354  1.3262 -1.1860  1.1623
 4972TIP3    H236332   6.687   1.722  15.435  0.5112  0.0256 -0.9559
 4973TIP3   OH236333   1.803   3.579  13.999  0.1324 -0.1193 -0.0905
 4973TIP3    H136334   1.873   3.624  14.046  2.4095 -1.7747 -1.7873
 4973TIP3    H236335   1.795   3.627  13.917 -0.3151 -0.2988 -0.1506
 4974TIP3   OH236336   1.635   4.689  11.499 -0.3932  0.5633  0.0056
 4974TIP3    H136337   1.703   4.634  11.539 -0.1316 -0.0831 -1.2974
 4974TIP3    H236338   1.637   4.666  11.406 -1.6265  1.3705 -0.2353
 4975TIP3   OH236339   0.325   4.628  14.284 -0.4796  0.2427 -0.1584
 4975TIP3    H136340   0.387   4.672  14.226 -0.3820  0.0357 -0.2132
 4975TIP3    H236341   0.331   4.536  14.259 -2.1838  0.4543 -1.4677
 4976TIP3   OH236342   2.375   7.076  11.892  0.1005  0.0205  0.1246
 4976TIP3    H136343   2.344   7.097  11.804  0.1346  1.6975  0.4930
 4976TIP3    H236344   2.361   7.156  11.943  0.5218 -0.7671  1.5292
 4977TIP3   OH236345   1.673   5.282  12.788  0.7879  0.0325 -0.3956
 4977TIP3    H136346   1.738   5.279  12.859 -0.4773  0.2673  0.7955
 4977TIP3    H236347   1.621   5.360  12.807 -1.5263 -1.6131  0.1741
 4978TIP3   OH236348   4.635   7.029  14.538  0.3353  1.0793  0.2366
 4978TIP3    H136349   4.701   6.960  14.532  0.1528  0.9525 -0.3935
 4978TIP3    H236350   4.568   7.003  14.474  0.6920  2.3000 -0.6525
 4979TIP3   OH236351   3.223   3.728  12.529  0.8900 -0.2115  0.4740
 4979TIP3    H136352   3.211   3.704  12.438 -2.5977  3.0378 -0.0622
 4979TIP3    H236353   3.193   3.652  12.579 -1.6505 -0.3281 -1.1289
 4980TIP3   OH236354   2.112   6.248  13.443 -0.0220 -0.2381  0.0910
 4980TIP3    H136355   2.079   6.164  13.413  2.0503 -1.2865  0.6319
 4980TIP3    H236356   2.124   6.237  13.537 -0.0593  0.7763  0.2179
 4981TIP3   OH236357   5.637   5.738  10.886  0.0459 -0.2386  0.1222
 4981TIP3    H136358   5.677   5.782  10.811  0.8929 -1.3383 -0.0828
 4981TIP3    H236359   5.697   5.755  10.958 -0.4445  0.2865  0.4070
 4982TIP3   OH236360   4.971   5.315  14.273 -0.4273  0.3212 -0.1880
 4982TIP3    H136361   4.938   5.376  14.339  1.1210 -0.4048  1.2962
 4982TIP3    H236362   4.894   5.269  14.242 -1.2273  0.9183  0.8692
 4983TIP3   OH236363   5.989   5.405  14.975  0.2983  0.1290  0.0537
 4983TIP3    H136364   5.911   5.433  14.927  0.1406  1.4444  1.0639
 4983TIP3    H236365   5.986   5.309  14.973 -1.0786  0.1781 -0.3183
 4984TIP3   OH236366   7.219   3.523  14.025  0.3186 -0.4505 -0.0212
 4984TIP3    H136367   7.165   3.571  13.963 -0.3872  1.8062  2.2550
 4984TIP3    H236368   7.181   3.543  14.111  1.5347 -3.1105  1.2087
 4985TIP3   OH236369   0.162   2.168  12.346  0.5246  0.1810  0.1768
 4985TIP3    H136370   0.201   2.229  12.283  0.3833  1.2485  1.0970
 4985TIP3    H236371   0.121   2.225  12.411  0.3766 -0.9155  1.0466
 4986TIP3   OH236372   2.176   4.588  11.229 -0.7293  0.8233 -0.0251
 4986TIP3    H136373   2.139   4.664  11.273 -2.9941  1.1700 -2.4353
 4986TIP3    H236374   2.159   4.603  11.136  2.5650 -0.6114 -0.9515
 4987TIP3   OH236375   1.773   5.767  10.503 -0.2700  0.4113 -0.2723
 4987TIP3    H136376   1.781   5.757  10.408 -0.4424 -1.7238 -0.0790
 4987TIP3    H236377   1.788   5.860  10.518  0.5432  0.6397 -2.3127
 4988TIP3   OH236378   6.650   3.014  11.682  0.0799 -0.5814  0.6364
 4988TIP3    H136379   6.583   3.083  11.687  1.8568  1.1936  0.3722
 4988TIP3    H236380   6.686   3.011  11.771 -0.9421 -2.1802  1.0206
 4989TIP3   OH236381   6.736   1.535  14.880  0.3194 -0.3878  0.4349
 4989TIP3    H136382   6.776   1.448  14.883 -1.7879 -1.4110 -0.1033
 4989TIP3    H236383   6.703   1.543  14.790 -0.9438  0.2729  0.9435
 4990TIP3   OH236384   2.921   1.399  11.230 -0.5208 -0.4038  0.5761
 4990TIP3    H136385   2.928   1.318  11.280  0.2690  0.0137  1.1565
 4990TIP3    H236386   2.903   1.371  11.140 -0.5793 -1.2001  0.8320
 4991TIP3   OH236387   1.810   2.428  13.277 -0.0866  0.1189  0.0661
 4991TIP3    H136388   1.852   2.465  13.354 -0.0244 -1.4530  0.7857
 4991TIP3    H236389   1.818   2.497  13.211  1.3904  0.8071  0.9371
 4992TIP3   OH236390   1.685   4.079  11.381  0.5304  0.8028 -0.9198
 4992TIP3    H136391   1.740   4.009  11.346 -1.3143 -0.9507 -0.4607
 4992TIP3    H236392   1.694   4.071  11.476 -1.7582 -0.6511 -0.7623
 4993TIP3   OH236393   6.226   5.621  15.209  0.3496  0.0598  0.1052
 4993TIP3    H136394   6.194   5.535  15.180  0.1568 -0.6954  2.4172
 4993TIP3    H236395   6.281   5.652  15.137  1.0777 -2.3741 -0.4424
 4994TIP3   OH236396   7.220   4.451  12.309  0.5683  0.1027  0.7907
 4994TIP3    H136397   7.233   4.450  12.404  1.5759  0.1111  0.6592
 4994TIP3    H236398   7.305   4.478  12.274  0.7710 -1.7419 -0.2101
 4995TIP3   OH236399   5.503   5.758  10.473  0.3756 -0.3329  0.3688
 4995TIP3    H136400   5.457   5.790  10.550  0.3367  0.8736 -0.1498
 4995TIP3    H236401   5.577   5.818  10.462  1.7959 -1.9579  0.9063
 4996TIP3   OH236402   1.642   6.834  10.308  0.4304 -1.1085 -0.4661
 4996TIP3    H136403   1.698   6.837  10.231  1.0297  0.7738  0.0193
 4996TIP3    H236404   1.557   6.865  10.279  0.3922 -1.3050 -0.5681
 4997TIP3   OH236405   1.672   4.761  11.831 -0.4904  0.0981 -1.2428
 4997TIP3    H136406   1.756   4.793  11.865 -0.7723  0.2858 -0.7275
 4997TIP3    H236407   1.612   4.834  11.845 -0.8828 -0.2650 -1.0604
 4998TIP3   OH236408   2.583   4.314  14.100 -0.2660  0.0387 -0.4167
 4998TIP3    H136409   2.605   4.327  14.192 -1.0919 -0.9262 -0.0835
 4998TIP3    H236410   2.667   4.320  14.054  0.2886 -0.5632  0.5179
 4999TIP3   OH236411   6.547   6.613  14.552 -0.3691  0.2296  0.4051
 4999TIP3    H136412   6.557   6.530  14.599 -0.3465 -0.2346 -0.4138
 4999TIP3    H236413   6.483   6.662  14.604 -2.2376 -1.2641 -0.4048
 5000TIP3   OH236414   6.814   4.304  13.479  0.3368 -0.3631 -0.4729
 5000TIP3    H136415   6.752   4.360  13.432  0.6041  0.0494 -0.3350
 5000TIP3    H236416   6.895   4.354  13.480  0.0642  0.0455  1.3104
 5001TIP3   OH236417   0.543   6.222  13.844  0.1608 -0.6354  0.1211
 5001TIP3    H136418   0.524   6.310  13.811 -1.1113 -0.0334  2.3282
 5001TIP3    H236419   0.600   6.184  13.778 -1.0523  1.0370 -1.9753
 5002TIP3   OH236420   2.683   6.257   1.540  0.3013  0.0704 -0.4937
 5002TIP3    H136421   2.654   6.191   1.478  0.4534 -0.8127  0.3627
 5002TIP3    H236422   2.602   6.302   1.567 -0.2374 -1.8995  1.3377
 5003TIP3   OH236423   5.878   3.670  12.679 -0.0725 -0.2284 -0.2430
 5003TIP3    H136424   5.803   3.686  12.736 -0.8896  1.4574 -1.7292
 5003TIP3    H236425   5.954   3.688  12.733 -0.8183  0.8536  0.4646
 5004TIP3   OH236426   2.759   1.235  12.799  0.3820 -0.2654  0.1035
 5004TIP3    H136427   2.699   1.190  12.740  1.1752 -0.7970 -0.3137
 5004TIP3    H236428   2.846   1.211  12.767  0.8720 -2.2023  2.6741
 5005TIP3   OH236429   1.052   0.295  12.335 -0.0719  0.1571  0.5920
 5005TIP3    H136430   1.091   0.223  12.384 -0.8587  0.9896  2.4796
 5005TIP3    H236431   0.958   0.275  12.333 -0.4447  1.6101  2.0219
 5006TIP3   OH236432   3.142   1.729  10.520  0.2079  0.2677 -0.5060
 5006TIP3    H136433   3.149   1.673  10.443  1.1571  0.2852 -0.4395
 5006TIP3    H236434   3.166   1.673  10.593  1.9454  0.9420 -0.5222
 5007TIP3   OH236435   6.633   5.706  11.118 -0.2736 -0.4853  0.2616
 5007TIP3    H136436   6.593   5.634  11.070  0.6752 -1.0468  0.2887
 5007TIP3    H236437   6.630   5.678  11.210 -1.8232  0.4560  0.5118
 5008TIP3   OH236438   0.384   1.060  10.801 -0.1785 -0.2657  0.3211
 5008TIP3    H136439   0.383   1.083  10.708  0.4076  2.4967  0.9537
 5008TIP3    H236440   0.448   0.990  10.807 -0.1305 -0.4013 -1.3499
 5009TIP3   OH236441   7.267   5.900  12.842 -0.4542  0.1207 -0.3545
 5009TIP3    H136442   7.265   5.808  12.818  0.6740 -0.2410  0.8918
 5009TIP3    H236443   7.253   5.947  12.760 -3.4788 -1.1628 -0.6495
 5010TIP3   OH236444   6.165   5.156   9.845  0.2163 -0.2642 -0.2282
 5010TIP3    H136445   6.136   5.097   9.775 -1.1640  1.3793 -1.0632
 5010TIP3    H236446   6.084   5.187   9.885  0.9621  0.1938  0.9670
 5011TIP3   OH236447   2.221   2.069  12.995  0.4871 -0.2326 -0.2898
 5011TIP3    H136448   2.232   1.974  13.005 -0.1444 -0.6676 -3.1794
 5011TIP3    H236449   2.308   2.102  12.975  0.8330 -0.0794  1.4050
 5012TIP3   OH236450   4.832   5.538  13.287 -0.4462  0.5585  0.7140
 5012TIP3    H136451   4.779   5.480  13.341  0.1860 -0.6872  0.0317
 5012TIP3    H236452   4.922   5.508  13.300 -0.3924 -0.6895 -2.0524
 5013TIP3   OH236453   0.862   5.008  13.732 -0.4287  0.3315 -0.0213
 5013TIP3    H136454   0.851   4.913  13.735 -0.3497  0.2999 -0.7148
 5013TIP3    H236455   0.924   5.027  13.802  1.8457 -0.4617 -1.7643
 5014TIP3   OH236456   1.532   0.519  11.821 -0.4092  0.3491  0.5363
 5014TIP3    H136457   1.489   0.588  11.872  0.2803  0.2698  1.2325
 5014TIP3    H236458   1.610   0.560  11.785  0.4220 -0.2572  1.5937
 5015TIP3   OH236459   2.321   3.090  14.197  0.2263  0.2153 -0.0786
 5015TIP3    H136460   2.387   3.022  14.207 -0.6537 -0.6915 -0.3844
 5015TIP3    H236461   2.250   3.049  14.147  1.0955  2.3082 -3.1577
 5016TIP3   OH236462   2.879   2.621  13.155 -0.3656 -0.1871 -0.1565
 5016TIP3    H136463   2.790   2.617  13.191 -1.0921 -0.0210 -1.8875
 5016TIP3    H236464   2.866   2.620  13.061  1.4413  0.9525 -0.4304
 5017TIP3   OH236465   0.762   1.257  11.970  0.0514 -0.3660  0.5391
 5017TIP3    H136466   0.676   1.215  11.969 -0.0483 -0.2125  1.7149
 5017TIP3    H236467   0.747   1.346  11.939 -0.1004 -0.5405  0.1124
 5018TIP3   OH236468   4.213   4.657  15.674  0.5815  0.5999 -0.1043
 5018TIP3    H136469   4.208   4.721  15.745 -2.6163  0.7127 -0.3266
 5018TIP3    H236470   4.176   4.577  15.712 -0.7665  0.5472 -1.4906
 5019TIP3   OH236471   2.084   6.229  15.692 -1.0006 -0.1070  0.1808
 5019TIP3    H136472   2.114   6.253  15.780  3.1218 -1.0349 -0.8716
 5019TIP3    H236473   2.077   6.134  15.694  0.1439 -0.2200 -0.7723
 5020TIP3   OH236474   1.591   1.765  11.856  0.3406 -1.0447 -0.6859
 5020TIP3    H136475   1.680   1.782  11.887  0.6127 -0.4287 -1.7709
 5020TIP3    H236476   1.582   1.820  11.778 -1.1665 -0.7349 -0.3078
 5021TIP3   OH236477   6.123   2.617  10.966  0.0663 -0.4755  0.3141
 5021TIP3    H136478   6.043   2.568  10.947  0.4026 -0.6336 -0.7005
 5021TIP3    H236479   6.102   2.708  10.945 -0.0110 -0.4321  0.5687
 5022TIP3   OH236480   1.452   4.769  10.151  0.3309  0.1211 -0.2798
 5022TIP3    H136481   1.512   4.798  10.083  0.8005  1.4535  0.6705
 5022TIP3    H236482   1.368   4.761  10.107  0.8561 -0.1254 -1.2540
 5023TIP3   OH236483   2.707   3.332  11.730  0.1005 -0.2051 -0.1755
 5023TIP3    H136484   2.760   3.409  11.712 -1.3444  1.0550  0.8199
 5023TIP3    H236485   2.760   3.258  11.700  1.9234  1.0952 -0.2071
 5024TIP3   OH236486   6.360   5.498  13.543  0.7939 -0.4588 -0.0846
 5024TIP3    H136487   6.360   5.414  13.587 -1.3797  0.8020  2.4604
 5024TIP3    H236488   6.268   5.524  13.539  1.4608  2.0975 -0.1705
 5025TIP3   OH236489   5.725   1.303  13.947  0.9766  0.0475  0.2834
 5025TIP3    H136490   5.671   1.228  13.974 -0.2041  0.8675  0.2483
 5025TIP3    H236491   5.687   1.330  13.863  0.7670  1.2900  0.7666
 5026TIP3   OH236492   1.167   3.886  12.270 -0.3612  0.1238  0.1891
 5026TIP3    H136493   1.258   3.862  12.287 -0.2837  0.7257  0.6309
 5026TIP3    H236494   1.137   3.925  12.352 -1.2829 -0.8841  0.3413
 5027TIP3   OH236495   2.880   2.480  12.601  0.1536  0.0794  0.1818
 5027TIP3    H136496   2.910   2.546  12.538  0.1891 -0.2716 -0.1744
 5027TIP3    H236497   2.786   2.472  12.585  0.5049 -1.5155 -1.2733
 5028TIP3   OH236498   1.419   5.541  15.831  0.0883 -0.3287 -0.1625
 5028TIP3    H136499   1.470   5.587  15.898  0.6459 -2.1894  0.7312
 5028TIP3    H236500   1.484   5.502  15.773 -0.3939  0.8708 -1.5339
 5029TIP3   OH236501   4.035   3.507   0.851  0.3990 -0.1019 -0.0958
 5029TIP3    H136502   3.972   3.566   0.809  0.5695  0.0077 -0.2004
 5029TIP3    H236503   3.987   3.467   0.923 -0.4471 -1.5935 -1.4214
 5030TIP3   OH236504   1.282   1.025  11.573 -0.2072  0.3847 -0.1895
 5030TIP3    H136505   1.237   0.942  11.561  0.5989  0.0680 -0.9750
 5030TIP3    H236506   1.219   1.079  11.623 -1.9415  0.3507 -2.2717
 5031TIP3   OH236507   2.049   2.096  11.256 -0.0202  0.5119 -0.5551
 5031TIP3    H136508   2.118   2.079  11.321 -1.5939 -1.8889  0.5855
 5031TIP3    H236509   2.097   2.119  11.176  2.0696  0.3759  0.6129
 5032TIP3   OH236510   0.693   2.898  15.383  0.0097 -0.1544 -0.2284
 5032TIP3    H136511   0.684   2.947  15.464  1.6615  1.1766 -0.8172
 5032TIP3    H236512   0.780   2.920  15.351 -0.9762  0.1095 -2.8576
 5033TIP3   OH236513   3.262   2.443  10.739  0.3677 -0.3772 -0.2540
 5033TIP3    H136514   3.334   2.404  10.788 -1.0084 -1.4896  0.9553
 5033TIP3    H236515   3.219   2.368  10.698 -1.0119  0.0918  0.3012
 5034TIP3   OH236516   5.697   4.128  10.404 -0.1529  0.0771 -0.3936
 5034TIP3    H136517   5.687   4.047  10.454  0.5477  1.4808  2.1048
 5034TIP3    H236518   5.621   4.182  10.429 -1.1954 -0.1795 -2.8498
 5035TIP3   OH236519   1.218   5.429  12.277 -0.3612 -0.4867  0.7019
 5035TIP3    H136520   1.312   5.448  12.274 -1.0556  2.9672 -0.7109
 5035TIP3    H236521   1.198   5.393  12.191 -0.7781  1.1749  0.0848
 5036TIP3   OH236522   5.083   3.857  11.370 -0.0185 -0.3701  0.0209
 5036TIP3    H136523   5.107   3.767  11.395  1.8315  1.0208  3.5888
 5036TIP3    H236524   5.102   3.861  11.276  3.5518 -2.5965  0.5257
 5037TIP3   OH236525   2.080   2.699  11.606 -0.2887 -0.6892  0.4236
 5037TIP3    H136526   2.052   2.630  11.666  0.6979 -1.5879 -0.1327
 5037TIP3    H236527   2.026   2.685  11.528  0.4306 -1.3025  0.0305
 5038TIP3   OH236528   3.401   4.534  11.481 -0.5770 -0.5022 -1.0444
 5038TIP3    H136529   3.396   4.456  11.426 -2.3656 -0.7731 -0.5495
 5038TIP3    H236530   3.341   4.515  11.554  0.5269  0.4992  0.1385
 5039TIP3   OH236531   5.388   6.202  13.531  0.0703  0.8156  0.1972
 5039TIP3    H136532   5.474   6.170  13.558  0.1322  1.5285  0.8305
 5039TIP3    H236533   5.362   6.263  13.600 -1.1605  0.2259  0.2522
 5040TIP3   OH236534   3.991   2.879  13.749  0.6199 -0.4608  0.0055
 5040TIP3    H136535   4.072   2.833  13.770  0.4413  0.4896  3.0254
 5040TIP3    H236536   4.018   2.970  13.735  0.2697 -0.4217 -0.4104
 5041TIP3   OH236537   1.738   5.152  13.847 -0.2995  0.1300 -0.3032
 5041TIP3    H136538   1.825   5.129  13.881  0.0321  1.0928 -0.4925
 5041TIP3    H236539   1.703   5.069  13.815 -0.7172 -0.8716  2.5844
 5042TIP3   OH236540   1.729   4.553  12.325 -0.2551 -0.4810 -0.1699
 5042TIP3    H136541   1.668   4.619  12.358 -0.5372 -0.8312  0.0132
 5042TIP3    H236542   1.687   4.469  12.345  0.0163 -0.7115 -0.5655
 5043TIP3   OH236543   0.818   6.206  10.570  0.3924  0.3312 -0.2271
 5043TIP3    H136544   0.750   6.267  10.540  0.8368  1.7766  1.5976
 5043TIP3    H236545   0.774   6.123  10.580 -1.0830  1.2244  0.8007
 5044TIP3   OH236546   6.367   4.586  13.582 -0.9057 -0.4153  0.4541
 5044TIP3    H136547   6.351   4.539  13.664 -2.4010  1.0648  1.0284
 5044TIP3    H236548   6.289   4.639  13.569 -0.5163 -0.3255 -1.7446
 5045TIP3   OH236549   3.731   1.331  12.164 -0.4826  0.2559 -0.2603
 5045TIP3    H136550   3.820   1.347  12.131 -0.9588  0.8909 -1.2714
 5045TIP3    H236551   3.709   1.411  12.212  0.3267 -0.7914  1.9137
 5046TIP3   OH236552   2.839   2.164  11.464  0.4585 -0.0115  0.2549
 5046TIP3    H136553   2.816   2.148  11.373 -1.1580 -1.4681  0.8919
 5046TIP3    H236554   2.931   2.191  11.462 -0.4089  3.0165 -2.0915
 5047TIP3   OH236555   5.050   5.249  11.739 -0.8277 -0.4659  0.0810
 5047TIP3    H136556   4.988   5.312  11.776 -0.4648  0.1519 -0.3593
 5047TIP3    H236557   5.071   5.285  11.653  0.6877 -0.3195  0.5114
 5048TIP3   OH236558   3.487   3.536  11.806  0.0902  0.2343  0.0912
 5048TIP3    H136559   3.562   3.518  11.750  1.0010  0.7038  1.1253
 5048TIP3    H236560   3.470   3.630  11.792  1.2862  0.7229  1.7018
 5049TIP3   OH236561   5.264   6.307  11.721 -0.1342  0.3013 -0.2278
 5049TIP3    H136562   5.168   6.302  11.717 -0.1571  1.5867 -2.3712
 5049TIP3    H236563   5.284   6.399  11.701  1.5248  0.2472  1.0917
 5050TIP3   OH236564   6.079   3.736  13.922 -0.1773 -0.0549  0.2741
 5050TIP3    H136565   6.026   3.665  13.885  1.6214 -1.3229  0.0987
 5050TIP3    H236566   6.022   3.813  13.916 -1.5725 -1.1442 -0.9800
 5051TIP3   OH236567   7.189   5.020  10.416 -0.6127  0.3280 -0.9697
 5051TIP3    H136568   7.094   5.020  10.432 -0.6946  2.2158 -1.4037
 5051TIP3    H236569   7.227   5.042  10.501 -0.4267 -2.5963 -0.2398
 5052TIP3   OH236570   3.146   2.896  13.007  0.0473  0.5368  0.0274
 5052TIP3    H136571   3.195   2.940  12.938 -0.4386 -0.8148 -1.2227
 5052TIP3    H236572   3.059   2.934  13.003  0.6108  2.0655  1.4350
 5053TIP3   OH236573   4.207   7.242  13.339 -0.5337 -0.2849 -0.3396
 5053TIP3    H136574   4.199   7.184  13.263 -1.5705  0.5659 -0.8822
 5053TIP3    H236575   4.188   7.185  13.414  1.0468 -1.2636 -0.6424
 5054TIP3   OH236576   0.854   2.470  12.496 -0.7358 -0.4464 -0.0187
 5054TIP3    H136577   0.777   2.446  12.549  0.6750 -1.4634  1.6410
 5054TIP3    H236578   0.924   2.414  12.529  1.2454  1.8890 -0.0755
 5055TIP3   OH236579   4.662   3.692  13.514 -0.2616  0.4666 -0.1041
 5055TIP3    H136580   4.723   3.662  13.582  0.4702  0.9879 -0.5145
 5055TIP3    H236581   4.576   3.685  13.554 -0.1691 -2.4773 -0.2678
 5056TIP3   OH236582   6.226   6.875  11.780 -0.6003 -0.5437  0.7478
 5056TIP3    H136583   6.217   6.882  11.685 -3.2789 -1.5816  0.8698
 5056TIP3    H236584   6.200   6.785  11.800  1.2402 -0.7515  2.3480
 5057TIP3   OH236585   3.599   6.705  12.128 -0.0209 -0.2222 -0.8200
 5057TIP3    H136586   3.677   6.652  12.142 -0.0767 -0.3777 -1.0953
 5057TIP3    H236587   3.527   6.652  12.161  0.3756  1.4039  2.8230
 5058TIP3   OH236588   2.142   4.125  12.620 -0.0525 -0.5123  0.2313
 5058TIP3    H136589   2.055   4.126  12.661 -0.3884  0.6482 -0.4510
 5058TIP3    H236590   2.123   4.130  12.526  0.7447 -0.7160  0.0588
 5059TIP3   OH236591   2.075   4.119  14.698 -0.3990  0.0157  0.5905
 5059TIP3    H136592   2.017   4.143  14.626  0.0496 -0.4733  0.0561
 5059TIP3    H236593   2.160   4.105  14.656 -0.0589  0.0347  1.2633
 5060TIP3   OH236594   2.795   3.535  14.113  0.1241 -0.2782 -0.3065
 5060TIP3    H136595   2.716   3.508  14.159 -0.6281 -2.3512 -2.6778
 5060TIP3    H236596   2.863   3.539  14.180 -1.4362 -0.9548  1.3368
 5061TIP3   OH236597   1.106   4.967  12.335  0.2110 -0.0104  0.4535
 5061TIP3    H136598   1.160   4.895  12.368  2.0852  1.1791  0.0219
 5061TIP3    H236599   1.131   4.976  12.243  0.2815  1.4426  0.6052
 5062TIP3   OH236600   3.314   3.665  10.330  0.2119 -0.2780 -0.3015
 5062TIP3    H136601   3.286   3.738  10.275  0.6578 -1.0185 -1.5422
 5062TIP3    H236602   3.409   3.661  10.317 -0.1362 -2.7753 -2.4143
 5063TIP3   OH236603   1.469   3.468  11.935  0.2387 -0.0225  0.5596
 5063TIP3    H136604   1.489   3.393  11.879  0.2999 -1.2193  2.1576
 5063TIP3    H236605   1.373   3.471  11.937  0.2290  0.6710 -0.4390
 5064TIP3   OH236606   3.004   7.097  13.246  0.4321 -0.4309 -0.8221
 5064TIP3    H136607   2.977   7.173  13.297 -1.5499  0.1037 -2.6145
 5064TIP3    H236608   2.971   7.022  13.295 -0.3069  0.0066 -0.6464
 5065TIP3   OH236609   1.642   4.505  11.950 -0.1621 -0.1084 -0.3908
 5065TIP3    H136610   1.655   4.589  11.907  1.2437 -0.4322 -0.5963
 5065TIP3    H236611   1.728   4.481  11.983 -0.9818 -0.3973  1.6349
 5066TIP3   OH236612   0.085   5.712  11.676 -0.4716 -0.6290  0.2482
 5066TIP3    H136613   0.095   5.806  11.659 -0.0139 -0.4598  1.4375
 5066TIP3    H236614   0.144   5.670  11.613 -0.5711 -0.1216 -0.1930
 5067TIP3   OH236615   6.509   3.808  10.654  0.4822  0.1127 -0.3980
 5067TIP3    H136616   6.463   3.890  10.637 -0.1368 -0.5467 -2.0639
 5067TIP3    H236617   6.487   3.753  10.578 -0.7304 -2.3041  1.6334
 5068TIP3   OH236618   2.151   5.724  10.358 -0.1697 -0.1882  0.2068
 5068TIP3    H136619   2.138   5.717  10.263 -1.6784  0.7148  0.3384
 5068TIP3    H236620   2.118   5.811  10.380 -0.1951 -0.5548  1.6311
 5069TIP3   OH236621   2.886   3.573  12.925  0.3338 -0.5801 -0.3914
 5069TIP3    H136622   2.953   3.507  12.906 -0.2274 -0.8342 -1.4960
 5069TIP3    H236623   2.912   3.648  12.872 -0.5109 -0.8386 -1.1731
 5070TIP3   OH236624   5.393   5.580  13.789 -0.1445  0.3664  0.9499
 5070TIP3    H136625   5.423   5.608  13.876  1.4839  0.4543  0.3786
 5070TIP3    H236626   5.468   5.596  13.732 -1.1784  0.2226 -0.4613
 5071TIP3   OH236627   3.904   3.728  11.956 -0.3560 -0.0843 -0.3539
 5071TIP3    H136628   3.968   3.666  11.921 -0.1598 -0.2312  0.2689
 5071TIP3    H236629   3.938   3.814  11.931  0.8449 -0.0887  1.2424
 5072TIP3   OH236630   4.295   2.933  13.221  0.3828 -0.3356 -0.4834
 5072TIP3    H136631   4.299   2.882  13.140 -1.7062  1.0258 -1.4872
 5072TIP3    H236632   4.225   2.892  13.271 -0.5531  0.8448 -0.8138
 5073TIP3   OH236633   3.416   6.019  11.666  0.0434 -0.7966 -0.3143
 5073TIP3    H136634   3.427   6.114  11.660 -1.1100 -0.5675  0.9127
 5073TIP3    H236635   3.483   5.992  11.729 -0.8903 -0.5143  0.8282
 5074TIP3   OH236636   5.221   4.357  11.321  0.0786  0.0030  0.4872
 5074TIP3    H136637   5.192   4.412  11.248 -0.1072  0.8304  1.1729
 5074TIP3    H236638   5.145   4.301  11.340  0.4997 -0.9727 -0.6454
 5075TIP3   OH236639   5.520   4.904  13.247  0.1015  0.3645 -0.2079
 5075TIP3    H136640   5.607   4.925  13.215 -0.4437 -0.4838 -2.3234
 5075TIP3    H236641   5.535   4.837  13.315  1.1661  1.2204  0.4207
 5076TIP3   OH236642   2.339   1.061  15.581  0.3558  0.7110  0.3601
 5076TIP3    H136643   2.411   1.106  15.626  1.7205  0.0134 -1.0909
 5076TIP3    H236644   2.331   0.978  15.627  1.3780  0.2316 -0.3055
 5077TIP3   OH236645   7.138   2.420  12.791  0.1538  0.4734 -0.5100
 5077TIP3    H136646   7.108   2.487  12.729  0.4785 -0.1227 -1.3339
 5077TIP3    H236647   7.064   2.406  12.849 -0.9152 -0.4309 -2.0403
 5078TIP3   OH236648   4.633   7.043  10.904  0.4105 -0.3586  0.5875
 5078TIP3    H136649   4.660   7.135  10.910 -1.4847  0.4380 -1.8848
 5078TIP3    H236650   4.690   7.006  10.836  0.3862 -0.6932  0.7497
 5079TIP3   OH236651   7.119   4.256  13.670  0.0284  0.2220 -0.7582
 5079TIP3    H136652   7.110   4.348  13.646 -0.7297  0.1824 -0.6304
 5079TIP3    H236653   7.148   4.212  13.590 -2.3619  0.1043 -1.6118
 5080TIP3   OH236654   5.230   3.289  11.237  0.2945  0.4484 -0.0518
 5080TIP3    H136655   5.226   3.384  11.248  0.4034  0.3437  1.0077
 5080TIP3    H236656   5.140   3.259  11.248  0.0450  0.5482 -1.7093
 5081TIP3   OH236657   2.247   1.864  11.178  0.0766 -0.2142  0.2951
 5081TIP3    H136658   2.301   1.808  11.234 -1.7702 -1.4161  0.9377
 5081TIP3    H236659   2.310   1.916  11.129  1.8477 -2.3038  0.2399
 5082TIP3   OH236660   3.360   3.823  11.104  0.1220 -0.1648  0.2190
 5082TIP3    H136661   3.435   3.767  11.086 -0.5308 -1.2839  0.9254
 5082TIP3    H236662   3.287   3.783  11.057 -0.2199  0.4476  0.2084
 5083TIP3   OH236663   1.767   1.882  12.923 -0.5571  0.1323  0.1230
 5083TIP3    H136664   1.723   1.956  12.881 -0.4812 -0.7949 -1.6212
 5083TIP3    H236665   1.708   1.808  12.908  0.9873 -0.8599 -1.1126
 5084TIP3   OH236666   7.041   6.683  13.679 -0.1658  0.1506  0.5391
 5084TIP3    H136667   7.130   6.679  13.644 -0.8054 -0.2507 -1.0756
 5084TIP3    H236668   7.020   6.776  13.682  0.4526  0.2705  1.3128
 5085TIP3   OH236669   2.685   3.224  14.609  0.2729  0.3969 -0.4603
 5085TIP3    H136670   2.761   3.266  14.569  1.3451 -1.0340  0.0361
 5085TIP3    H236671   2.719   3.143  14.647 -1.5617 -0.4449 -0.5389
 5086TIP3   OH236672   1.898   2.844  12.829 -0.1306 -0.3221  0.8155
 5086TIP3    H136673   1.913   2.836  12.734 -2.0388 -2.7415  0.6615
 5086TIP3    H236674   1.965   2.788  12.868 -0.1928 -0.3931  0.8214
 5087TIP3   OH236675   6.884   2.409  12.424 -0.0730 -0.0535 -0.5086
 5087TIP3    H136676   6.818   2.385  12.489  1.2372 -1.7698  0.2431
 5087TIP3    H236677   6.840   2.472  12.367 -1.2720  1.5251  2.0368
 5088TIP3   OH236678   3.196   4.724  10.630 -0.0001 -0.1592  0.3374
 5088TIP3    H136679   3.257   4.656  10.600  1.6637  1.5804 -0.3475
 5088TIP3    H236680   3.110   4.691  10.608  0.9191 -1.1581 -1.8651
 5089TIP3   OH236681   5.738   7.056   9.921 -0.1305  0.4197 -0.7240
 5089TIP3    H136682   5.673   7.000   9.879 -0.0053 -0.6644  0.4726
 5089TIP3    H236683   5.821   7.029   9.882 -0.0086 -0.6191  0.2076
 5090TIP3   OH236684   4.552   0.018  13.827 -0.5083  0.2667 -0.5954
 5090TIP3    H136685   4.593   0.100  13.857 -1.2631  1.0241 -1.5823
 5090TIP3    H236686   4.499  -0.010  13.901  0.6079  0.0826  0.1449
 5091TIP3   OH236687   2.399   1.077  10.991 -0.1803  0.1141  0.1993
 5091TIP3    H136688   2.352   1.014  11.045  0.9345 -1.2842 -0.4272
 5091TIP3    H236689   2.491   1.060  11.009  0.1158  2.2963  0.8159
 5092TIP3   OH236690   2.418   2.406  10.740  0.7057 -0.6308 -0.4379
 5092TIP3    H136691   2.343   2.349  10.723 -0.2890  0.3105  0.7150
 5092TIP3    H236692   2.479   2.351  10.788 -0.3365 -0.6944  0.8497
 5093TIP3   OH236693   4.411   5.288   0.064  0.6392 -0.8499 -0.2614
 5093TIP3    H136694   4.445   5.362   0.115  0.5505 -1.4751  0.7147
 5093TIP3    H236695   4.413   5.214   0.125  0.8163 -1.6736 -1.2659
 5094TIP3   OH236696   3.416   6.087  10.667 -0.0506 -0.0993 -0.0420
 5094TIP3    H136697   3.368   6.061  10.588 -1.8680 -0.1222  1.0305
 5094TIP3    H236698   3.503   6.050  10.656 -0.4741 -0.6120 -1.7661
 5095TIP3   OH236699   6.011   3.060  12.832 -0.3147 -0.1911  0.0178
 5095TIP3    H136700   6.089   3.029  12.878  0.5099 -0.0699 -1.2775
 5095TIP3    H236701   5.952   3.090  12.902 -0.5054 -3.1585  1.2195
 5096TIP3   OH236702   3.995   1.639  10.251  0.0597 -0.3816  0.1902
 5096TIP3    H136703   3.995   1.546  10.226  2.3086  0.1371 -1.9637
 5096TIP3    H236704   3.975   1.685  10.170  0.6381  1.0741  0.8610
 5097TIP3   OH236705   1.721   0.036  13.132 -0.3175 -0.5413 -0.6300
 5097TIP3    H136706   1.787   0.034  13.202  1.1115  2.1957 -1.8510
 5097TIP3    H236707   1.639   0.012  13.176  0.6116  0.7391  1.9062
 5098TIP3   OH236708   4.159   1.846  10.263  0.0213  0.5738 -0.0390
 5098TIP3    H136709   4.083   1.903  10.266  0.0219  0.7063 -1.7280
 5098TIP3    H236710   4.124   1.758  10.276 -0.3682  0.6825 -0.3456
 5099TIP3   OH236711   4.326   5.101  12.046 -0.0908 -0.1797  0.3206
 5099TIP3    H136712   4.408   5.148  12.060  0.1799 -0.8167  0.9521
 5099TIP3    H236713   4.277   5.115  12.127  0.0424 -1.0701  0.5599
 5100TIP3   OH236714   0.993   1.637  12.025 -0.1352  0.7123 -0.2087
 5100TIP3    H136715   1.061   1.662  11.962 -1.0511  2.1636 -0.6428
 5100TIP3    H236716   1.011   1.691  12.102 -0.2950  0.4861 -0.0119
 5101TIP3   OH236717   4.224   1.694  11.454  0.2649 -0.0182 -0.1414
 5101TIP3    H136718   4.259   1.605  11.451  1.7783  0.5599 -0.3018
 5101TIP3    H236719   4.209   1.717  11.362 -1.5917 -0.6532 -0.0129
 5102TIP3   OH236720   0.785   3.558  12.220  0.4230 -0.3315  0.9388
 5102TIP3    H136721   0.723   3.501  12.175  0.5840 -0.0356  0.3345
 5102TIP3    H236722   0.858   3.501  12.243  1.1177 -0.1304 -0.7177
 5103TIP3   OH236723   1.344   3.554  12.579  0.3559 -0.2306 -0.5219
 5103TIP3    H136724   1.427   3.518  12.611  1.3702  0.9875 -1.6973
 5103TIP3    H236725   1.363   3.647  12.564 -0.9994 -0.1076 -1.5805
 5104TIP3   OH236726   3.396   6.540  14.296 -0.1009  0.0091  0.2871
 5104TIP3    H136727   3.378   6.619  14.244  0.0853 -0.7302 -0.9201
 5104TIP3    H236728   3.314   6.523  14.342 -0.2597  0.6950  0.2712
 5105TIP3   OH236729   7.005   0.961  15.048  0.2752  0.0299 -0.3071
 5105TIP3    H136730   6.932   0.901  15.040 -2.7864  3.5272  0.0396
 5105TIP3    H236731   7.001   0.992  15.138  2.0085  0.5436 -0.3795
 5106TIP3   OH236732   2.926   3.388  15.537  0.1628 -0.3049  0.1638
 5106TIP3    H136733   3.000   3.445  15.515 -0.6301  0.9413  0.6320
 5106TIP3    H236734   2.956   3.337  15.612  0.3879  0.5520  0.6625
 5107TIP3   OH236735   2.081   5.583  13.792  0.1370 -0.3130  0.2063
 5107TIP3    H136736   2.051   5.669  13.762  0.6277  0.2444  1.2785
 5107TIP3    H236737   2.059   5.582  13.885  1.6907 -0.6770  0.5736
 5108TIP3   OH236738   0.457   1.504   1.359  0.2135  0.2287 -0.3166
 5108TIP3    H136739   0.394   1.573   1.381  1.4457  1.2495  0.0860
 5108TIP3    H236740   0.542   1.544   1.374  0.9872 -0.7980 -1.8338
 5109TIP3   OH236741   3.406   3.852  14.883 -0.4847 -0.2495 -0.9594
 5109TIP3    H136742   3.417   3.760  14.860  0.6203 -1.1351  2.7854
 5109TIP3    H236743   3.316   3.859  14.915 -0.3049 -0.2109 -0.4573
 5110TIP3   OH236744   3.339   1.500  11.356 -0.0006  0.0426  0.3625
 5110TIP3    H136745   3.379   1.489  11.270 -1.3289 -1.0768 -0.1243
 5110TIP3    H236746   3.262   1.555  11.340  0.4838  0.9528  1.0621
 5111TIP3   OH236747   2.062   2.871   0.237 -0.0185  0.6257  0.2542
 5111TIP3    H136748   1.978   2.825   0.241  0.0547  0.5880  1.5330
 5111TIP3    H236749   2.040   2.964   0.233 -0.1136  0.6136  0.5535
 5112TIP3   OH236750   2.325   1.323  12.436  0.1139 -0.2313 -0.3601
 5112TIP3    H136751   2.303   1.416  12.435 -0.1179 -0.2856 -0.2267
 5112TIP3    H236752   2.307   1.294  12.525  1.2021 -0.1620 -0.1126
 5113TIP3   OH236753   1.731   6.918  13.913  0.3791 -0.5590 -0.1552
 5113TIP3    H136754   1.684   6.977  13.970 -0.6195 -2.1701  0.7225
 5113TIP3    H236755   1.700   6.939  13.825  1.5838  1.6078 -0.0964
 5114TIP3   OH236756   1.853   4.978  11.997  0.6016  0.0123 -0.6738
 5114TIP3    H136757   1.867   4.937  12.082  2.2251  0.9313 -0.4719
 5114TIP3    H236758   1.857   5.072  12.015  0.6193  0.2169 -1.7090
 5115TIP3   OH236759   3.155   2.729  13.221 -0.1298  0.8342  0.0402
 5115TIP3    H136760   3.163   2.798  13.155 -2.0293  1.3043  0.2901
 5115TIP3    H236761   3.063   2.703  13.219  0.6426 -2.0269 -0.3526
 5116TIP3   OH236762   0.024   2.334  12.563 -0.0214 -0.3226  0.4455
 5116TIP3    H136763  -0.010   2.417  12.597 -2.2430 -2.3261  3.4570
 5116TIP3    H236764  -0.033   2.314  12.489 -2.5596 -1.3401  2.5768
 5117TIP3   OH236765   2.914   6.055  11.526  0.2296  0.1796 -0.4186
 5117TIP3    H136766   2.965   6.088  11.600 -1.7511  2.5052 -0.0683
 5117TIP3    H236767   2.826   6.043  11.561 -0.0730 -1.4206 -1.6838
 5118TIP3   OH236768   4.757   2.862  11.448  0.3492 -0.1441 -1.2172
 5118TIP3    H136769   4.722   2.924  11.512  0.0185  0.6599 -2.1521
 5118TIP3    H236770   4.684   2.847  11.387  0.0706 -2.3225 -0.3724
 5119TIP3   OH236771   4.033   3.003  15.478  0.6392  0.0504  0.0598
 5119TIP3    H136772   4.118   3.045  15.493  1.2673 -1.4661  0.9023
 5119TIP3    H236773   3.990   3.005  15.564 -0.1148  0.6277 -0.3186
 5120TIP3   OH236774   3.271   0.283  13.605 -0.4921  0.3192  0.2182
 5120TIP3    H136775   3.199   0.346  13.600 -1.5168 -0.9673 -1.9518
 5120TIP3    H236776   3.229   0.201  13.630  0.5537  0.0561  1.1367
 5121TIP3   OH236777   0.124   5.109  12.414 -0.0064  0.0072  0.7305
 5121TIP3    H136778   0.096   5.174  12.349  1.7411 -1.6806 -1.8300
 5121TIP3    H236779   0.069   5.033  12.397 -1.1123  0.3376  2.8029
 5122TIP3   OH236780   5.710   5.121  10.807 -0.3104  0.0553 -0.0488
 5122TIP3    H136781   5.645   5.112  10.876  0.7158  1.3107  1.1099
 5122TIP3    H236782   5.725   5.215  10.799  1.4823 -0.2219 -0.1566
 5123TIP3   OH236783   4.088   3.818  11.104 -0.3253  0.0453  0.5880
 5123TIP3    H136784   4.149   3.766  11.156  0.7049  1.4055  0.7557
 5123TIP3    H236785   4.143   3.865  11.042 -1.1750  1.4636  0.8952
 5124TIP3   OH236786   0.002   4.800  14.325 -0.4897 -0.3779 -0.3193
 5124TIP3    H136787  -0.074   4.839  14.281  0.1789 -0.5328 -1.6319
 5124TIP3    H236788   0.020   4.721  14.275 -1.0678 -1.7562  1.5812
 5125TIP3   OH236789   1.791   6.026  10.179 -0.2221  0.0045  0.2695
 5125TIP3    H136790   1.737   6.040  10.101  1.4906  0.1402 -0.9183
 5125TIP3    H236791   1.816   5.934  10.175  0.7875  0.2790  0.0358
 5126TIP3   OH236792   3.229   5.114   9.872  0.2910  0.7568  0.3097
 5126TIP3    H136793   3.178   5.187   9.906 -2.0212 -0.6673  0.0090
 5126TIP3    H236794   3.283   5.085   9.945 -0.8521  0.9847  1.2435
 5127TIP3   OH236795   2.639   2.597  13.293 -0.8113 -0.3077  0.3338
 5127TIP3    H136796   2.568   2.617  13.354 -0.5638 -0.7360  0.7635
 5127TIP3    H236797   2.618   2.511  13.258 -1.2790  0.2125 -0.6584
 5128TIP3   OH236798   7.114   0.953  10.132  0.0208  0.3566  0.5983
 5128TIP3    H136799   7.055   0.969  10.205  0.0648  0.8967  0.5187
 5128TIP3    H236800   7.057   0.952  10.055  0.1009  0.7791  0.5321
 5129TIP3   OH236801   2.277   5.321  10.887 -0.2226  0.4851  0.1563
 5129TIP3    H136802   2.359   5.295  10.847  0.3147  2.1374  0.1292
 5129TIP3    H236803   2.267   5.263  10.962  0.9529  0.2653  0.1528
 5130TIP3   OH236804   2.956   6.637  10.146  0.4120  0.4306 -0.1423
 5130TIP3    H136805   2.954   6.593  10.061  0.2095 -0.6218  0.3974
 5130TIP3    H236806   2.920   6.573  10.207 -0.2758  1.5126  0.5967
 5131TIP3   OH236807   3.585   0.408  12.512 -0.1820  0.5184 -0.2207
 5131TIP3    H136808   3.665   0.359  12.533 -1.2694 -0.9406  0.6282
 5131TIP3    H236809   3.554   0.370  12.430  0.2452  1.3939 -0.7859
 5132TIP3   OH236810   5.528   7.083  12.257 -0.6774  0.0227  0.0162
 5132TIP3    H136811   5.454   7.022  12.260  0.9855 -2.0009  3.7122
 5132TIP3    H236812   5.551   7.088  12.164 -2.8828 -2.4958 -0.7458
 5133TIP3   OH236813   3.290   3.381  11.946  0.3910  0.1422  0.3463
 5133TIP3    H136814   3.337   3.446  11.893  1.1192 -0.7243 -0.0933
 5133TIP3    H236815   3.228   3.432  11.998  0.2551  1.0824 -0.7336
 5134TIP3   OH236816   6.747   3.766  14.807  0.2713  0.0927  0.2145
 5134TIP3    H136817   6.735   3.683  14.854  0.0174  0.7227  1.2869
 5134TIP3    H236818   6.693   3.757  14.729 -0.4758 -0.4021  0.7795
 5135TIP3   OH236819   6.841   6.570  12.719  0.0121 -0.3465  0.0402
 5135TIP3    H136820   6.804   6.638  12.663  0.2617 -0.0621  0.2253
 5135TIP3    H236821   6.789   6.492  12.699 -0.8209  0.1032  0.4628
 5136TIP3   OH236822   0.797   6.687  15.583 -0.2675 -0.0686  0.1158
 5136TIP3    H136823   0.827   6.774  15.610  1.1369 -0.5876  0.2751
 5136TIP3    H236824   0.790   6.638  15.665  0.3603 -0.5274 -0.0985
 5137TIP3   OH236825   0.507   4.805  12.134  0.2491 -0.0851 -0.5291
 5137TIP3    H136826   0.471   4.741  12.072 -1.0016  0.7047 -0.6338
 5137TIP3    H236827   0.563   4.861  12.080  3.0627 -2.3608 -0.0701
 5138TIP3   OH236828   5.933   7.121  12.767 -0.1902  0.3310 -0.3136
 5138TIP3    H136829   5.987   7.130  12.690  0.2349 -1.1555 -0.2159
 5138TIP3    H236830   5.992   7.136  12.841 -0.0519 -0.5653 -0.2284
 5139TIP3   OH236831   3.292   5.711  12.966 -0.0109 -0.1200 -0.3573
 5139TIP3    H136832   3.211   5.704  13.016  0.5090 -0.6083  0.4227
 5139TIP3    H236833   3.316   5.804  12.973  0.3844 -0.2994  0.8255
 5140TIP3   OH236834   7.139   2.866  12.179 -0.3695  0.1068 -0.1495
 5140TIP3    H136835   7.184   2.951  12.176 -0.2451 -0.0024 -2.9713
 5140TIP3    H236836   7.050   2.885  12.151 -0.4303 -0.6228 -0.4619
 5141TIP3   OH236837   1.374   0.036  10.891 -0.1354 -0.0509  0.1883
 5141TIP3    H136838   1.312   0.109  10.884 -0.8924 -0.4305  2.3877
 5141TIP3    H236839   1.355  -0.003  10.977  3.3587  0.0149  1.0552
 5142TIP3   OH236840   4.270   5.122  12.997  0.8327 -0.2141 -0.0128
 5142TIP3    H136841   4.209   5.182  13.039  2.0647  0.3533  0.9998
 5142TIP3    H236842   4.243   5.120  12.905  0.6057  1.6525  0.0079
 5143TIP3   OH236843   4.490   1.046  14.874 -0.2920  0.1094  0.2261
 5143TIP3    H136844   4.557   0.997  14.922  0.0674  1.1957  0.8684
 5143TIP3    H236845   4.521   1.047  14.783  1.3930  1.9169  0.7753
 5144TIP3   OH236846   0.669   0.862  15.817  0.1064 -0.2991  0.8299
 5144TIP3    H136847   0.653   0.856  15.723  1.9003  1.0040  0.4051
 5144TIP3    H236848   0.629   0.945  15.843 -0.4046 -0.6679  1.2155
 5145TIP3   OH236849   1.879   2.649  11.421  0.3626 -0.0361  0.4198
 5145TIP3    H136850   1.827   2.633  11.342 -1.6353  4.1385  0.7479
 5145TIP3    H236851   1.834   2.601  11.490 -0.6309  0.1038 -0.1200
 5146TIP3   OH236852   4.332   2.844  12.197 -0.2621  0.6407 -0.2562
 5146TIP3    H136853   4.284   2.771  12.237 -1.4313  1.0327 -0.9322
 5146TIP3    H236854   4.326   2.915  12.261  0.4769  0.3052  0.1963
 5147TIP3   OH236855   3.679   3.940  13.260  0.0310  0.0758 -0.1874
 5147TIP3    H136856   3.742   3.986  13.205  0.8724  0.1524  0.8279
 5147TIP3    H236857   3.595   3.979  13.238  0.0534 -1.2719 -2.9015
 5148TIP3   OH236858   3.164   3.131  11.872  0.4215  0.3875 -0.2039
 5148TIP3    H136859   3.210   3.214  11.888 -1.0717  1.5034 -1.5695
 5148TIP3    H236860   3.195   3.104  11.785  2.1412 -1.3580  0.9075
 5149TIP3   OH236861   3.257   6.800  13.412 -0.2556  0.0304  0.2355
 5149TIP3    H136862   3.306   6.814  13.493  0.5388  2.5882 -0.6492
 5149TIP3    H236863   3.324   6.793  13.344 -0.9880  0.4419 -0.5429
 5150TIP3   OH236864   2.453   5.042  13.100 -0.6633 -0.1883  0.6981
 5150TIP3    H136865   2.363   5.056  13.073 -0.6845 -0.4151  0.6492
 5150TIP3    H236866   2.491   5.129  13.104 -0.7743 -0.1265  0.3440
 5151TIP3   OH236867   4.581   6.462  13.167  0.1667 -0.5444  0.2680
 5151TIP3    H136868   4.658   6.459  13.224 -0.7710  1.4805  1.6803
 5151TIP3    H236869   4.549   6.552  13.174 -0.6364 -0.5581 -2.6027
 5152TIP3   OH236870   2.905   0.548  12.432 -0.4911 -0.6754 -0.2972
 5152TIP3    H136871   2.836   0.613  12.420 -1.3505 -0.9788  2.6138
 5152TIP3    H236872   2.860   0.464  12.424 -0.4980 -0.8738  1.6349
 5153TIP3   OH236873   3.975   6.247  12.222  0.3164 -0.8414 -0.2478
 5153TIP3    H136874   4.012   6.168  12.261  0.9291  0.1190  1.1700
 5153TIP3    H236875   4.034   6.317  12.249 -1.0465  0.3290 -0.2211
 5154TIP3   OH236876   2.839   2.730  14.920  0.0333 -0.3569 -0.1230
 5154TIP3    H136877   2.928   2.697  14.905  0.4636  1.2609 -1.3862
 5154TIP3    H236878   2.782   2.662  14.884  0.7415 -1.6186  1.1196
 5155TIP3   OH236879   2.646   6.278  10.962 -0.1829  0.0318 -0.6614
 5155TIP3    H136880   2.719   6.219  10.978 -1.4609 -2.1826 -2.7339
 5155TIP3    H236881   2.666   6.320  10.878 -0.5306  0.5967 -0.4670
 5156TIP3   OH236882   6.795   6.827  10.535 -0.4703  0.2377 -0.0239
 5156TIP3    H136883   6.810   6.920  10.550 -0.7835  0.5913 -1.8343
 5156TIP3    H236884   6.724   6.804  10.595  0.0955  0.9740  0.9554
 5157TIP3   OH236885   4.655   5.734  13.229  0.0185 -0.2427 -0.4957
 5157TIP3    H136886   4.677   5.812  13.280  2.1980  0.5234 -2.5322
 5157TIP3    H236887   4.726   5.673  13.246  0.6952 -0.0319 -2.4725
 5158TIP3   OH236888   4.943   4.557  10.721  0.3568  0.2712  0.3857
 5158TIP3    H136889   5.027   4.602  10.728 -0.5939  2.1857 -0.0752
 5158TIP3    H236890   4.878   4.624  10.741 -1.1149 -0.9513 -0.1587
 5159TIP3   OH236891   0.912   5.790  13.121  0.1099 -0.1857 -0.1718
 5159TIP3    H136892   0.941   5.799  13.212 -2.7083 -3.6954  1.1990
 5159TIP3    H236893   0.989   5.763  13.073  0.7788 -2.2528  1.9799
 5160TIP3   OH236894   1.220   5.779   9.903 -0.4435  1.1898  0.2428
 5160TIP3    H136895   1.217   5.710   9.970  3.0157 -0.0857 -0.8347
 5160TIP3    H236896   1.135   5.772   9.859 -0.6540 -1.5506  0.9953
 5161TIP3   OH236897   3.483   1.037  13.955  0.3218  0.3114  0.3303
 5161TIP3    H136898   3.474   1.012  14.047  0.9209  0.8290  0.5253
 5161TIP3    H236899   3.577   1.043  13.940  0.2473 -0.4228 -0.4928
 5162TIP3   OH236900   3.252   5.348  12.061 -0.1150  0.4068 -0.4222
 5162TIP3    H136901   3.207   5.430  12.043  0.3166  0.9522  0.9431
 5162TIP3    H236902   3.247   5.338  12.156  1.4147 -0.2353 -0.3933
 5163TIP3   OH236903   6.841   5.776  15.955  0.2533  0.2239 -0.1033
 5163TIP3    H136904   6.926   5.798  15.917  0.7544  0.0521  0.9081
 5163TIP3    H236905   6.800   5.719  15.890  0.9405  0.2491 -0.5648
 5164TIP3   OH236906   3.030   2.909  12.345 -0.1310 -0.1692 -0.6528
 5164TIP3    H136907   3.020   2.985  12.289 -0.0659 -0.7944 -1.5241
 5164TIP3    H236908   3.047   2.945  12.432  0.1178  0.7993 -1.0991
 5165TIP3   OH236909   4.322   3.725  11.262  0.1512 -0.3491 -0.8851
 5165TIP3    H136910   4.390   3.761  11.319  0.0983 -0.8569 -0.5012
 5165TIP3    H236911   4.370   3.677  11.195  0.2753  1.4122 -2.0872
 5166TIP3   OH236912   3.180   1.290  13.058  0.7032 -0.5052  0.1674
 5166TIP3    H136913   3.146   1.205  13.033  1.0671 -0.2416 -1.2534
 5166TIP3    H236914   3.124   1.353  13.013 -0.4099  0.0727  2.2539
 5167TIP3   OH236915   1.056   2.444  13.026 -0.2542  0.3262 -0.6249
 5167TIP3    H136916   1.121   2.485  12.970 -0.2238 -1.0493 -1.6354
 5167TIP3    H236917   0.987   2.510  13.036  1.4216  1.9317  0.7575
 5168TIP3   OH236918   5.182   3.475  10.029 -0.0819  0.2010  0.2250
 5168TIP3    H136919   5.258   3.441   9.982  0.6277  0.5482  1.0817
 5168TIP3    H236920   5.202   3.568  10.041  0.3469 -0.1246  2.2776
 5169TIP3   OH236921   3.096   4.350  10.303  0.3820  0.3957 -0.5085
 5169TIP3    H136922   3.140   4.274  10.265  2.6681  1.2596  0.3356
 5169TIP3    H236923   3.152   4.424  10.282 -2.4578  2.0841 -2.3907
 5170TIP3   OH236924   2.202   5.645  13.160  0.3339 -0.3558 -0.0163
 5170TIP3    H136925   2.145   5.690  13.222 -0.3200  0.3312 -1.1093
 5170TIP3    H236926   2.151   5.569  13.132 -0.1612  0.3932 -1.1804
 5171TIP3   OH236927   4.753   5.989  13.379 -0.1279 -0.6973 -0.8628
 5171TIP3    H136928   4.824   5.977  13.442  0.1256  1.1221 -0.7812
 5171TIP3    H236929   4.793   5.967  13.294  0.0132 -1.4542 -0.6070
 5172TIP3   OH236930   6.043   3.755  10.952 -0.1848 -1.2337  0.2918
 5172TIP3    H136931   6.127   3.775  10.910 -0.8772 -0.3548 -0.7239
 5172TIP3    H236932   6.000   3.840  10.962 -0.8648 -1.6514  0.9780
 5173TIP3   OH236933   5.800   7.114  15.471  0.0712 -0.2009 -0.2417
 5173TIP3    H136934   5.806   7.198  15.516  0.6831  0.2096 -1.0653
 5173TIP3    H236935   5.867   7.060  15.514  1.5578  0.6017 -1.4975
 5174TIP3   OH236936   1.209   6.186  14.500 -0.1153 -0.0207 -0.3267
 5174TIP3    H136937   1.165   6.199  14.416  1.1074 -0.1959 -1.0112
 5174TIP3    H236938   1.269   6.261  14.507  0.1402 -0.2666  0.1527
 5175TIP3   OH236939   4.543   2.580  13.049 -0.2409  0.2431 -0.4340
 5175TIP3    H136940   4.549   2.509  13.112 -1.4533 -0.9897 -1.6683
 5175TIP3    H236941   4.569   2.541  12.965 -2.2877  0.8601 -1.3902
 5176TIP3   OH236942   2.956   4.887  10.948 -0.4597  0.0852 -0.3106
 5176TIP3    H136943   2.986   4.936  11.025  0.7857  1.7066 -1.7904
 5176TIP3    H236944   2.931   4.801  10.983  1.2649  0.3538  1.7128
 5177TIP3   OH236945   2.686   3.160  12.295 -0.1735 -0.5146  0.4622
 5177TIP3    H136946   2.761   3.218  12.284 -0.4717 -0.3342 -0.6313
 5177TIP3    H236947   2.669   3.125  12.208 -2.5895  0.9602  0.2792
 5178TIP3   OH236948   5.571   3.628  13.875  0.3688 -0.0216  0.0122
 5178TIP3    H136949   5.588   3.551  13.822  1.1117  0.4955 -0.5177
 5178TIP3    H236950   5.611   3.609  13.959 -1.2639 -1.0563  0.5734
 5179TIP3   OH236951   6.188   5.206  12.266 -0.0116  0.3728 -0.6380
 5179TIP3    H136952   6.202   5.112  12.262 -0.4410  0.3519 -2.0274
 5179TIP3    H236953   6.244   5.236  12.338 -0.2240 -0.9921  0.1153
 5180TIP3   OH236954   2.122   3.374   0.138  0.0523 -0.0771 -0.1186
 5180TIP3    H136955   2.037   3.395   0.098  0.3605 -0.4353 -0.9863
 5180TIP3    H236956   2.120   3.418   0.223 -0.1623  1.6495 -0.9962
 5181TIP3   OH236957   5.125   4.090  14.092 -0.0563  0.0695  0.5176
 5181TIP3    H136958   5.205   4.121  14.134 -0.2628 -0.3299  1.2011
 5181TIP3    H236959   5.149   4.005  14.055  0.0914  0.3674 -0.0863
 5182TIP3   OH236960   3.433   5.129  15.978  0.2836 -0.1764  0.1267
 5182TIP3    H136961   3.397   5.211  16.013  0.4502 -0.5626  1.2198
 5182TIP3    H236962   3.481   5.156  15.900  1.7936  1.0406  1.4154
 5183TIP3   OH236963   2.952   2.658  11.475  0.0167 -0.1244  0.8464
 5183TIP3    H136964   2.945   2.656  11.379 -0.6707 -0.6177  0.9030
 5183TIP3    H236965   3.046   2.650  11.492  0.1487 -0.0059  0.2133
 5184TIP3   OH236966   3.504   6.066  11.214  0.2192  0.5236  0.6532
 5184TIP3    H136967   3.587   6.084  11.257  0.1194  1.7986  0.3067
 5184TIP3    H236968   3.462   6.001  11.271  2.3663 -1.7899 -0.3194
 5185TIP3   OH236969   1.282   3.898  10.805  0.6211  0.7150 -0.2543
 5185TIP3    H136970   1.334   3.962  10.853  0.5024  0.0689  0.7529
 5185TIP3    H236971   1.232   3.852  10.872  0.6563 -0.3882 -0.9645
 5186TIP3   OH236972   2.654   5.970  14.670 -0.1956 -0.2640 -0.0762
 5186TIP3    H136973   2.674   5.884  14.633  0.3076 -0.6235  1.0366
 5186TIP3    H236974   2.560   5.967  14.687 -0.3699 -0.2220 -0.9764
 5187TIP3   OH236975   4.274   5.074  14.350  0.3434 -0.4204  0.5316
 5187TIP3    H136976   4.367   5.083  14.367  0.8608 -3.3019 -0.4907
 5187TIP3    H236977   4.240   5.026  14.426  0.4887 -2.8690 -0.8760
 5188TIP3   OH236978   3.680   7.212  13.564  0.2345  0.5571  0.0867
 5188TIP3    H136979   3.756   7.195  13.509  1.2936 -0.8144  1.8929
 5188TIP3    H236980   3.698   7.297  13.605 -0.0358  1.0431 -0.7756
 5189TIP3   OH236981   3.655   1.588  11.809  0.1299 -0.6832 -0.3020
 5189TIP3    H136982   3.613   1.576  11.724 -1.4645 -1.4261  0.5565
 5189TIP3    H236983   3.609   1.662  11.848 -0.5902 -1.6547  0.7475
 5190TIP3   OH236984   3.838   4.661  12.690  0.2301 -0.4800  0.2874
 5190TIP3    H136985   3.767   4.719  12.662  0.7244 -0.5284 -1.1045
 5190TIP3    H236986   3.810   4.627  12.775 -0.9471  0.2798  0.2093
 5191TIP3   OH236987   3.197   2.430  12.935 -0.3304  0.9071 -0.6164
 5191TIP3    H136988   3.265   2.393  12.880  0.9398  0.3301  1.2886
 5191TIP3    H236989   3.231   2.516  12.961  0.7108 -0.2508  2.0842
 5192TIP3   OH236990   2.988   2.370  11.949  0.2158  0.4166  0.6196
 5192TIP3    H136991   2.907   2.320  11.937 -0.2254  0.8801  1.6410
 5192TIP3    H236992   3.046   2.336  11.880 -0.9197  0.2677 -0.2978
 5193TIP3   OH236993   3.868   5.886  14.401  0.4519  0.4692 -0.0004
 5193TIP3    H136994   3.860   5.950  14.472 -0.1548 -2.4793  2.7435
 5193TIP3    H236995   3.778   5.875  14.369  0.9459  2.9781 -2.4094
 5194TIP3   OH236996   4.787   2.869  13.176 -0.1950 -0.3753  0.2850
 5194TIP3    H136997   4.820   2.959  13.183 -0.8919  0.0177 -1.1783
 5194TIP3    H236998   4.695   2.879  13.151 -0.2885 -1.5028  0.1503
 5195TIP3   OH236999   1.275   3.218  11.276  0.1187 -0.2629  0.3252
 5195TIP3    H137000   1.270   3.172  11.193 -1.9307  1.5599 -0.6262
 5195TIP3    H237001   1.215   3.171  11.334  0.3385 -0.5926  0.2825
 5196TIP3   OH237002   3.646   3.737  15.865  0.0521 -0.1390  0.2217
 5196TIP3    H137003   3.726   3.707  15.823 -0.7845  0.4804 -1.8596
 5196TIP3    H237004   3.575   3.707  15.808 -1.1041  0.9134  1.0573
 5197TIP3   OH237005   4.387   3.387  11.269  0.0465 -0.1759 -0.5733
 5197TIP3    H137006   4.431   3.436  11.199 -0.7704  0.6209 -0.5341
 5197TIP3    H237007   4.366   3.303  11.229  0.9515 -0.2988 -0.8136
 5198TIP3   OH237008   4.345   2.354  11.471 -0.3965 -0.2490 -0.1117
 5198TIP3    H137009   4.386   2.395  11.395  0.2643 -2.5655 -1.0180
 5198TIP3    H237010   4.400   2.279  11.491 -0.8741  0.0026  2.3426
 5199TIP3   OH237011   3.762   4.132  15.386 -0.1879 -0.3051  0.4497
 5199TIP3    H137012   3.775   4.112  15.479 -0.0022  1.7034  0.8797
 5199TIP3    H237013   3.711   4.213  15.386 -0.0409 -0.1914 -1.2143
 5200TIP3   OH237014   6.386   2.614  12.734  0.3469  0.1569 -0.3657
 5200TIP3    H137015   6.440   2.688  12.760  1.0752  0.2301 -1.9855
 5200TIP3    H237016   6.332   2.648  12.663 -0.2798 -0.5005 -0.2053
 5201TIP3   OH237017   1.498   3.515  12.293  0.0880  0.8068 -0.3379
 5201TIP3    H137018   1.584   3.478  12.275  0.6252  1.6862  0.3531
 5201TIP3    H237019   1.450   3.445  12.337  0.3335  0.2093 -1.0186
 5202TIP3   OH237020   4.539   4.298  12.006  0.3961 -0.0005 -0.0956
 5202TIP3    H137021   4.594   4.236  11.957 -0.4971 -0.3811 -0.6275
 5202TIP3    H237022   4.599   4.368  12.033  1.1850 -0.5333 -0.4606
 5203TIP3   OH237023   4.159   4.189  10.675  0.0463  0.7380 -0.1530
 5203TIP3    H137024   4.128   4.107  10.713  2.3232 -1.3551 -2.6390
 5203TIP3    H237025   4.139   4.182  10.582  1.8670  2.2485 -0.6880
 5204TIP3   OH237026   6.428   4.510  15.268  0.3707  0.2539  0.2093
 5204TIP3    H137027   6.403   4.427  15.227 -1.1209  0.1201  1.3615
 5204TIP3    H237028   6.470   4.485  15.350  0.6790  0.6232  0.1679
 5205TIP3   OH237029   3.793   3.054  10.393 -0.0369  0.0280  0.0785
 5205TIP3    H137030   3.821   3.036  10.303 -0.0422  1.8194 -0.3051
 5205TIP3    H237031   3.700   3.073  10.386 -0.5606 -2.1534  0.8180
 5206TIP3   OH237032   3.594   2.425  12.647 -0.9965 -0.0476  0.1980
 5206TIP3    H137033   3.500   2.408  12.655 -1.1828  0.8478 -0.1219
 5206TIP3    H237034   3.602   2.520  12.641 -0.0593 -0.1078  0.3178
 5207TIP3   OH237035   4.804   5.360  11.640 -0.1207 -0.4083  0.3631
 5207TIP3    H137036   4.790   5.267  11.660  0.9011 -0.5657  0.3216
 5207TIP3    H237037   4.724   5.386  11.594 -0.4451 -1.2426  0.4409
 5208TIP3   OH237038   0.251   4.927  12.169 -0.2372 -0.0526  0.6882
 5208TIP3    H137039   0.342   4.928  12.141 -0.7656  0.7038 -1.0983
 5208TIP3    H237040   0.201   4.949  12.090 -1.9017  0.5531  1.8736
 5209TIP3   OH237041   5.456   2.331  15.422 -0.4562  0.3916 -0.1213
 5209TIP3    H137042   5.379   2.279  15.396  0.0215  0.7881 -2.4204
 5209TIP3    H237043   5.480   2.296  15.507 -0.9685 -2.2673 -1.0155
 5210TIP3   OH237044   4.426   4.298  10.625  0.1029  0.4734  0.1737
 5210TIP3    H137045   4.439   4.379  10.674 -2.5980  0.5924  0.7645
 5210TIP3    H237046   4.331   4.292  10.614  0.3790 -1.8619 -1.1466
 5211TIP3   OH237047   1.479   2.610  11.220  0.0097 -0.0537 -0.3540
 5211TIP3    H137048   1.545   2.594  11.287 -0.0119 -0.0986 -0.3422
 5211TIP3    H237049   1.525   2.599  11.137  0.5949  2.2769 -0.3555
 5212TIP3   OH237050   4.926   2.774  10.755 -0.0055 -0.0286  0.7249
 5212TIP3    H137051   4.882   2.836  10.697  0.2385 -0.4497  0.0829
 5212TIP3    H237052   4.915   2.689  10.711 -0.7157 -0.5065  1.8099
 5213TIP3   OH237053   2.713   2.297  10.672 -0.0012  0.0004  0.3369
 5213TIP3    H137054   2.707   2.248  10.754 -1.9746  0.1867  0.3265
 5213TIP3    H237055   2.652   2.252  10.613 -0.6006  1.4837 -0.1889
 5214TIP3   OH237056   0.321   0.568  11.972  0.0422  0.1672 -0.1312
 5214TIP3    H137057   0.294   0.492  12.023 -2.2281  3.0586  3.2135
 5214TIP3    H237058   0.275   0.559  11.889 -0.5397 -1.8623  0.3899
 5215TIP3   OH237059   3.728   3.720  11.744  0.7338  0.4823  0.3666
 5215TIP3    H137060   3.733   3.748  11.835 -0.4708 -0.1577  0.6371
 5215TIP3    H237061   3.769   3.633  11.743 -1.4070 -0.5690  0.7761
 5216TIP3   OH237062   6.534   0.228  15.076 -0.0370  0.2401 -0.2086
 5216TIP3    H137063   6.503   0.145  15.038 -1.7957  0.7024  0.1508
 5216TIP3    H237064   6.465   0.291  15.055  1.0517  1.5108 -0.0391
 5217TIP3   OH237065   0.606   1.992  15.085  0.6369 -0.0441  0.0410
 5217TIP3    H137066   0.659   2.063  15.049  0.0670  0.2913 -0.1327
 5217TIP3    H237067   0.522   1.999  15.041  0.2337 -0.1895  0.7742
 5218TIP3   OH237068   1.753   2.124  13.700  0.6233 -0.0778  0.4009
 5218TIP3    H137069   1.683   2.112  13.764 -2.1348 -0.5243 -2.6390
 5218TIP3    H237070   1.811   2.049  13.714 -0.5611 -0.7956  1.5698
 5219TIP3   OH237071   6.080   5.616  14.399  0.8507 -0.6427 -0.0276
 5219TIP3    H137072   6.088   5.711  14.399  1.3329 -0.6826  0.4602
 5219TIP3    H237073   6.169   5.584  14.381  0.6590 -0.9965 -0.3555
 5220TIP3   OH237074   3.267   7.119  14.578  0.3168  0.2694 -0.5762
 5220TIP3    H137075   3.362   7.110  14.586  0.2874 -1.8175 -2.1917
 5220TIP3    H237076   3.255   7.192  14.516  0.8648  0.4863 -0.4319
 5221TIP3   OH237077   0.740   3.202  12.516  0.3258 -0.0958  0.7271
 5221TIP3    H137078   0.728   3.266  12.586  0.2227  0.4623  0.1994
 5221TIP3    H237079   0.835   3.196  12.506  0.3012  1.0282 -0.1904
 5222TIP3   OH237080   3.598   4.883  11.846  0.4049  0.5911 -0.1242
 5222TIP3    H137081   3.518   4.893  11.897  0.3849  0.2261 -0.0845
 5222TIP3    H237082   3.657   4.950  11.880  1.0218 -0.7779  1.5795
 5223TIP3   OH237083   2.844   5.637  13.924 -0.9394  0.6613 -0.7852
 5223TIP3    H137084   2.748   5.636  13.925 -0.9361  0.8117 -0.2111
 5223TIP3    H237085   2.868   5.701  13.991 -0.4143 -0.5990  0.2367
 5224TIP3   OH237086   2.188   2.268  10.691  0.6725  0.4612  0.0720
 5224TIP3    H137087   2.182   2.188  10.742 -1.8019  0.0037 -0.8659
 5224TIP3    H237088   2.170   2.241  10.601 -2.8096  2.3968  0.0887
 5225TIP3   OH237089   6.100   1.230  13.617 -0.7793  0.2971  0.2039
 5225TIP3    H137090   6.051   1.203  13.695 -0.2776 -0.0996  0.3905
 5225TIP3    H237091   6.179   1.176  13.620 -1.0692 -0.2079 -0.9439
 5226TIP3   OH237092   7.237   6.092  15.463 -0.1953  0.2335  0.3699
 5226TIP3    H137093   7.217   6.186  15.463  1.3229  0.5751  1.2238
 5226TIP3    H237094   7.272   6.075  15.551 -2.4485 -1.5862  0.9563
 5227TIP3   OH237095   0.459   6.010  12.551  0.0031 -0.1244 -0.0828
 5227TIP3    H137096   0.533   5.949  12.545  0.0432  0.0932 -1.8836
 5227TIP3    H237097   0.499   6.091  12.585  0.7174  0.1565 -1.5327
 5228TIP3   OH237098   4.724   1.601   0.271  0.0477  0.1814 -0.4083
 5228TIP3    H137099   4.801   1.653   0.248 -0.9166  1.4186 -0.9117
 5228TIP3    H237100   4.689   1.645   0.349 -0.3733 -0.1398 -0.4175
 5229TIP3   OH237101   4.197   4.093  11.640  0.5706  0.3406 -0.0655
 5229TIP3    H137102   4.239   4.077  11.725  0.5713  2.1836  0.3073
 5229TIP3    H237103   4.153   4.178  11.651 -0.7562 -0.1564 -1.4048
 5230TIP3   OH237104   1.592   5.481  12.466  0.4369 -0.2489  0.1390
 5230TIP3    H137105   1.569   5.555  12.409  0.2856 -0.6475 -0.3141
 5230TIP3    H237106   1.572   5.513  12.554 -0.1281  0.0685 -0.0949
 5231TIP3   OH237107   0.850   7.137  10.350  0.1003  0.6926  0.3213
 5231TIP3    H137108   0.905   7.170  10.279  2.3536 -2.1418  0.6502
 5231TIP3    H237109   0.880   7.183  10.428 -0.5507  1.8622 -0.1144
 5232TIP3   OH237110   4.384   2.785  14.374 -1.0579  0.1783 -0.3049
 5232TIP3    H137111   4.475   2.781  14.405 -1.3446  2.2461  0.9393
 5232TIP3    H237112   4.340   2.714  14.420 -0.5629  0.6485  0.9525
 5233TIP3   OH237113   2.242   5.869  10.714  0.6142 -0.3811  0.0559
 5233TIP3    H137114   2.319   5.925  10.721  0.5543 -0.3236  0.2736
 5233TIP3    H237115   2.173   5.927  10.680  0.5450 -0.3180  0.3056
 5234TIP3   OH237116   3.142   4.104  13.096 -0.5427 -0.4534  0.1711
 5234TIP3    H137117   3.199   4.180  13.108 -0.5222 -0.6846  1.5775
 5234TIP3    H237118   3.152   4.053  13.177 -2.5642 -0.6277  0.3276
 5235TIP3   OH237119   6.775   5.694  10.688  0.5071  0.0220 -0.6446
 5235TIP3    H137120   6.762   5.600  10.679 -1.3779  0.1715  0.3604
 5235TIP3    H237121   6.715   5.733  10.624 -0.8086  0.5945  0.9094
 5236TIP3   OH237122   2.839   4.927  14.008  0.1951  0.5285  0.1058
 5236TIP3    H137123   2.918   4.979  14.019 -0.2716  1.3298 -0.2740
 5236TIP3    H237124   2.770   4.991  13.991 -0.4378 -0.1939 -0.0920
 5237TIP3   OH237125   2.213   4.464  12.752  0.7737 -0.1744 -0.7990
 5237TIP3    H137126   2.168   4.432  12.831  2.0534  0.5851  0.2687
 5237TIP3    H237127   2.152   4.525  12.712  0.7975  0.7911  0.5965
 5238TIP3   OH237128   7.203   4.391  12.583 -0.1085  0.4577  0.2688
 5238TIP3    H137129   7.124   4.349  12.550  0.1666  0.7914 -0.8316
 5238TIP3    H237130   7.269   4.322  12.582 -0.8312 -0.3691  3.0577
 5239TIP3   OH237131   1.651   3.665  10.662 -0.4569  0.0127 -0.1101
 5239TIP3    H137132   1.558   3.646  10.678 -0.9697  1.9745 -0.4849
 5239TIP3    H237133   1.699   3.600  10.713 -2.0473  0.4332  1.9898
 5240TIP3   OH237134   1.095   7.302  13.657  0.1164 -0.3647 -0.1767
 5240TIP3    H137135   1.085   7.363  13.730 -0.8310  0.9000 -1.3131
 5240TIP3    H237136   1.098   7.216  13.697 -0.5441  0.3039  1.3409
 5241TIP3   OH237137   2.980   5.055  13.383  0.0255  0.4979 -0.5415
 5241TIP3    H137138   2.939   4.972  13.405  0.0886  0.8603  0.9872
 5241TIP3    H237139   3.010   5.044  13.293  0.2822 -1.2246 -0.2560
 5242TIP3   OH237140   0.694   4.139  10.714 -0.4219  0.2978  0.0287
 5242TIP3    H137141   0.728   4.164  10.628  0.5433  0.9167  0.5836
 5242TIP3    H237142   0.694   4.043  10.713 -0.2671  0.3053 -0.6140
 5243TIP3   OH237143   1.562   4.867  15.424  0.3769  0.1325  0.5478
 5243TIP3    H137144   1.495   4.935  15.419  0.6672  0.3573 -0.3933
 5243TIP3    H237145   1.530   4.807  15.492 -1.6082 -0.6469 -1.0159
 5244TIP3   OH237146   4.036   0.459  13.340  0.0930  0.4372  0.6528
 5244TIP3    H137147   3.983   0.402  13.285 -1.7882  2.1449  0.6311
 5244TIP3    H237148   4.097   0.400  13.385 -0.1633 -1.2782 -1.1894
 5245TIP3   OH237149   3.679   4.015  14.354 -0.0449  0.1584  0.6839
 5245TIP3    H137150   3.693   4.110  14.353 -0.8638  0.2972  2.0597
 5245TIP3    H237151   3.614   4.000  14.285  2.2073  0.2297 -1.5343
 5246TIP3   OH237152   3.967   1.207   0.650  0.1748  0.1664  0.2024
 5246TIP3    H137153   3.929   1.167   0.572 -1.2247  1.1324  0.3553
 5246TIP3    H237154   3.997   1.293   0.621 -0.8517  0.7488  0.8315
 5247TIP3   OH237155   2.917   3.991  11.875 -0.2069 -0.1353  0.4180
 5247TIP3    H137156   2.891   3.933  11.804 -3.3541 -0.5371  1.8137
 5247TIP3    H237157   2.897   4.079  11.842  1.2185 -0.0860 -0.3392
 5248TIP3   OH237158   1.533   0.313  10.951 -0.2568 -0.8248  0.5473
 5248TIP3    H137159   1.456   0.264  10.921  0.5682 -0.7794 -1.7200
 5248TIP3    H237160   1.605   0.281  10.897  0.4756  2.2101 -0.3848
 5249TIP3   OH237161   1.860   3.276  11.284  0.4157  0.3845 -0.4413
 5249TIP3    H137162   1.824   3.215  11.348 -0.8554  1.2655 -0.3078
 5249TIP3    H237163   1.885   3.353  11.336 -0.7353  1.1509 -0.9965
 5250TIP3   OH237164   4.765   2.725  13.851 -0.2144 -0.3244 -0.3247
 5250TIP3    H137165   4.704   2.748  13.781 -1.7735 -0.4995  0.9342
 5250TIP3    H237166   4.710   2.683  13.917  1.1075  0.3903  1.2619
 5251TIP3   OH237167   1.570   5.518  12.755  0.4756  0.4510  0.3392
 5251TIP3    H137168   1.562   5.504  12.849  0.7523 -0.9609  0.1511
 5251TIP3    H237169   1.557   5.613  12.744 -0.4967  0.4891  1.6872
 5252TIP3   OH237170   6.083   2.347  13.701  0.3351 -0.2561 -0.4679
 5252TIP3    H137171   6.055   2.365  13.611  2.0389  0.0924 -0.9370
 5252TIP3    H237172   6.148   2.278  13.692 -0.6717 -1.3857  0.6662
 5253TIP3   OH237173   4.784   2.808  12.265 -0.5279 -0.8798 -0.4191
 5253TIP3    H137174   4.845   2.770  12.202  1.0129  0.7708  0.0390
 5253TIP3    H237175   4.840   2.847  12.332 -2.1076 -0.0774  0.4600
 5254TIP3   OH237176   5.235   1.365  11.907  0.3543 -0.1769 -0.0419
 5254TIP3    H137177   5.201   1.452  11.888  0.0745 -0.2765  0.0019
 5254TIP3    H237178   5.321   1.363  11.864  0.3190  0.0829 -0.1248
 5255TIP3   OH237179   6.194   3.812  11.480  0.3428  0.4205  0.5474
 5255TIP3    H137180   6.136   3.840  11.551 -2.3408 -0.5333 -1.1931
 5255TIP3    H237181   6.203   3.889  11.424 -1.8000 -0.2449 -0.7951
 5256TIP3   OH237182   5.435   3.098  10.200  0.7473 -0.1532  0.1973
 5256TIP3    H137183   5.414   3.057  10.116 -0.0561  1.0405 -0.1946
 5256TIP3    H237184   5.530   3.111  10.197  1.0675 -2.2557  0.4632
 5257TIP3   OH237185   4.824   3.546  11.753  0.0521  0.2932 -0.0617
 5257TIP3    H137186   4.875   3.623  11.726  0.8328 -0.4724 -0.8152
 5257TIP3    H237187   4.849   3.531  11.844  0.5929  0.3985 -0.1880
 5258TIP3   OH237188   4.943   6.191  12.942  0.3051 -0.0495  0.2074
 5258TIP3    H137189   4.992   6.272  12.932 -2.9829  1.9319 -0.7080
 5258TIP3    H237190   4.901   6.199  13.028  2.7168 -2.4304  1.6885
 5259TIP3   OH237191   6.329   3.503  12.676  0.3523 -0.1558  0.0585
 5259TIP3    H137192   6.267   3.576  12.673 -0.8898 -1.0583  2.0913
 5259TIP3    H237193   6.279   3.432  12.717  2.2498 -1.4160  0.2382
 5260TIP3   OH237194   5.418   4.543  10.965 -0.4404  0.1948  0.2229
 5260TIP3    H137195   5.453   4.567  11.051  1.6847  0.0309 -0.5635
 5260TIP3    H237196   5.393   4.452  10.974  1.7434 -0.4411  0.0989
 5261TIP3   OH237197   4.881   4.313  10.589 -0.1874  0.0795 -0.3022
 5261TIP3    H137198   4.793   4.337  10.558  0.2985 -0.2706 -1.9726
 5261TIP3    H237199   4.906   4.386  10.646 -1.6838  0.0301  0.4626
 5262TIP3   OH237200   5.734   5.324  11.590  0.1512 -0.1080 -0.9298
 5262TIP3    H137201   5.767   5.303  11.678  2.2335 -0.4446 -1.7701
 5262TIP3    H237202   5.690   5.409  11.601 -1.3286 -1.0516  0.8238
 5263TIP3   OH237203   3.863   3.365  13.648  0.3782 -0.3472  0.3184
 5263TIP3    H137204   3.875   3.372  13.743  0.7858 -0.0479  0.2493
 5263TIP3    H237205   3.871   3.272  13.629 -2.6321 -0.7955  0.9524
 5264TIP3   OH237206   4.325   3.076  14.777  0.1992  0.3392  0.6315
 5264TIP3    H137207   4.404   3.092  14.725 -0.6100 -0.4349 -0.8640
 5264TIP3    H237208   4.313   3.157  14.827  0.5549  1.4106 -0.9739
 5265TIP3   OH237209   1.838   3.414  10.336  0.1895  0.1100 -0.0847
 5265TIP3    H137210   1.908   3.479  10.344 -1.2616  1.5494  1.3405
 5265TIP3    H237211   1.813   3.417  10.244 -0.2292  1.9997  0.0704
 5266TIP3   OH237212   1.555   3.455  10.193  0.1205  0.0145 -0.3327
 5266TIP3    H137213   1.576   3.362  10.186  1.4422  0.2017  0.8935
 5266TIP3    H237214   1.619   3.498  10.137  0.8251  0.3322  0.7067
 5267TIP3   OH237215   4.766   1.733   0.867  0.5069 -0.2362 -0.0031
 5267TIP3    H137216   4.856   1.713   0.843  0.9552  3.9163 -2.1950
 5267TIP3    H237217   4.774   1.787   0.946 -0.1175 -0.4846  0.2367
 5268TIP3   OH237218   6.984   1.672  11.973  0.0152 -0.1948 -0.1106
 5268TIP3    H137219   7.023   1.606  11.915  2.9032  2.4269 -1.2970
 5268TIP3    H237220   6.970   1.625  12.055  0.5361 -2.6879 -1.3695
 5269TIP3   OH237221   4.707   2.455  14.533  0.1116  0.4811  0.2835
 5269TIP3    H137222   4.786   2.490  14.492 -0.8807 -0.3153 -2.4330
 5269TIP3    H237223   4.679   2.384  14.474 -2.1909  0.2583  1.5887
 5270TIP3   OH237224   4.708   2.197  12.666 -0.4399 -0.2816  0.1452
 5270TIP3    H137225   4.738   2.122  12.615 -0.8663  0.0225 -0.5593
 5270TIP3    H237226   4.704   2.269  12.603  0.3801  0.4418  0.9005
 5271TIP3   OH237227   1.952   6.339  12.491 -0.1763 -0.0254 -0.0863
 5271TIP3    H137228   2.005   6.271  12.451 -0.5987 -0.6320  0.3854
 5271TIP3    H237229   2.010   6.415  12.497  0.3142 -0.3673 -0.5294
 5272TIP3   OH237230   5.435   4.404  14.983 -0.2074 -0.2213 -0.3232
 5272TIP3    H137231   5.355   4.418  15.033  1.1161 -1.7294  2.2894
 5272TIP3    H237232   5.482   4.487  14.990 -0.6707  0.0419 -0.2929
 5273TIP3   OH237233   1.291   1.717  12.946  0.0676  0.3195  0.2737
 5273TIP3    H137234   1.197   1.718  12.964  0.1592  1.0628  0.7135
 5273TIP3    H237235   1.325   1.644  12.998 -0.4402 -0.6672 -0.7714
 5274TIP3   OH237236   3.271   3.422  10.771 -0.3650 -0.1152  0.1825
 5274TIP3    H137237   3.363   3.416  10.795  0.0713 -2.0636 -1.8372
 5274TIP3    H237238   3.271   3.475  10.691 -1.3030  2.1819  1.6498
 5275TIP3   OH237239   3.174   4.124  12.481 -0.0526  0.6441 -0.0828
 5275TIP3    H137240   3.244   4.067  12.450 -1.9226 -1.6204 -0.1928
 5275TIP3    H237241   3.136   4.161  12.401 -1.0450 -0.6059 -0.1925
 5276TIP3   OH237242   2.511   2.132  12.903 -0.1819  0.1539 -0.1176
 5276TIP3    H137243   2.552   2.215  12.927 -0.6201  0.4326 -0.3172
 5276TIP3    H237244   2.582   2.068  12.906  0.2714  0.6375 -0.5019
 5277TIP3   OH237245   1.807   1.978  13.205 -0.1833 -0.5032 -0.0723
 5277TIP3    H137246   1.804   1.930  13.122  0.6637 -1.0600  0.2106
 5277TIP3    H237247   1.901   1.984  13.225 -0.1970  2.2520 -0.6796
 5278TIP3   OH237248   0.211   5.373  12.185 -0.3905  0.1029  0.4072
 5278TIP3    H137249   0.299   5.409  12.169 -0.1550  0.3691  2.2420
 5278TIP3    H237250   0.183   5.341  12.099  1.5664 -0.1234 -0.1777
 5279TIP3   OH237251   4.879   1.628  10.893 -0.0034  0.4597  0.5933
 5279TIP3    H137252   4.959   1.577  10.903  1.0614  2.0549  0.3525
 5279TIP3    H237253   4.813   1.564  10.866  1.4177 -0.7141 -0.1723
 5280TIP3   OH237254   5.755   5.545  14.903 -0.4159 -0.0725  0.2569
 5280TIP3    H137255   5.695   5.606  14.944  0.2685  2.0667 -1.7584
 5280TIP3    H237256   5.699   5.482  14.857 -1.1378 -1.4524  2.9460
 5281TIP3   OH237257   1.551   5.121  12.604 -0.5709 -0.0473 -0.0617
 5281TIP3    H137258   1.470   5.151  12.562 -1.5537 -0.1075  1.7483
 5281TIP3    H237259   1.581   5.196  12.656 -0.3746 -0.5886  0.6091
 5282TIP3   OH237260   5.038   6.244  15.828 -0.7457  0.0690  0.6490
 5282TIP3    H137261   5.017   6.209  15.915 -2.5901 -0.6277 -0.0495
 5282TIP3    H237262   5.058   6.336  15.844  1.3986 -0.6182  2.1345
 5283TIP3   OH237263   1.721   4.829  11.223  0.7360  0.4246 -0.1421
 5283TIP3    H137264   1.762   4.899  11.171  1.0316  0.0225 -0.4562
 5283TIP3    H237265   1.627   4.841  11.209  0.7777  0.8980 -0.0177
 5284TIP3   OH237266   6.200   6.524  11.326  0.2349 -0.0217 -0.3621
 5284TIP3    H137267   6.219   6.482  11.242  0.7320  2.9613 -1.7933
 5284TIP3    H237268   6.111   6.496  11.347 -0.2282 -0.1057 -2.3286
 5285TIP3   OH237269   1.265   0.177  15.243  0.9151  0.0343 -0.4068
 5285TIP3    H137270   1.336   0.121  15.212  0.6921  0.5362 -1.8732
 5285TIP3    H237271   1.307   0.241  15.301  1.7106  0.4933 -1.4768
 5286TIP3   OH237272   1.411   6.792  12.439  0.4065 -0.1952  0.1775
 5286TIP3    H137273   1.451   6.784  12.526 -0.1989 -1.5650  0.3377
 5286TIP3    H237274   1.322   6.822  12.457  0.2118 -0.6981  0.0408
 5287TIP3   OH237275   4.114   3.001  10.986 -0.7747  0.7832 -0.0872
 5287TIP3    H137276   4.053   2.927  10.997 -0.9887  1.0746  0.7308
 5287TIP3    H237277   4.085   3.044  10.905  0.2436 -0.8605 -1.3549
 5288TIP3   OH237278   2.918   1.971  12.266 -0.3380 -0.2139 -0.2967
 5288TIP3    H137279   2.842   2.018  12.301 -0.1318 -1.4261  1.8291
 5288TIP3    H237280   2.987   2.037  12.260 -0.3958  0.0440  1.5762
 5289TIP3   OH237281   3.229   3.130  11.603 -0.3480 -0.2118  0.1053
 5289TIP3    H137282   3.199   3.059  11.548  0.7600  0.2956 -1.1816
 5289TIP3    H237283   3.321   3.142  11.580 -0.1205  0.6630  1.3608
 5290TIP3   OH237284   6.366   3.458  13.103 -0.2320  0.3529 -0.0781
 5290TIP3    H137285   6.309   3.448  13.179 -0.3439 -3.1065 -0.5653
 5290TIP3    H237286   6.309   3.437  13.028  1.1025 -1.0153 -0.7230
 5291TIP3   OH237287   5.774   4.650   0.224 -0.0485  0.0018 -0.3073
 5291TIP3    H137288   5.857   4.624   0.264 -0.2913  0.5471  0.5896
 5291TIP3    H237289   5.789   4.646   0.130  0.7656 -0.6292 -0.1501
 5292TIP3   OH237290   3.009   3.844  13.131  0.0177  0.0131 -0.1307
 5292TIP3    H137291   3.079   3.829  13.067 -1.1622 -2.1756 -0.9775
 5292TIP3    H237292   3.052   3.836  13.216  1.3165  1.4445 -0.6492
 5293TIP3   OH237293   7.025   0.328  14.409  0.4433  0.5470 -0.3586
 5293TIP3    H137294   6.940   0.363  14.432 -1.0284 -1.6905 -2.1410
 5293TIP3    H237295   7.006   0.245  14.365  3.5968 -0.8754  0.7475
 5294TIP3   OH237296   3.165   7.037  11.768 -0.3873 -0.3212 -0.1821
 5294TIP3    H137297   3.131   6.948  11.784 -1.9499  0.5193  1.2821
 5294TIP3    H237298   3.106   7.073  11.703  0.9899 -0.7635 -1.7112
 5295TIP3   OH237299   5.800   0.723  12.985  0.1015  0.0916  0.2961
 5295TIP3    H137300   5.773   0.644  13.031  0.7893 -1.0943 -1.2607
 5295TIP3    H237301   5.736   0.790  13.010 -1.2896 -1.3268  0.5525
 5296TIP3   OH237302   6.283   1.487  12.368  0.5513  0.2563 -0.0779
 5296TIP3    H137303   6.336   1.409  12.383 -0.6022 -0.4286  0.5411
 5296TIP3    H237304   6.234   1.468  12.288 -1.3965 -0.6163  1.2693
 5297TIP3   OH237305   5.598   5.013   9.848  0.4305  0.5106  0.1543
 5297TIP3    H137306   5.664   5.062   9.897  0.4575 -1.6702  2.4190
 5297TIP3    H237307   5.539   5.081   9.814  2.0132  2.2792  0.8124
 5298TIP3   OH237308   3.522   3.545  12.702  0.1501  0.3446  0.1057
 5298TIP3    H137309   3.606   3.552  12.658  0.0348  0.7678 -0.0470
 5298TIP3    H237310   3.476   3.475  12.656  1.5174 -1.8639  1.9834
 5299TIP3   OH237311   3.473   6.654  12.987 -0.7240  1.1472  0.1211
 5299TIP3    H137312   3.429   6.706  12.919 -1.1040 -0.6064 -1.0077
 5299TIP3    H237313   3.457   6.563  12.961 -0.9646  0.4494  2.6212
 5300TIP3   OH237314   5.728   5.060  12.282 -0.2005  0.2740  0.1614
 5300TIP3    H137315   5.786   4.984  12.282  0.8261  1.0478  0.0891
 5300TIP3    H237316   5.740   5.099  12.196 -2.3621 -0.6950 -0.6128
 5301TIP3   OH237317   0.576   6.522  11.274  0.0517 -0.1368  0.2060
 5301TIP3    H137318   0.552   6.611  11.297 -2.4949 -0.2307 -1.8662
 5301TIP3    H237319   0.496   6.471  11.284  1.3389 -2.1294  0.9009
 5302TIP3   OH237320   6.255   5.180  15.238  0.2018 -0.6776 -0.0860
 5302TIP3    H137321   6.185   5.120  15.262 -0.3539 -0.8988 -2.1226
 5302TIP3    H237322   6.213   5.265  15.227  0.5200 -0.4818  0.1884
 5303TIP3   OH237323   4.130   1.507  12.390  0.5431  0.6881 -0.0754
 5303TIP3    H137324   4.172   1.481  12.308 -0.5643  1.7204 -1.0006
 5303TIP3    H237325   4.054   1.449  12.398  0.5544  0.7006  0.1332
 5304TIP3   OH237326   0.128   4.276  11.770 -0.2264 -0.4197 -0.6741
 5304TIP3    H137327   0.074   4.213  11.819 -1.9260  2.8047  1.8125
 5304TIP3    H237328   0.216   4.264  11.806 -0.5906 -1.1335  0.0120
 5305TIP3   OH237329   4.590   1.920  11.331 -0.3303 -0.8156  0.3202
 5305TIP3    H137330   4.543   1.838  11.346 -1.4757  0.2046  2.4072
 5305TIP3    H237331   4.630   1.909  11.244  0.4309 -3.9901  1.0185
 5306TIP3   OH237332   3.648   3.759  10.239 -0.0747 -0.1206 -0.4687
 5306TIP3    H137333   3.706   3.757  10.163  0.3960 -1.0911 -0.0910
 5306TIP3    H237334   3.664   3.676  10.283  1.8159  1.6453  2.3097
 5307TIP3   OH237335   6.284   6.714  11.503  0.1031 -0.0740 -0.0228
 5307TIP3    H137336   6.273   6.673  11.589  0.0418  0.0189  0.0144
 5307TIP3    H237337   6.249   6.651  11.441  1.3780 -0.7223 -0.1025
 5308TIP3   OH237338   3.002   3.376  11.251  0.5451  0.1347  0.1561
 5308TIP3    H137339   2.944   3.306  11.282  2.4664 -1.3379  0.4742
 5308TIP3    H237340   2.982   3.450  11.308  0.5901 -1.0678  1.7627
 5309TIP3   OH237341   3.368   1.932  13.358 -0.5175  0.2248  0.1536
 5309TIP3    H137342   3.357   1.881  13.439 -1.5339 -0.3731 -0.3634
 5309TIP3    H237343   3.460   1.919  13.334 -0.4606 -0.3738  0.6841
 5310TIP3   OH237344   4.589   4.809  13.565 -0.3923  0.0165  0.0591
 5310TIP3    H137345   4.504   4.822  13.608 -0.3825  0.7182 -0.1205
 5310TIP3    H237346   4.651   4.804  13.638 -0.1446  2.9852  0.1129
 5311TIP3   OH237347   4.958   6.721  11.004 -0.0045 -0.3448  0.1576
 5311TIP3    H137348   5.039   6.671  11.009  0.0110 -0.2321  1.0366
 5311TIP3    H237349   4.904   6.688  11.075 -1.6355 -1.9823 -1.7972
 5312TIP3   OH237350   3.746   5.758  14.057  0.1762  0.5849 -0.5262
 5312TIP3    H137351   3.798   5.716  14.126 -1.0516 -1.4856 -0.8352
 5312TIP3    H237352   3.811   5.799  14.000  1.4156 -0.9599 -0.2606
 5313TIP3   OH237353   1.202   1.927  15.074  0.0413 -0.1255  0.1568
 5313TIP3    H137354   1.213   1.842  15.117  0.5349 -0.3192 -0.3492
 5313TIP3    H237355   1.131   1.913  15.011  0.2589 -0.2196 -0.0686
 5314TIP3   OH237356   0.919   1.436  14.371  0.3179  0.0229  0.5301
 5314TIP3    H137357   0.890   1.408  14.458 -0.6200  1.4228  0.6953
 5314TIP3    H237358   0.869   1.381  14.311 -0.6877  0.5494  0.8616
 5315TIP3   OH237359   6.052   5.131  14.935 -0.0020  0.3439  0.3336
 5315TIP3    H137360   6.072   5.039  14.949 -3.7338 -0.8130 -1.3441
 5315TIP3    H237361   6.088   5.151  14.849 -1.6655 -0.4023 -0.5680
 5316TIP3   OH237362   2.825   4.296  12.162  0.5354 -0.4762 -0.2038
 5316TIP3    H137363   2.881   4.219  12.172 -1.7854 -2.2014 -0.2406
 5316TIP3    H237364   2.744   4.263  12.124  0.0071  2.2203 -1.5878
 5317TIP3   OH237365   1.806   3.975  13.135  0.2774 -0.6926 -0.3617
 5317TIP3    H137366   1.763   3.988  13.220  0.4677  2.1334 -0.6437
 5317TIP3    H237367   1.737   3.943  13.077  0.1507 -2.6835  0.8309
 5318TIP3   OH237368   2.363   2.213  11.637 -0.6841 -0.1225 -0.5730
 5318TIP3    H137369   2.311   2.172  11.568 -0.6763 -2.5667  0.8362
 5318TIP3    H237370   2.453   2.187  11.618 -0.5327  0.2425 -0.3558
 5319TIP3   OH237371   2.631   4.309  11.596  0.0651  0.4574  0.1234
 5319TIP3    H137372   2.649   4.402  11.583 -3.0095  1.3106  1.4994
 5319TIP3    H237373   2.619   4.274  11.508  0.6451  1.4731 -0.3672
 5320TIP3   OH237374   5.467   3.499  14.837  0.0364  0.7017  0.1480
 5320TIP3    H137375   5.428   3.414  14.818  0.5891  0.8087 -1.5191
 5320TIP3    H237376   5.538   3.479  14.898  0.1115 -0.0213 -0.1684
 5321TIP3   OH237377   6.458   1.401  12.705  0.3224  0.1736  0.1569
 5321TIP3    H137378   6.385   1.440  12.659 -0.7197  0.0419  1.6614
 5321TIP3    H237379   6.500   1.475  12.751  0.4235  0.0642  0.2428
 5322TIP3   OH237380   3.053   6.608  14.685 -0.2869 -0.3948 -0.9897
 5322TIP3    H137381   2.980   6.588  14.743  0.7479  0.4485  0.6422
 5322TIP3    H237382   3.015   6.661  14.615 -1.3514 -0.4853 -0.4843
 5323TIP3   OH237383   3.587   3.799  12.787  0.4280 -0.0408  0.7713
 5323TIP3    H137384   3.539   3.857  12.728 -1.1389  0.8017  2.7994
 5323TIP3    H237385   3.562   3.711  12.761 -1.9905  0.3848  1.5630
 5324TIP3   OH237386   2.444   3.636  14.030 -0.9028  0.0130  0.0732
 5324TIP3    H137387   2.361   3.642  13.982  0.1514  0.1087 -1.7990
 5324TIP3    H237388   2.499   3.580  13.974  0.0080 -0.7352  1.7035
 5325TIP3   OH237389   6.948   5.301  11.861  0.4517 -0.0150 -0.1259
 5325TIP3    H137390   7.004   5.297  11.939  1.2348 -2.9911 -0.7951
 5325TIP3    H237391   7.010   5.301  11.787 -0.3561  0.1977 -0.8065
 5326TIP3   OH237392   4.820   1.714  12.557 -0.1101  0.0294  0.0686
 5326TIP3    H137393   4.741   1.769  12.557 -0.2072 -0.1038  0.8919
 5326TIP3    H237394   4.885   1.767  12.603  0.2265  0.0553 -0.4343
 5327TIP3   OH237395   1.203   3.268  10.986  0.2429 -0.5521 -0.0924
 5327TIP3    H137396   1.287   3.284  10.944  0.2688 -2.3966 -0.7589
 5327TIP3    H237397   1.205   3.323  11.065  2.1825 -0.8085  0.0564
 5328TIP3   OH237398   5.793   6.279  12.472  0.3264 -0.1464  0.8519
 5328TIP3    H137399   5.739   6.274  12.551  1.5567  1.7797  1.8331
 5328TIP3    H237400   5.808   6.372  12.459  2.9265 -0.6164  0.2639
 5329TIP3   OH237401   6.458   5.640   0.156 -0.2376 -0.4501 -0.1049
 5329TIP3    H137402   6.421   5.650   0.067  1.3237  1.2610 -0.5939
 5329TIP3    H237403   6.510   5.560   0.152 -1.8973 -1.5553 -0.1014
 5330TIP3   OH237404   7.101   7.273  12.097 -0.3540  0.2723 -0.1551
 5330TIP3    H137405   7.010   7.250  12.076 -1.0087  1.7609  0.8782
 5330TIP3    H237406   7.098   7.368  12.113  0.5249 -0.2866  3.9713
 5331TIP3   OH237407   2.245   5.071  10.726  0.0450  0.1014 -1.0252
 5331TIP3    H137408   2.299   5.074  10.805 -1.4606 -0.5297  0.0630
 5331TIP3    H237409   2.223   5.162  10.708 -0.0965  0.2009 -0.3623
 5332TIP3   OH237410   5.690   5.494  11.914  0.3537  0.3064  0.3422
 5332TIP3    H137411   5.766   5.547  11.935 -0.0523  0.0716  2.5508
 5332TIP3    H237412   5.726   5.407  11.895  0.7167  0.4344  0.4387
 5333TIP3   OH237413   2.000   6.161  13.901  0.3061  0.6557 -0.2831
 5333TIP3    H137414   1.995   6.225  13.830 -0.1094  0.6097 -0.2983
 5333TIP3    H237415   2.092   6.136  13.904  0.6954  2.0946  0.4684
 5334TIP3   OH237416   2.210   2.225   1.251  0.2750 -0.1807 -0.3651
 5334TIP3    H137417   2.203   2.251   1.159  0.3503  1.7969  0.1626
 5334TIP3    H237418   2.214   2.307   1.299 -4.5412 -1.0540  1.8211
 5335TIP3   OH237419   5.030   5.038  14.704 -0.5404 -0.2157 -0.7213
 5335TIP3    H137420   5.026   5.103  14.774 -0.2771  0.0021 -0.9028
 5335TIP3    H237421   5.085   5.079  14.637  1.3135 -1.4358  0.0088
 5336TIP3   OH237422   2.935   3.558  11.677  0.1002 -0.1912 -0.4640
 5336TIP3    H137423   3.026   3.534  11.660  0.6857  0.5129  1.4644
 5336TIP3    H237424   2.939   3.608  11.759 -2.0045 -0.0305 -0.4354
 5337TIP3   OH237425   6.597   4.643  11.751  0.5373  0.6651  0.2220
 5337TIP3    H137426   6.513   4.685  11.732  0.4860  1.5175  2.1762
 5337TIP3    H237427   6.661   4.692  11.701 -0.1705 -0.3089 -1.6930
 5338TIP3   OH237428   3.064   3.339  13.170 -0.2342 -0.1043 -0.3365
 5338TIP3    H137429   3.144   3.313  13.124  0.7295  0.0297  1.2084
 5338TIP3    H237430   2.995   3.284  13.132  0.5833 -0.2116 -1.6977
 5339TIP3   OH237431   5.668   4.531  10.815  0.3422  0.4988 -0.5990
 5339TIP3    H137432   5.725   4.585  10.869 -1.6089  0.8585  1.2019
 5339TIP3    H237433   5.579   4.560  10.837 -0.5881 -0.6687 -2.6104
 5340TIP3   OH237434   3.845   1.663  14.694 -0.1763 -0.2729  0.0055
 5340TIP3    H137435   3.796   1.583  14.673 -2.0918  1.5628 -2.7870
 5340TIP3    H237436   3.799   1.700  14.769  0.3062 -1.3700  0.8754
 5341TIP3   OH237437   3.769   5.790  10.659 -0.4672 -0.0054  0.4562
 5341TIP3    H137438   3.772   5.721  10.725  3.3568 -0.6869 -0.2886
 5341TIP3    H237439   3.770   5.743  10.575  0.1445  0.9061 -0.0576
 5342TIP3   OH237440   5.071   7.185  12.294 -0.0785 -0.0900 -0.2860
 5342TIP3    H137441   5.016   7.156  12.221  0.6761 -1.3711 -0.3438
 5342TIP3    H237442   5.010   7.196  12.367 -0.8599  1.3127 -1.1177
 5343TIP3   OH237443   3.655   5.166  10.718  0.3830  0.0051 -0.1121
 5343TIP3    H137444   3.688   5.216  10.644  0.9166  1.7216  1.2387
 5343TIP3    H237445   3.648   5.230  10.789 -1.5050 -1.2874  0.9171
 5344TIP3   OH237446   7.047   0.572  11.182  0.2491 -0.1502  0.2924
 5344TIP3    H137447   6.989   0.574  11.106 -0.1533 -0.3208  0.5916
 5344TIP3    H237448   7.073   0.663  11.194 -0.2774 -0.0092  0.3970
 5345TIP3   OH237449   6.556   6.191  12.905  0.4469  0.0673 -0.7602
 5345TIP3    H137450   6.465   6.188  12.934  0.3179 -0.3463 -1.2098
 5345TIP3    H237451   6.596   6.113  12.942  0.1062 -0.8418 -2.2717
 5346TIP3   OH237452   3.855   3.709  11.226 -0.3033  0.5429 -0.4546
 5346TIP3    H137453   3.846   3.734  11.318  0.7381 -0.6932  0.0028
 5346TIP3    H237454   3.925   3.764  11.193  1.0657 -0.7856  0.1884
 5347TIP3   OH237455   4.657   4.083  15.943 -0.3431  0.0370 -0.6877
 5347TIP3    H137456   4.594   4.155  15.935 -2.0679 -1.4209 -0.7063
 5347TIP3    H237457   4.637   4.026  15.869  1.0418 -0.4250 -0.7076
 5348TIP3   OH237458   5.019   1.251  10.213  0.1518  0.3090  0.2531
 5348TIP3    H137459   4.993   1.159  10.208 -0.8782  0.6160 -0.2096
 5348TIP3    H237460   4.992   1.288  10.129 -0.1719  1.2133  0.7487
 5349TIP3   OH237461   5.198   3.714  10.698 -0.1315 -0.3020  0.2333
 5349TIP3    H137462   5.292   3.708  10.717  0.1002 -0.8515 -1.0725
 5349TIP3    H237463   5.187   3.669  10.615 -1.6615 -0.7740  0.6822
 5350TIP3   OH237464   5.521   4.257  14.498 -0.0479  0.9012 -0.1445
 5350TIP3    H137465   5.592   4.206  14.539  2.8866  2.1658 -3.3656
 5350TIP3    H237466   5.480   4.303  14.571  0.7506 -1.8518  2.1583
 5351TIP3   OH237467   0.738   7.093  12.762 -0.7455 -0.3288  0.1291
 5351TIP3    H137468   0.795   7.086  12.685 -1.0783 -0.5885 -0.0962
 5351TIP3    H237469   0.663   7.144  12.731 -0.2951  0.6584  0.6224
 5352TIP3   OH237470   0.636   4.103  13.026 -0.1433 -0.3305 -0.0149
 5352TIP3    H137471   0.676   4.035  12.972  1.1022  0.5733 -0.2569
 5352TIP3    H237472   0.649   4.073  13.116  0.6026 -0.3280 -0.1145
 5353TIP3   OH237473   5.106   2.372  10.546  0.3427 -0.3623  0.4463
 5353TIP3    H137474   5.193   2.350  10.512  0.1867 -1.0359  0.4779
 5353TIP3    H237475   5.052   2.297  10.524 -1.0815  1.4801 -2.6386
 5354TIP3   OH237476   5.477   5.625  14.501 -0.2840  0.7294 -0.2950
 5354TIP3    H137477   5.571   5.638  14.487  0.2847 -1.3316  1.4353
 5354TIP3    H237478   5.461   5.660  14.589 -0.5142 -1.6316  0.6434
 5355TIP3   OH237479   6.869   3.591  13.312 -0.0387  0.0110  0.3237
 5355TIP3    H137480   6.950   3.589  13.262 -1.0992 -1.3757 -1.3843
 5355TIP3    H237481   6.873   3.674  13.361  1.8366  0.5238 -0.6646
 5356TIP3   OH237482   7.200   2.776  13.098  0.2664  0.2506 -0.0424
 5356TIP3    H137483   7.237   2.689  13.084 -0.6482  0.0861 -1.4861
 5356TIP3    H237484   7.253   2.834  13.044  1.2730  0.7082  1.4019
 5357TIP3   OH237485   1.688   7.231  11.448 -0.6720  0.0123  0.4299
 5357TIP3    H137486   1.622   7.171  11.413  0.2106 -1.2757  0.9529
 5357TIP3    H237487   1.731   7.267  11.370 -1.1556 -0.0786  0.1148
 5358TIP3   OH237488   0.554   0.490  14.931 -0.1245  0.3441  0.3607
 5358TIP3    H137489   0.601   0.409  14.950  1.9928  1.1875 -1.0412
 5358TIP3    H237490   0.569   0.545  15.007 -0.5499 -0.1410  0.7970
 5359TIP3   OH237491   6.547   3.413  15.521  0.3499 -0.2817 -0.4697
 5359TIP3    H137492   6.625   3.386  15.569  0.9257  0.3803 -1.0085
 5359TIP3    H237493   6.476   3.361  15.558  0.9143 -0.3222  0.5685
 5360TIP3   OH237494   4.223   0.900  11.392  0.7260 -0.4075 -0.0731
 5360TIP3    H137495   4.199   0.808  11.406 -0.3885 -0.3061 -1.2129
 5360TIP3    H237496   4.152   0.949  11.433 -1.1360 -0.0971 -3.4885
 5361TIP3   OH237497   4.520   5.294  12.024 -0.3220 -0.3802  0.4324
 5361TIP3    H137498   4.468   5.369  12.054  0.5811  0.4483 -0.0330
 5361TIP3    H237499   4.492   5.280  11.933 -0.8285 -0.9142  0.6684
 5362TIP3   OH237500   4.506   2.100  11.551  0.1232  0.3175 -0.3244
 5362TIP3    H137501   4.446   2.034  11.585  1.2648 -0.2936  0.5480
 5362TIP3    H237502   4.513   2.080  11.457  0.2330 -0.6139 -0.1220
 5363TIP3   OH237503   6.418   3.818  11.638  0.2815  0.2247 -0.5624
 5363TIP3    H137504   6.485   3.877  11.603  1.9179 -2.3894 -2.0373
 5363TIP3    H237505   6.340   3.837  11.587  0.7344  1.1842 -0.9151
 5364TIP3   OH237506   5.263   3.843  11.939  0.2848 -0.3689 -0.1905
 5364TIP3    H137507   5.201   3.894  11.885  1.0527 -0.5437 -1.2597
 5364TIP3    H237508   5.339   3.899  11.947 -0.7704  0.7360  2.9274
 5365TIP3   OH237509   0.870   3.606  11.015  0.0113  0.7033 -0.3725
 5365TIP3    H137510   0.815   3.680  10.988 -1.1965  0.5737  1.5973
 5365TIP3    H237511   0.895   3.626  11.105 -0.6292 -1.4333  0.3219
 5366TIP3   OH237512   2.366   2.584  13.428  0.0806 -0.3061 -0.2730
 5366TIP3    H137513   2.310   2.639  13.374 -0.4305  0.9007  1.4594
 5366TIP3    H237514   2.310   2.511  13.454  0.5046 -1.2200 -1.8371
 5367TIP3   OH237515   5.414   5.862  14.733 -0.0450 -0.8299  0.2815
 5367TIP3    H137516   5.320   5.864  14.747  0.0849 -2.2736  1.4742
 5367TIP3    H237517   5.425   5.879  14.640 -1.4254  0.4229  0.3468
 5368TIP3   OH237518   5.689   2.463  12.845  0.9151  0.4093  0.3768
 5368TIP3    H137519   5.632   2.472  12.769 -0.0273 -1.2541  0.8701
 5368TIP3    H237520   5.778   2.462  12.809  0.6235  2.3434 -0.4495
 5369TIP3   OH237521   6.910   2.141  11.012 -0.8251  0.2405  0.0724
 5369TIP3    H137522   6.908   2.048  11.033 -0.2380  0.5574  1.5500
 5369TIP3    H237523   6.921   2.185  11.096  0.9765  1.5521 -0.8172
 5370TIP3   OH237524   3.536   5.763  15.484  0.5080 -0.0057  0.2822
 5370TIP3    H137525   3.481   5.798  15.553 -0.1586  1.0612 -0.7726
 5370TIP3    H237526   3.597   5.834  15.463  0.7566 -0.3476 -0.1866
 5371TIP3   OH237527   2.304   3.585  13.545 -0.0565  0.6265 -0.0516
 5371TIP3    H137528   2.223   3.551  13.583 -0.1146  1.1537  0.2997
 5371TIP3    H237529   2.307   3.676  13.572  1.6602  0.1124  1.6902
 5372TIP3   OH237530   6.242   4.420  12.283  0.4799  0.0084 -0.3846
 5372TIP3    H137531   6.229   4.505  12.241  0.1165  0.1731  0.0588
 5372TIP3    H237532   6.202   4.357  12.224 -1.5331  0.4048  0.4979
 5373TIP3   OH237533   0.097   5.465  14.643  0.4309 -0.0541  0.3778
 5373TIP3    H137534   0.008   5.487  14.669  0.3704  0.5038 -0.3108
 5373TIP3    H237535   0.091   5.374  14.613  0.1701 -0.1294  0.6511
 5374TIP3   OH237536   5.913   5.313  11.798  0.0427 -0.0310  0.3673
 5374TIP3    H137537   5.918   5.225  11.762  0.6873  0.8371 -1.7836
 5374TIP3    H237538   5.999   5.329  11.836 -0.0406 -0.2839  0.6621
 5375TIP3   OH237539   5.081   3.310   1.814  0.2056 -0.2274 -0.0702
 5375TIP3    H137540   5.112   3.366   1.885 -2.4790  1.6412 -0.2929
 5375TIP3    H237541   5.032   3.369   1.756  0.4911 -2.1161 -2.3471
 5376TIP3   OH237542   4.327   5.087  11.082 -0.1794 -0.3995  0.3953
 5376TIP3    H137543   4.276   5.011  11.055  2.4688 -1.0801 -3.0818
 5376TIP3    H237544   4.286   5.161  11.037  0.1300 -0.5335 -0.1215
 5377TIP3   OH237545   2.610   1.648  14.364 -0.8220 -0.2923 -0.1903
 5377TIP3    H137546   2.680   1.583  14.364 -0.9652 -0.4426  1.5018
 5377TIP3    H237547   2.620   1.692  14.279  2.7635  1.2159  0.9094
 5378TIP3   OH237548   5.382   5.583  10.859  0.0036 -0.1853  0.1254
 5378TIP3    H137549   5.430   5.554  10.782 -0.7974  2.5019 -1.4371
 5378TIP3    H237550   5.448   5.619  10.917  0.2243  1.0961 -0.8929
 5379TIP3   OH237551   6.038   5.967  12.972 -0.3419 -0.2780 -0.6113
 5379TIP3    H137552   5.989   6.049  12.965 -0.5378 -0.3697 -0.3163
 5379TIP3    H237553   6.009   5.929  13.055  0.8027  0.0383 -0.0614
 5380TIP3   OH237554   1.093   2.236  11.715 -0.0074 -0.9900 -0.4472
 5380TIP3    H137555   1.009   2.201  11.684  0.4920 -1.6360 -1.0986
 5380TIP3    H237556   1.147   2.241  11.636  0.5809 -0.6204 -0.0224
 5381TIP3   OH237557   1.861   7.207  11.814  0.2344 -0.2461  0.1839
 5381TIP3    H137558   1.842   7.208  11.721  1.3830  1.5501 -0.0529
 5381TIP3    H237559   1.832   7.120  11.844 -1.7161 -0.1961 -1.4852
 5382TIP3   OH237560   3.284   3.787  13.082  0.4847 -0.2050  0.0372
 5382TIP3    H137561   3.284   3.743  13.167 -0.0950 -0.6099 -0.1703
 5382TIP3    H237562   3.284   3.715  13.018 -0.0557  0.0958 -0.3070
 5383TIP3   OH237563   3.491   3.208  11.558 -0.0588 -0.0990  0.2296
 5383TIP3    H137564   3.552   3.139  11.532 -0.8162 -1.2224  1.3764
 5383TIP3    H237565   3.545   3.286  11.569  0.5730 -0.0640 -2.7039
 5384TIP3   OH237566   7.008   6.785  12.271  0.3290 -0.2964  0.2748
 5384TIP3    H137567   6.937   6.739  12.315  0.7605  0.5085  1.8687
 5384TIP3    H237568   7.024   6.735  12.191 -2.9965  0.3244 -0.8506
 5385TIP3   OH237569   6.814   5.499  14.590 -0.1339 -0.0582  0.0976
 5385TIP3    H137570   6.866   5.564  14.543 -1.1181  0.6559 -0.0122
 5385TIP3    H237571   6.840   5.415  14.552  1.6630  0.1933  0.7383
 5386TIP3   OH237572   5.554   1.225  14.661 -0.1471 -0.4669  0.3157
 5386TIP3    H137573   5.512   1.143  14.689 -2.8570  0.8814  0.3446
 5386TIP3    H237574   5.640   1.223  14.704  0.2458 -3.7077 -0.4340
 5387TIP3   OH237575   2.223   3.132  12.420 -0.0017  0.1529 -0.2651
 5387TIP3    H137576   2.219   3.144  12.325  1.9594 -0.1113 -0.4004
 5387TIP3    H237577   2.317   3.131  12.440 -0.4053  0.9453  1.7738
 5388TIP3   OH237578   3.633   2.586  11.106 -0.3416 -0.5130 -0.2353
 5388TIP3    H137579   3.691   2.565  11.033  1.8551 -2.1774  1.9102
 5388TIP3    H237580   3.607   2.500  11.141  0.3824  0.2620  2.2645
 5389TIP3   OH237581   6.817   5.507  12.024 -0.7218 -0.0072  0.7947
 5389TIP3    H137582   6.824   5.483  12.117  1.3036  0.0294  0.6753
 5389TIP3    H237583   6.854   5.432  11.977  0.3565  0.9144  0.1435
 5390TIP3   OH237584   2.517   5.435   0.199 -0.6398  0.0283 -0.2181
 5390TIP3    H137585   2.474   5.518   0.176 -0.2074  0.0090 -1.1150
 5390TIP3    H237586   2.596   5.461   0.247 -2.1889  0.0417  2.4541
 5391TIP3   OH237587   6.023   3.552  11.831  0.3443  0.7363  0.1244
 5391TIP3    H137588   6.032   3.499  11.752 -1.7675  1.3396 -0.5615
 5391TIP3    H237589   6.089   3.620  11.823 -1.3669  2.1996 -2.3248
 5392TIP3   OH237590   1.056   0.277   2.374 -0.1253  0.3193  0.1870
 5392TIP3    H137591   1.056   0.243   2.284 -1.6898  0.1796  0.2300
 5392TIP3    H237592   1.004   0.357   2.369  1.9537  1.7184  0.4669
 5393TIP3   OH237593   3.517   3.240  13.010  0.1257  0.2482  0.1908
 5393TIP3    H137594   3.503   3.179  13.083 -0.9086  0.6766  0.3609
 5393TIP3    H237595   3.611   3.259  13.012 -0.1157  1.3445  2.2845
 5394TIP3   OH237596   1.131   2.390  12.717 -0.0305 -0.3814 -0.2272
 5394TIP3    H137597   1.066   2.351  12.775  0.4187 -0.5036  0.1934
 5394TIP3    H237598   1.150   2.322  12.652 -0.3202 -0.3430 -0.3563
 5395TIP3   OH237599   5.780   5.842  11.827 -0.0704 -0.5235 -0.5143
 5395TIP3    H137600   5.855   5.888  11.789 -0.4824 -0.4765 -1.2801
 5395TIP3    H237601   5.810   5.813  11.913  1.0846 -1.1921 -1.1393
 5396TIP3   OH237602   5.600   4.832   1.081 -0.5679  0.0729  0.0238
 5396TIP3    H137603   5.519   4.835   1.030  0.0348 -0.2530 -0.9456
 5396TIP3    H237604   5.626   4.740   1.079  0.2803  0.3206 -0.3531
 5397TIP3   OH237605   0.272   6.148  15.027  0.6295  0.0817  0.1937
 5397TIP3    H137606   0.333   6.122  14.957  0.1240  0.8725 -0.5538
 5397TIP3    H237607   0.209   6.207  14.983  0.5293  0.8834  1.3991
 5398TIP3   OH237608   6.044   2.952  15.540 -0.0557  0.5938  0.1125
 5398TIP3    H137609   5.973   2.887  15.539 -1.4410  2.0906 -0.3783
 5398TIP3    H237610   6.014   3.021  15.481  1.3457  1.7704  0.7578
 5399TIP3   OH237611   1.997   6.095  11.256  0.5447  0.0183  0.2015
 5399TIP3    H137612   2.016   6.012  11.212  2.7786 -0.8094  2.6037
 5399TIP3    H237613   1.941   6.143  11.194  0.4684 -2.6339 -1.8625
 5400TIP3   OH237614   2.904   3.967  11.501 -0.3468  0.5704  0.4546
 5400TIP3    H137615   2.994   3.989  11.522  1.2138 -1.9467 -3.1575
 5400TIP3    H237616   2.887   3.884  11.547  1.4045 -2.2962 -3.8027
 5401TIP3   OH237617   2.158   0.042  11.472  0.1582 -0.3449 -0.2143
 5401TIP3    H137618   2.200   0.001  11.548  2.5420 -0.3269 -1.4652
 5401TIP3    H237619   2.188   0.133  11.474 -0.3137 -0.1700 -0.7998
 5402TIP3   OH237620   5.472   5.079  14.504  0.0577 -0.0137 -0.1094
 5402TIP3    H137621   5.387   5.040  14.487  0.3276  0.1126 -1.8763
 5402TIP3    H237622   5.461   5.172  14.486  0.7012 -0.0852 -0.9308
 5403TIP3   OH237623   4.801   5.846  11.438  0.0618  0.1009  0.0171
 5403TIP3    H137624   4.771   5.853  11.348  1.2715  0.2933 -0.3879
 5403TIP3    H237625   4.897   5.844  11.431  0.2062  1.1701  1.3602
 5404TIP3   OH237626   6.401   1.187  14.452  0.3081 -0.0198  0.0402
 5404TIP3    H137627   6.450   1.117  14.409 -1.0021 -1.6230  1.1040
 5404TIP3    H237628   6.366   1.147  14.531  0.0277  2.0099  0.9934
 5405TIP3   OH237629   7.224   4.858  11.655 -0.4418  0.6230  0.1509
 5405TIP3    H137630   7.139   4.895  11.631 -0.8253 -0.8798 -0.9165
 5405TIP3    H237631   7.204   4.770  11.687  0.7311  0.0778 -0.5664
 5406TIP3   OH237632   5.060   0.473  15.892 -0.3504 -0.5074  0.4247
 5406TIP3    H137633   5.116   0.524  15.950 -0.9933  0.6684  0.0365
 5406TIP3    H237634   5.011   0.415  15.950 -1.6093  1.2486  1.1496
 5407TIP3   OH237635   6.407   5.910  12.102 -0.0107  0.0040  0.4404
 5407TIP3    H137636   6.497   5.911  12.136 -0.1970  1.0712  0.9229
 5407TIP3    H237637   6.352   5.902  12.180 -0.3336 -0.6524  0.1438
 5408TIP3   OH237638   3.686   4.302  13.263  0.7040  0.4870 -0.4936
 5408TIP3    H137639   3.733   4.382  13.235 -0.7138  1.2783 -0.6612
 5408TIP3    H237640   3.662   4.319  13.354  0.9175 -0.0048 -0.3441
 5409TIP3   OH237641   2.939   1.397  15.130 -0.0443 -0.5330  0.0069
 5409TIP3    H137642   2.846   1.384  15.112 -0.2734  2.2072 -1.1849
 5409TIP3    H237643   2.984   1.352  15.058 -0.5289 -0.4987 -0.3199
 5410TIP3   OH237644   4.101   4.287  12.190 -0.6948  0.1999  0.6628
 5410TIP3    H137645   4.159   4.346  12.144 -2.0840  0.2591 -1.0679
 5410TIP3    H237646   4.159   4.235  12.246  1.0157  0.1623 -1.1044
 5411TIP3   OH237647   6.106   3.436  11.615  0.7637  0.2200 -0.0316
 5411TIP3    H137648   6.115   3.492  11.538 -0.1533 -0.0081 -0.3053
 5411TIP3    H237649   6.102   3.347  11.580  1.0295  0.0674  0.3244
 5412TIP3   OH237650   1.385   1.761   0.598  0.0059  0.5156  0.4186
 5412TIP3    H137651   1.423   1.840   0.636  1.4300  0.3169 -0.5681
 5412TIP3    H237652   1.454   1.695   0.605 -0.9830 -0.5203  0.7579
 5413TIP3   OH237653   3.842   4.536  13.193  0.0964  0.1116 -0.4059
 5413TIP3    H137654   3.890   4.546  13.275 -0.2862  0.1910 -0.1928
 5413TIP3    H237655   3.844   4.623  13.153 -0.6218  0.3247  0.0161
 5414TIP3   OH237656   1.920   3.574   0.909 -0.6260 -0.0073 -0.0052
 5414TIP3    H137657   1.899   3.630   0.983 -0.5928  2.3367 -1.7001
 5414TIP3    H237658   1.845   3.516   0.900 -1.9574  1.6684  0.0644
 5415TIP3   OH237659   5.480   1.513  13.881 -0.1836  0.6932 -0.9176
 5415TIP3    H137660   5.528   1.569  13.819  0.6210 -0.4354 -1.3208
 5415TIP3    H237661   5.530   1.519  13.962  0.9257 -0.8704 -1.4763
 5416TIP3   OH237662   1.090   6.766  12.009 -0.1962 -0.3787  0.4109
 5416TIP3    H137663   1.009   6.806  12.040  0.0008  0.6936 -0.4179
 5416TIP3    H237664   1.160   6.820  12.046  0.1317 -0.9879  0.6940
 5417TIP3   OH237665   1.779   5.509  13.161 -0.2292 -0.1174  0.0443
 5417TIP3    H137666   1.863   5.464  13.161  0.4365  1.0771 -0.4715
 5417TIP3    H237667   1.763   5.531  13.252  0.7330  0.9195 -0.0267
 5418TIP3   OH237668   5.124   4.029  11.739  0.5010  0.5566 -0.3213
 5418TIP3    H137669   5.181   4.022  11.663  0.7004 -0.0522 -0.1148
 5418TIP3    H237670   5.036   4.038  11.702  0.8224  2.5774 -0.6585
 5419TIP3   OH237671   3.331   1.780  13.587 -0.1834  0.4617  0.0781
 5419TIP3    H137672   3.290   1.741  13.665  1.9490 -0.0831  0.9534
 5419TIP3    H237673   3.362   1.705  13.536  0.8707  0.8964  0.0662
 5420TIP3   OH237674   0.774   4.870  12.753 -0.0021 -0.1482 -0.1519
 5420TIP3    H137675   0.704   4.881  12.689 -1.8571 -1.3207  1.5975
 5420TIP3    H237676   0.828   4.799  12.718  0.5458  1.0044 -1.6795
 5421TIP3   OH237677   3.345   3.420  12.326 -0.6680 -0.1033  0.5966
 5421TIP3    H137678   3.430   3.428  12.368 -0.1022  2.1091 -0.8717
 5421TIP3    H237679   3.299   3.352  12.376  0.8928  0.6731  3.1566
 5422TIP3   OH237680   0.284   2.119  14.297 -0.4662  0.0341  0.3504
 5422TIP3    H137681   0.319   2.173  14.226  0.5716 -0.2803  0.5991
 5422TIP3    H237682   0.191   2.112  14.279 -0.0581 -0.9386 -1.6217
 5423TIP3   OH237683   2.647   1.152  12.548  0.1367 -0.1187  0.1986
 5423TIP3    H137684   2.616   1.091  12.481 -0.8288 -0.3108  0.8194
 5423TIP3    H237685   2.624   1.239  12.513 -2.0631 -0.2957  1.1082
 5424TIP3   OH237686   4.533   5.045  13.738  0.2484 -0.1886  0.3624
 5424TIP3    H137687   4.459   5.037  13.798  0.3437 -1.3428  0.3375
 5424TIP3    H237688   4.610   5.022  13.791  0.4472 -0.2367  0.0530
 5425TIP3   OH237689   6.941   2.756  13.021  0.1376  0.0150 -0.3934
 5425TIP3    H137690   7.031   2.760  13.052 -0.3348  3.5586  0.7293
 5425TIP3    H237691   6.948   2.760  12.925  1.3036 -4.4402 -0.5903
 5426TIP3   OH237692   0.703   5.839  12.806 -0.1655  0.0745 -0.5219
 5426TIP3    H137693   0.719   5.751  12.840 -2.6552 -0.6502 -1.0818
 5426TIP3    H237694   0.700   5.828  12.711 -0.6716  0.7307 -0.5879
 5427TIP3   OH237695   4.806   6.893  12.944  0.6016 -0.3289  0.3136
 5427TIP3    H137696   4.901   6.895  12.948  0.6899 -1.8986 -0.3473
 5427TIP3    H237697   4.783   6.958  12.878  1.0080  2.1924  2.5601
 5428TIP3   OH237698   5.160   4.184  13.760 -0.0043 -0.1643  0.8680
 5428TIP3    H137699   5.091   4.221  13.814 -0.7858 -1.2152  0.6134
 5428TIP3    H237700   5.137   4.092  13.752 -0.1293  0.0543 -1.5833
 5429TIP3   OH237701   1.546   5.789  12.002 -0.0279 -0.3228  0.2000
 5429TIP3    H137702   1.639   5.811  11.995 -0.0570 -0.5533 -1.0491
 5429TIP3    H237703   1.543   5.694  12.007 -0.1728 -0.2908  0.8015
 5430TIP3   OH237704   0.705   3.717  13.729  0.0951 -0.2710  0.3877
 5430TIP3    H137705   0.634   3.694  13.789  1.5296  0.2032  2.3229
 5430TIP3    H237706   0.701   3.651  13.659 -2.3555 -0.1131  0.3574
 5431TIP3   OH237707   4.953   0.620  15.446 -0.0506 -0.1303 -0.1020
 5431TIP3    H137708   4.869   0.588  15.412 -0.5201 -0.4695  1.3352
 5431TIP3    H237709   4.977   0.557  15.514  2.1978 -0.9564 -1.6173
 5432TIP3   OH237710   7.260   3.714  10.814 -0.5127  0.2518  0.1758
 5432TIP3    H137711   7.304   3.783  10.764  1.3283 -1.1301 -0.1276
 5432TIP3    H237712   7.178   3.700  10.767 -0.3720  1.4068 -0.4424
 5433TIP3   OH237713   2.325   1.277  13.431 -0.5591  0.2463 -0.2058
 5433TIP3    H137714   2.256   1.332  13.393 -0.9817 -0.5764 -0.6394
 5433TIP3    H237715   2.315   1.193  13.388  1.0021  0.2401 -0.5982
 5434TIP3   OH237716   3.628   4.118  13.877 -0.0989  0.1635 -0.1840
 5434TIP3    H137717   3.675   4.198  13.853  2.4611 -1.6101 -1.2821
 5434TIP3    H237718   3.557   4.113  13.812 -0.5441  1.7312  0.1505
 5435TIP3   OH237719   2.883   5.207  14.046  0.1882  0.1458 -0.5791
 5435TIP3    H137720   2.825   5.218  13.971 -1.4039  1.0432  0.7476
 5435TIP3    H237721   2.940   5.284  14.045  1.0237 -0.4830 -1.5925
 5436TIP3   OH237722   4.975   2.885  13.999  0.3026  0.3175  0.1483
 5436TIP3    H137723   4.999   2.827  14.071  2.0864  0.1631 -0.5704
 5436TIP3    H237724   4.909   2.836  13.950  0.1819 -0.1912  0.8086
 5437TIP3   OH237725   6.576   6.864  12.986 -0.5049  0.0298 -0.3237
 5437TIP3    H137726   6.556   6.802  13.056  1.4978  0.1761  0.3934
 5437TIP3    H237727   6.669   6.853  12.969 -0.6882  0.9576 -2.0415
 5438TIP3   OH237728   3.344   1.312  11.988  0.3465 -0.9029  0.2683
 5438TIP3    H137729   3.436   1.306  11.959  0.2120 -0.8759 -0.1716
 5438TIP3    H237730   3.317   1.221  12.000  0.7100 -0.8784  1.2927
 5439TIP3   OH237731   5.294   3.026  14.461 -0.1029 -0.1466  0.3089
 5439TIP3    H137732   5.251   2.961  14.517  1.4258 -1.4520  0.0218
 5439TIP3    H237733   5.241   3.029  14.382 -1.0991  0.1768  0.9729
 5440TIP3   OH237734   3.026   5.112  12.923 -0.2833  0.1401 -0.5765
 5440TIP3    H137735   3.110   5.105  12.968 -0.7351  0.9059  0.4008
 5440TIP3    H237736   3.040   5.068  12.839  0.7305 -0.8065  0.0771
 5441TIP3   OH237737   4.316   5.591  14.232  0.2635  0.3834  0.4766
 5441TIP3    H137738   4.359   5.667  14.272 -0.5377  0.4207  1.2866
 5441TIP3    H237739   4.312   5.526  14.303  0.8440 -0.3818 -0.1781
 5442TIP3   OH237740   3.032   6.922  12.330 -0.2899 -0.0893  0.0907
 5442TIP3    H137741   3.040   7.017  12.343  0.1988 -0.2541  1.0275
 5442TIP3    H237742   3.067   6.884  12.410 -0.7105 -1.0631 -0.1826
 5443TIP3   OH237743   3.122   5.814  10.944 -0.2236  0.5660  0.6422
 5443TIP3    H137744   3.057   5.775  10.886  0.4377 -1.8156  1.4740
 5443TIP3    H237745   3.105   5.775  11.030  0.6186  1.9325  1.4639
 5444TIP3   OH237746   4.791   6.978  12.307 -0.8475 -0.2231 -0.3320
 5444TIP3    H137747   4.724   7.035  12.269 -0.9779  0.9719  1.6499
 5444TIP3    H237748   4.742   6.908  12.349 -0.8177  0.1988  0.4014
 5445TIP3   OH237749   0.668   6.489  14.181  0.4410  0.0520 -0.3312
 5445TIP3    H137750   0.660   6.579  14.211  0.7902 -0.2750  0.7661
 5445TIP3    H237751   0.585   6.448  14.205  0.2179  0.1096 -0.9734
 5446TIP3   OH237752   3.557   0.547  11.085 -0.1989  0.1406  0.9099
 5446TIP3    H137753   3.520   0.617  11.140  0.0055  0.5784  0.4993
 5446TIP3    H237754   3.576   0.476  11.147 -1.8732 -0.1674  1.1053
 5447TIP3   OH237755   6.865   4.218  11.875 -0.5541  0.0730 -0.2820
 5447TIP3    H137756   6.807   4.294  11.868  0.6933  1.2106  1.4244
 5447TIP3    H237757   6.874   4.203  11.969  0.4561 -1.2161 -0.5694
 5448TIP3   OH237758   5.082   1.160  12.377 -0.7228 -0.2746 -0.7090
 5448TIP3    H137759   5.036   1.243  12.365 -0.2851 -0.2246 -2.1318
 5448TIP3    H237760   5.111   1.136  12.289  1.0590 -0.8262  0.0158
 5449TIP3   OH237761   2.618   6.501  12.907 -0.5173 -0.3671  0.6126
 5449TIP3    H137762   2.693   6.551  12.939  0.0014 -0.8082  0.0855
 5449TIP3    H237763   2.565   6.486  12.986 -0.2736  0.3045  0.9171
 5450TIP3   OH237764   6.468   3.688  10.409 -0.0416  0.4250 -0.7139
 5450TIP3    H137765   6.433   3.726  10.328  0.7872  0.4455 -1.0703
 5450TIP3    H237766   6.457   3.593  10.396 -1.1866  0.4888 -0.2515
 5451TIP3   OH237767   3.931   1.662   0.752 -0.1750 -0.5601  0.6921
 5451TIP3    H137768   3.889   1.578   0.739 -2.1921  0.6417 -0.9317
 5451TIP3    H237769   3.922   1.707   0.667 -0.7098  1.9661  2.0323
 5452TIP3   OH237770   5.969   2.142  12.121 -0.3277  0.2105 -0.1794
 5452TIP3    H137771   5.977   2.169  12.212 -1.3355  0.9073 -0.2933
 5452TIP3    H237772   6.034   2.072  12.111  1.0494  1.3625  0.5814
 5453TIP3   OH237773   5.655   2.759  12.158  0.2915 -0.2285 -0.1918
 5453TIP3    H137774   5.565   2.733  12.136 -0.0363 -0.0091  0.8763
 5453TIP3    H237775   5.671   2.720  12.243  1.6523 -1.2893 -0.9058
 5454TIP3   OH237776   5.443   4.461  12.591  0.0712  0.8526 -0.2592
 5454TIP3    H137777   5.411   4.451  12.681  1.8541  2.6557  0.6244
 5454TIP3    H237778   5.493   4.381  12.574 -1.3321 -0.0712 -0.1402
 5455TIP3   OH237779   0.599   7.064  11.503  0.2484  0.4140  0.0110
 5455TIP3    H137780   0.681   7.040  11.459  0.9016  1.8153  0.4496
 5455TIP3    H237781   0.626   7.117  11.578 -1.1280  1.7976 -0.4507
 5456TIP3   OH237782   3.403   6.477  13.580  0.3277 -0.4702 -0.0638
 5456TIP3    H137783   3.456   6.550  13.547 -1.5236  0.4670 -1.0113
 5456TIP3    H237784   3.431   6.402  13.527  0.1786  0.1881 -1.0866
 5457TIP3   OH237785   4.137   5.550  13.431 -0.4295 -0.2658  0.8687
 5457TIP3    H137786   4.216   5.597  13.402  0.6515 -1.5636  1.6520
 5457TIP3    H237787   4.169   5.462  13.453 -2.2947 -1.1475  0.1105
 5458TIP3   OH237788   1.158   2.319  12.227 -0.0386 -0.3763 -0.5225
 5458TIP3    H137789   1.154   2.322  12.323 -0.9041  0.1091 -0.5730
 5458TIP3    H237790   1.182   2.228  12.208  0.6062 -0.3639  0.1606
 5459TIP3   OH237791   5.988   2.088  13.296 -0.0231 -0.3103 -0.6286
 5459TIP3    H137792   6.008   2.043  13.214 -1.5005 -1.0163 -0.6208
 5459TIP3    H237793   5.911   2.043  13.330  1.3647 -0.9381  1.8506
 5460TIP3   OH237794   4.945   3.311  11.240 -0.8376  0.3912  0.3480
 5460TIP3    H137795   4.873   3.261  11.202 -0.7884  0.9717 -0.4953
 5460TIP3    H237796   4.919   3.402  11.233  0.1348  0.6265 -0.2776
 5461TIP3   OH237797   3.351   0.928  13.729 -0.2318 -0.0121 -0.2336
 5461TIP3    H137798   3.390   0.971  13.805 -0.1885 -0.1853 -0.1582
 5461TIP3    H237799   3.412   0.858  13.707 -0.0420  0.2908 -0.6759
 5462TIP3   OH237800   3.578   3.063  13.206  0.1625  0.5268  0.1380
 5462TIP3    H137801   3.635   3.107  13.270  1.0241  0.6383 -0.6853
 5462TIP3    H237802   3.605   2.972  13.208 -0.7148  0.2782  0.8809
 5463TIP3   OH237803   1.955   2.508  12.676  0.0542 -0.2297 -0.1809
 5463TIP3    H137804   1.983   2.598  12.659 -0.1342 -0.2412 -0.5580
 5463TIP3    H237805   1.862   2.515  12.695 -0.3824 -0.5510 -2.0662
 5464TIP3   OH237806   0.741   0.783  12.317  0.1527 -0.3352  0.1331
 5464TIP3    H137807   0.812   0.782  12.253 -0.0491  0.0551 -0.0961
 5464TIP3    H237808   0.707   0.872  12.315  1.3188  0.1981  2.0918
 5465TIP3   OH237809   6.228   4.022  14.069 -0.4388 -0.4412 -0.8242
 5465TIP3    H137810   6.152   3.978  14.031  0.2499 -2.7847  0.4510
 5465TIP3    H237811   6.198   4.054  14.154  0.1315 -1.9367 -0.0316
 5466TIP3   OH237812   4.025   2.715  12.846 -0.3614  0.6377 -0.0799
 5466TIP3    H137813   3.973   2.648  12.890  1.0659 -1.8606 -2.0322
 5466TIP3    H237814   4.106   2.720  12.896 -0.6902  1.3305  0.3901
 5467TIP3   OH237815   3.719   1.735  10.228 -0.0052 -0.7298 -0.5790
 5467TIP3    H137816   3.749   1.693  10.148 -0.6380 -1.6172 -0.3664
 5467TIP3    H237817   3.664   1.808  10.198  0.0100 -0.8699 -0.9499
 5468TIP3   OH237818   5.673   2.745  10.550 -0.1577  0.2197 -0.1778
 5468TIP3    H137819   5.590   2.760  10.596  0.8048  0.3112  1.5648
 5468TIP3    H237820   5.668   2.801  10.472 -2.9080 -1.8638 -1.6249
 5469TIP3   OH237821   6.449   6.652  15.429  0.1763 -0.2682 -0.3015
 5469TIP3    H137822   6.389   6.677  15.499 -1.7726 -3.9180 -0.5287
 5469TIP3    H237823   6.393   6.644  15.351  0.9658 -3.3189 -0.6045
 5470TIP3   OH237824   0.529   3.015  13.732 -0.5789 -0.1602  0.3216
 5470TIP3    H137825   0.488   2.940  13.690  1.2272 -0.3063 -1.2142
 5470TIP3    H237826   0.610   2.982  13.769  1.2519  1.4094 -2.1522
 5471TIP3   OH237827   4.716   2.037  15.029 -0.3439  0.6933 -0.1036
 5471TIP3    H137828   4.713   1.960  15.085 -0.3510  1.5057  1.0130
 5471TIP3    H237829   4.797   2.026  14.979  0.8739  1.1394  1.7440
 5472TIP3   OH237830   0.228   4.547  13.066 -0.2775  0.0944  0.0752
 5472TIP3    H137831   0.226   4.491  12.988  0.0961 -0.3372  0.3712
 5472TIP3    H237832   0.258   4.632  13.034  1.9514 -0.6586  0.0891
 5473TIP3   OH237833   3.815   4.546  10.559 -0.4906 -0.8025  0.4274
 5473TIP3    H137834   3.864   4.491  10.620 -0.5884 -1.9146 -0.4716
 5473TIP3    H237835   3.876   4.561  10.487 -0.4091  0.4265  0.7477
 5474TIP3   OH237836   1.832   1.984  10.856  0.0377  0.1573 -0.0236
 5474TIP3    H137837   1.811   1.965  10.764  0.1726  0.8182 -0.1935
 5474TIP3    H237838   1.922   2.015  10.854  0.1568 -0.1601  0.3802
 5475TIP3   OH237839   0.470   3.990  12.212  0.5051 -0.0067 -0.4251
 5475TIP3    H137840   0.526   3.915  12.193  0.7383 -0.0056  0.2556
 5475TIP3    H237841   0.385   3.968  12.173  0.6352 -0.5325 -0.4058
 5476TIP3   OH237842   0.219   4.823  13.751 -0.6660 -0.0915  0.1221
 5476TIP3    H137843   0.204   4.850  13.842 -3.8470 -1.3809  0.0508
 5476TIP3    H237844   0.162   4.747  13.739  1.4671 -1.3828 -2.2981
 5477TIP3   OH237845   6.272   1.142  13.262  0.5697  0.0860 -0.1936
 5477TIP3    H137846   6.351   1.193  13.280  0.5662 -0.3539  1.0895
 5477TIP3    H237847   6.280   1.064  13.316  0.4532 -1.1869 -1.9722
 5478TIP3   OH237848   4.531   3.242  11.640 -0.0552 -0.3744  0.3801
 5478TIP3    H137849   4.542   3.296  11.719  3.5917  0.4727 -0.5806
 5478TIP3    H237850   4.539   3.305  11.568 -1.0980 -1.4642 -0.6996
 5479TIP3   OH237851   5.656   4.005  10.085 -0.0472 -0.6107 -0.7624
 5479TIP3    H137852   5.723   4.027  10.020  1.0452 -0.6289  0.3525
 5479TIP3    H237853   5.685   4.048  10.165 -0.9816 -1.2314 -0.0829
 5480TIP3   OH237854   4.359   6.753  13.819  0.0645  0.1139 -0.4244
 5480TIP3    H137855   4.278   6.702  13.819  0.0240  0.1695  0.8875
 5480TIP3    H237856   4.343   6.823  13.755 -0.2104 -0.9753 -1.5598
 5481TIP3   OH237857   0.890   4.512  11.246  0.9089  0.2301  0.0242
 5481TIP3    H137858   0.835   4.477  11.316  1.1624 -1.4066 -0.5745
 5481TIP3    H237859   0.971   4.538  11.290  1.6757 -2.2293  0.1326
 5482TIP3   OH237860   5.651   3.847  12.272 -0.5947 -0.2430  0.6325
 5482TIP3    H137861   5.556   3.848  12.260 -0.4371  1.1038 -0.7746
 5482TIP3    H237862   5.664   3.871  12.363 -1.7038 -4.6143  2.0754
 5483TIP3   OH237863   1.578   3.951  13.657  0.5699 -0.3851  0.2131
 5483TIP3    H137864   1.500   3.938  13.711  0.4666 -1.1544 -0.1171
 5483TIP3    H237865   1.564   3.895  13.580  1.0629  0.1155 -0.2494
 5484TIP3   OH237866   5.957   3.399  14.772 -0.1610  0.5557 -0.0771
 5484TIP3    H137867   5.920   3.327  14.722  0.1785  1.4672 -1.6674
 5484TIP3    H237868   6.052   3.386  14.767 -0.1357  0.3029  0.8742
 5485TIP3   OH237869   7.062   1.540  15.591 -0.5591  0.2864  0.3310
 5485TIP3    H137870   7.055   1.585  15.508 -1.7190 -1.3192 -0.4818
 5485TIP3    H237871   6.991   1.576  15.644 -0.7464  0.2593  0.1004
 5486TIP3   OH237872   0.275   6.749  15.961  0.2242 -0.0091 -0.2205
 5486TIP3    H137873   0.362   6.714  15.942 -0.1286 -0.1566 -1.6184
 5486TIP3    H237874   0.222   6.671  15.980  0.3571  0.0729  0.5271
 5487TIP3   OH237875   3.005   1.039  14.000  0.3492  0.2152 -0.6165
 5487TIP3    H137876   2.924   1.014  13.954 -0.1531 -0.2048  0.4877
 5487TIP3    H237877   3.060   0.961  13.995 -0.1836 -0.2331  0.5509
 5488TIP3   OH237878   3.182   3.493   0.121 -0.1001 -0.6282  0.5602
 5488TIP3    H137879   3.091   3.500   0.090 -0.0032 -1.5275  0.0253
 5488TIP3    H237880   3.214   3.412   0.080  0.4152 -1.2165  2.0972
 5489TIP3   OH237881   6.949   4.722  13.516  0.1516 -0.0870 -0.0090
 5489TIP3    H137882   6.976   4.812  13.537  0.3026 -0.2461  0.4788
 5489TIP3    H237883   6.872   4.733  13.460 -1.3949  0.3511  2.1203
 5490TIP3   OH237884   1.460   6.308  14.557 -0.2403 -0.1602  0.4070
 5490TIP3    H137885   1.541   6.277  14.518 -1.1965 -0.5527 -1.3579
 5490TIP3    H237886   1.463   6.279  14.648  0.7079 -1.8742 -0.1613
 5491TIP3   OH237887   6.961   5.142  12.109  0.4715  0.4561  0.3965
 5491TIP3    H137888   6.878   5.095  12.101  0.4660  0.5259  0.0164
 5491TIP3    H237889   6.936   5.232  12.129  0.4525  0.4936  0.2060
 5492TIP3   OH237890   5.273   3.871  11.134 -0.8329 -0.2280 -0.1219
 5492TIP3    H137891   5.287   3.960  11.169 -0.4933 -0.6842  0.9263
 5492TIP3    H237892   5.339   3.818  11.179  0.5297 -0.5966 -2.4603
 5493TIP3   OH237893   3.281   6.003  13.043 -0.2290 -0.3596  0.2485
 5493TIP3    H137894   3.212   6.050  12.997  0.7060 -0.3344 -1.1825
 5493TIP3    H237895   3.337   6.073  13.079  0.1470 -0.3773 -0.3012
 5494TIP3   OH237896   0.302   5.920  14.525 -0.0714 -0.2371 -0.6754
 5494TIP3    H137897   0.381   5.972  14.511  0.2946  0.0750  2.1491
 5494TIP3    H237898   0.335   5.833  14.549 -0.6077 -0.4916 -0.8665
 5495TIP3   OH237899   5.707   3.453  12.009 -0.0674 -0.6983  0.3301
 5495TIP3    H137900   5.642   3.492  11.949 -1.1616 -0.3557  1.7051
 5495TIP3    H237901   5.660   3.445  12.092  1.2098 -1.8555  0.9433
 5496TIP3   OH237902   0.393   5.017  14.535 -0.3296  0.0982  0.3836
 5496TIP3    H137903   0.476   5.063  14.542  0.6231 -1.3250 -1.3239
 5496TIP3    H237904   0.362   5.011  14.626  1.7000  0.1274  1.1042
 5497TIP3   OH237905   0.639   1.884  12.321 -0.2102  0.0619  0.3724
 5497TIP3    H137906   0.694   1.959  12.345 -0.3632  0.7531 -1.4110
 5497TIP3    H237907   0.557   1.898  12.370  0.2761  0.3176  1.1186
 5498TIP3   OH237908   5.805   2.871  11.932 -0.3492 -0.2632 -0.0105
 5498TIP3    H137909   5.856   2.934  11.983 -1.3063  0.8736 -0.4163
 5498TIP3    H237910   5.769   2.811  11.997 -0.1154  0.1248  0.4795
 5499TIP3   OH237911   1.434   5.639  14.570 -0.1022 -0.0996 -0.1643
 5499TIP3    H137912   1.380   5.604  14.500 -1.4250  0.0070  0.7739
 5499TIP3    H237913   1.444   5.732  14.548 -1.8011  0.2766  0.5623
 5500TIP3   OH237914   6.435   4.238  14.921  0.5530 -0.2385 -0.1760
 5500TIP3    H137915   6.424   4.286  14.839  1.4653  0.3449  0.0315
 5500TIP3    H237916   6.527   4.252  14.945  0.1460  0.1216  1.2601
 5501TIP3   OH237917   2.304   4.068  10.381 -0.1751 -0.0927 -0.1290
 5501TIP3    H137918   2.294   4.143  10.439  0.2151  0.4182 -0.7151
 5501TIP3    H237919   2.353   4.004  10.432  0.2006  0.3684  0.0896
 5502TIP3   OH237920   5.121   4.304  12.449 -0.0358 -0.2590  0.4843
 5502TIP3    H137921   5.158   4.246  12.516 -0.0095  0.4740  1.1207
 5502TIP3    H237922   5.185   4.302  12.378  0.7195  0.1730  1.1402
 5503TIP3   OH237923   7.122   7.172  11.380 -0.2428  0.3246  0.1041
 5503TIP3    H137924   7.104   7.264  11.401  2.2023  0.7561  0.5256
 5503TIP3    H237925   7.167   7.175  11.296  0.4382 -0.4350  0.4376
 5504TIP3   OH237926   4.096   7.098  15.360  0.1111 -0.5335 -0.3262
 5504TIP3    H137927   4.117   7.024  15.417  0.0690 -1.7806 -1.8854
 5504TIP3    H237928   4.020   7.139  15.402  1.9880  0.5391  2.2118
 5505TIP3   OH237929   0.356   2.054  13.539 -0.2144 -0.2471  0.2624
 5505TIP3    H137930   0.356   2.150  13.537  0.7613 -0.2475 -1.6328
 5505TIP3    H237931   0.376   2.032  13.630  0.1817  1.3579  0.5945
 5506TIP3   OH237932   5.951   4.828  11.606  0.1603  0.2788 -0.2063
 5506TIP3    H137933   6.034   4.872  11.586  0.3554  0.0097  0.0140
 5506TIP3    H237934   5.925   4.788  11.523 -0.3308  1.3145 -0.5666
 5507TIP3   OH237935   6.213   1.436  14.493  0.4405 -0.1971 -0.0149
 5507TIP3    H137936   6.294   1.394  14.464  1.3784  1.3196  0.3522
 5507TIP3    H237937   6.144   1.375  14.469  1.5614 -0.7959 -1.7902
 5508TIP3   OH237938   5.664   4.556  13.222 -0.3822  0.1276  0.5642
 5508TIP3    H137939   5.655   4.461  13.228 -0.2708  0.0855  0.1075
 5508TIP3    H237940   5.608   4.590  13.291 -3.1759 -0.1556 -1.4816
 5509TIP3   OH237941   1.652   5.957  11.468 -0.2594  0.7838  0.4741
 5509TIP3    H137942   1.630   5.988  11.556  0.0490 -0.3028  0.9433
 5509TIP3    H237943   1.572   5.971  11.417 -0.1982  2.1183  0.7340
 5510TIP3   OH237944   6.191   3.175  10.372 -0.4191 -0.2988 -0.0172
 5510TIP3    H137945   6.145   3.106  10.325 -0.8396 -1.0956  1.5482
 5510TIP3    H237946   6.225   3.232  10.303 -0.3961 -1.8445 -1.3095
 5511TIP3   OH237947   4.388   4.720  15.366  0.2989  0.1840 -0.2546
 5511TIP3    H137948   4.399   4.782  15.438  0.7944 -0.4710  0.2443
 5511TIP3    H237949   4.302   4.739  15.331  0.7558  1.6592 -0.5894
 5512TIP3   OH237950   2.480   4.030  13.030 -0.6174  0.4928  0.3118
 5512TIP3    H137951   2.556   4.016  12.974 -1.5292 -0.4535 -0.7368
 5512TIP3    H237952   2.425   4.092  12.982 -0.7259  0.8078  0.8379
 5513TIP3   OH237953   5.543   4.918  12.499  0.7537 -0.0639 -0.0467
 5513TIP3    H137954   5.568   4.859  12.570  2.6883 -3.3952 -3.3053
 5513TIP3    H237955   5.626   4.951  12.465 -0.0487  0.2674 -1.7445
 5514TIP3   OH237956   1.580   7.063  13.608 -0.3326  0.2213  0.2606
 5514TIP3    H137957   1.579   6.979  13.653 -0.3227 -0.0246 -0.2009
 5514TIP3    H237958   1.634   7.049  13.530  1.4253  1.2075  1.2610
 5515TIP3   OH237959   6.343   4.988  11.520  0.1010  0.3878 -0.6493
 5515TIP3    H137960   6.253   4.999  11.488 -0.5522 -1.9502  0.2250
 5515TIP3    H237961   6.394   5.053  11.472 -2.1582  2.1559 -0.7395
 5516TIP3   OH237962   7.151   5.820  12.584 -0.3775  0.0259  0.4661
 5516TIP3    H137963   7.135   5.899  12.533 -1.8091 -1.0561 -0.8106
 5516TIP3    H237964   7.135   5.748  12.523 -1.1365 -1.2834  2.1591
 5517TIP3   OH237965   0.492   1.581  11.051  0.0500 -0.5603 -0.5080
 5517TIP3    H137966   0.585   1.605  11.054 -0.1486  0.2889 -1.0215
 5517TIP3    H237967   0.476   1.537  11.134  1.3676 -2.4112 -1.1818
 5518TIP3   OH237968   3.114   4.218  11.305  0.3018 -0.1323  0.3722
 5518TIP3    H137969   3.110   4.145  11.243 -1.3529  0.7339 -0.5541
 5518TIP3    H237970   3.023   4.243  11.319  0.6924  0.0347  2.7677
 5519TIP3   OH237971   5.837   6.620  13.434  0.3857 -0.1922 -0.4731
 5519TIP3    H137972   5.751   6.651  13.407 -0.4189 -1.3683  0.6483
 5519TIP3    H237973   5.897   6.691  13.412 -1.3501  2.0087  1.7197
 5520TIP3   OH237974   1.451   3.331  10.888  0.3284  0.3990 -0.6105
 5520TIP3    H137975   1.472   3.419  10.857  2.2605 -0.6921 -2.6459
 5520TIP3    H237976   1.525   3.308  10.945 -0.4639  0.3172  0.3806
 5521TIP3   OH237977   6.843   5.522  14.958  0.2759 -0.0485  0.2082
 5521TIP3    H137978   6.850   5.439  14.912 -2.6770 -0.7880  0.9916
 5521TIP3    H237979   6.932   5.540  14.989  0.8416 -3.2152  0.5665
 5522TIP3   OH237980   4.422   5.524  13.335 -0.8838  0.3707  0.0635
 5522TIP3    H137981   4.491   5.468  13.370 -1.3480  1.3486  2.6666
 5522TIP3    H237982   4.464   5.571  13.263 -0.5663 -3.4079 -2.3455
 5523TIP3   OH237983   3.506   3.015  11.837  0.1269  0.0536  0.1102
 5523TIP3    H137984   3.488   3.108  11.847  0.2357  0.0626  0.2247
 5523TIP3    H237985   3.425   2.971  11.861  0.0827  0.1182  0.0756
 5524TIP3   OH237986   6.690   2.026  11.333  0.3795  0.3309 -0.1777
 5524TIP3    H137987   6.743   1.968  11.278  0.1081  0.9650 -1.1140
 5524TIP3    H237988   6.748   2.098  11.355  0.6237 -0.1360  0.7451
 5525TIP3   OH237989   5.000   6.160  11.156  0.1389  0.0047  0.2463
 5525TIP3    H137990   5.075   6.211  11.126 -0.0564  0.1790  0.0526
 5525TIP3    H237991   5.011   6.155  11.251  0.4218 -0.0111  0.2136
 5526TIP3   OH237992   5.671   3.538  14.105 -0.0644 -0.0179  1.2199
 5526TIP3    H137993   5.675   3.627  14.139 -2.4026  1.1613 -1.4123
 5526TIP3    H237994   5.588   3.503  14.138  0.5294 -0.9990  1.6931
 5527TIP3   OH237995   5.311   2.249  13.061  0.3956  0.1734 -0.3800
 5527TIP3    H137996   5.359   2.330  13.048  1.7096 -0.3591  1.0228
 5527TIP3    H237997   5.377   2.180  13.053 -0.3613 -0.6518  0.2811
 5528TIP3   OH237998   6.757   6.426  14.192  0.8649 -0.1671 -0.1847
 5528TIP3    H137999   6.721   6.361  14.131  0.0671 -1.1130  1.2699
 5528TIP3    H238000   6.832   6.382  14.233 -0.3944 -0.6390  1.6802
 5529TIP3   OH238001   6.274   6.370  11.580  0.3362  0.5461  0.0924
 5529TIP3    H138002   6.274   6.388  11.486  1.5047  1.2201  0.2091
 5529TIP3    H238003   6.311   6.282  11.587 -0.3822  0.2211 -0.1147
 5530TIP3   OH238004   2.591   5.778  11.415 -1.4144 -0.1553 -0.0595
 5530TIP3    H138005   2.586   5.817  11.328 -1.2629  0.9980  0.4294
 5530TIP3    H238006   2.682   5.792  11.442 -1.2715 -1.1673 -0.0128
 5531TIP3   OH238007   0.267   6.730  14.293  0.3285 -0.5085 -0.3813
 5531TIP3    H138008   0.325   6.766  14.226  1.2037 -0.0926  0.5921
 5531TIP3    H238009   0.226   6.806  14.333  2.8011 -0.4834  2.2467
 5532TIP3   OH238010   3.054   2.510   0.348  0.2446  0.2845 -0.0513
 5532TIP3    H138011   3.033   2.418   0.327 -0.6443  0.5251 -0.2189
 5532TIP3    H238012   3.149   2.511   0.356  0.4459 -0.2790 -1.9595
 5533TIP3   OH238013   5.806   6.897  11.698 -0.1626  0.0242 -0.0411
 5533TIP3    H138014   5.733   6.953  11.673 -0.0872  0.4411  0.6426
 5533TIP3    H238015   5.776   6.808  11.683 -0.1429  0.2642 -1.5193
 5534TIP3   OH238016   0.721   2.216  12.178 -0.3779 -0.5209  0.0285
 5534TIP3    H138017   0.730   2.162  12.099 -0.3006  0.0677 -0.3684
 5534TIP3    H238018   0.792   2.187  12.235  1.7029  1.4410 -1.5148
 5535TIP3   OH238019   6.683   1.725  12.647 -0.0772 -0.5465 -0.0755
 5535TIP3    H138020   6.771   1.697  12.671  0.4531  0.2373 -1.0756
 5535TIP3    H238021   6.653   1.658  12.585  0.0410 -0.5024 -0.1804
 5536TIP3   OH238022   0.620   3.921  15.212  0.4730 -0.3486  0.4192
 5536TIP3    H138023   0.705   3.910  15.170  0.1858  2.4256 -0.9561
 5536TIP3    H238024   0.624   4.007  15.254 -1.3023 -0.6127  1.2043
 5537TIP3   OH238025   2.388   4.923  13.863  0.3619  0.4880  0.2515
 5537TIP3    H138026   2.377   4.908  13.770  0.2484 -2.5786  0.7062
 5537TIP3    H238027   2.303   4.952  13.894  0.1324  0.5491 -0.4427
 5538TIP3   OH238028   1.215   4.946  10.330 -0.0929 -0.5893  0.0478
 5538TIP3    H138029   1.191   5.031  10.294 -2.6930 -0.6825  1.4245
 5538TIP3    H238030   1.198   4.884  10.260  1.7088 -0.0122 -0.9232
 5539TIP3   OH238031   6.344   5.894  14.002 -0.1085 -0.6899  0.1635
 5539TIP3    H138032   6.387   5.941  14.074  0.4468 -1.1491  0.1340
 5539TIP3    H238033   6.258   5.936  13.994  0.5821  0.6756 -0.2061
 5540TIP3   OH238034   7.129   6.974  14.481 -0.3754  0.1368  0.3663
 5540TIP3    H138035   7.152   7.054  14.435 -1.0521  0.4744  0.6134
 5540TIP3    H238036   7.159   6.904  14.423 -0.2228  0.5634 -0.0732
 5541TIP3   OH238037   4.428   4.688  13.805  0.9074  0.0074  0.0676
 5541TIP3    H138038   4.439   4.772  13.850  0.1593  0.0687  0.1483
 5541TIP3    H238039   4.516   4.665  13.775  1.1462  0.7372  0.1932
 5542TIP3   OH238040   0.213   1.613  13.539 -0.7521 -0.1660 -0.0355
 5542TIP3    H138041   0.232   1.548  13.607 -1.9162 -3.7454 -3.0041
 5542TIP3    H238042   0.144   1.574  13.487  2.3018  0.9731 -5.2961
 5543TIP3   OH238043   4.095   2.199  12.207  0.5614 -0.2849 -0.2186
 5543TIP3    H138044   4.161   2.261  12.237  1.3271 -1.5634  0.7989
 5543TIP3    H238045   4.126   2.168  12.122  0.2667  0.5675 -0.6455
 5544TIP3   OH238046   5.736   0.540  12.573 -0.8184  0.1624  0.2235
 5544TIP3    H138047   5.687   0.481  12.515 -1.2721  0.5943  0.1660
 5544TIP3    H238048   5.799   0.583  12.515 -1.6206  0.9766 -0.0432
 5545TIP3   OH238049   6.106   4.268  14.797 -0.6770 -0.4427  0.0522
 5545TIP3    H138050   6.097   4.329  14.723  0.7702  0.0310  0.2472
 5545TIP3    H238051   6.149   4.191  14.759 -2.0261 -1.1458 -0.0794
 5546TIP3   OH238052   0.668   2.735  14.821  0.4850 -0.0581 -0.0352
 5546TIP3    H138053   0.682   2.792  14.745  1.5909  0.3343  0.4530
 5546TIP3    H238054   0.664   2.795  14.895 -0.7466 -0.4291  0.2148
 5547TIP3   OH238055   0.670   0.872  12.710  0.8480  0.1852 -0.2590
 5547TIP3    H138056   0.732   0.804  12.736 -0.5396 -1.2973 -0.7034
 5547TIP3    H238057   0.611   0.881  12.785  0.7088  0.5132 -0.4053
 5548TIP3   OH238058   0.758   4.744  11.872  0.4568 -0.4748  0.1862
 5548TIP3    H138059   0.852   4.742  11.854  0.3458 -0.4369 -0.4037
 5548TIP3    H238060   0.717   4.742  11.786 -0.0614  0.6406  0.3951
 5549TIP3   OH238061   1.410   6.476  11.452  0.2085  0.0815  0.3718
 5549TIP3    H138062   1.374   6.546  11.506 -0.0395  0.6768 -0.5528
 5549TIP3    H238063   1.377   6.494  11.364 -0.8472 -1.8719  0.3317
 5550TIP3   OH238064   0.473   4.468  15.426  0.2587 -0.2092 -0.3662
 5550TIP3    H138065   0.405   4.516  15.378  0.3027  0.8039  0.5730
 5550TIP3    H238066   0.427   4.429  15.500  0.6946  0.4957  0.2833
 5551TIP3   OH238067   5.001   5.721  12.992 -0.6737  0.0245 -0.1811
 5551TIP3    H138068   5.093   5.740  13.010 -0.5873  0.2108 -0.7924
 5551TIP3    H238069   5.002   5.634  12.953 -0.8392 -0.3066  0.5572
 5552TIP3   OH238070   5.127   3.224  14.994  0.0977  0.5910 -0.3207
 5552TIP3    H138071   5.041   3.236  15.034 -0.0052 -0.4183 -0.2352
 5552TIP3    H238072   5.184   3.199  15.066 -0.0356 -0.9855 -0.7469
 5553TIP3   OH238073   5.019   5.154   0.024 -0.5011  0.7288  0.1425
 5553TIP3    H138074   4.981   5.199  -0.052  1.3182  0.6947 -0.7992
 5553TIP3    H238075   4.998   5.212   0.098  0.3191  2.2845 -0.8114
 5554TIP3   OH238076   5.916   4.402  12.059 -0.7542 -0.6923  0.2526
 5554TIP3    H138077   5.891   4.485  12.100 -0.6715 -0.9983  0.9337
 5554TIP3    H238078   5.893   4.335  12.124 -0.7962 -1.2030 -0.2836
 5555TIP3   OH238079   0.386   3.677  11.677 -0.3609 -0.1512  0.2683
 5555TIP3    H138080   0.434   3.596  11.658  1.2996  1.1988 -1.5724
 5555TIP3    H238081   0.386   3.683  11.772 -1.4117 -2.8069  0.4899
 5556TIP3   OH238082   0.252   4.128  12.930  0.1794  0.2464 -0.1681
 5556TIP3    H138083   0.221   4.051  12.882 -0.9121  0.9145 -0.5523
 5556TIP3    H238084   0.216   4.203  12.882  1.0996  1.0009  0.2917
 5557TIP3   OH238085   6.289   1.559  10.997  0.3000  0.0417  0.1987
 5557TIP3    H138086   6.319   1.479  11.041  1.3842 -0.0306 -0.6430
 5557TIP3    H238087   6.281   1.623  11.067  1.9783 -0.0796  0.5213
 5558TIP3   OH238088   5.903   1.321  12.825  0.4793  0.2591  0.0291
 5558TIP3    H138089   5.807   1.321  12.836  0.2231 -2.8186 -1.7900
 5558TIP3    H238090   5.920   1.394  12.766 -0.6492  1.3280  0.9867
 5559TIP3   OH238091   7.274   6.671  11.443 -0.2301  0.3179  0.5348
 5559TIP3    H138092   7.242   6.759  11.426  2.6301  0.8574 -2.3446
 5559TIP3    H238093   7.233   6.617  11.376  0.2337 -0.0483  0.5443
 5560TIP3   OH238094   4.692   5.682  12.130 -0.4661  0.1100 -0.3441
 5560TIP3    H138095   4.772   5.631  12.145  0.9870  2.3609 -0.2845
 5560TIP3    H238096   4.700   5.713  12.040 -1.5566 -0.0966 -0.5187
 5561TIP3   OH238097   2.945   4.048   0.563 -0.6083  0.1672 -0.1408
 5561TIP3    H138098   2.968   3.985   0.631 -1.6442 -0.1453 -0.0728
 5561TIP3    H238099   2.947   4.133   0.607  1.1724  0.2407 -0.3245
 5562TIP3   OH238100   4.663   4.201  12.919 -0.0586  0.0639  0.1180
 5562TIP3    H138101   4.693   4.123  12.967  1.5674  0.0596 -0.8948
 5562TIP3    H238102   4.567   4.193  12.918  0.1719 -3.5842 -2.6856
 5563TIP3   OH238103   0.077   7.167  11.489 -0.0644  0.7841  0.1385
 5563TIP3    H138104   0.021   7.210  11.555  0.4102 -0.6235  1.4841
 5563TIP3    H238105   0.017   7.144  11.418 -0.3654  3.5022 -0.5621
 5564TIP3   OH238106   0.949   4.983  14.624 -0.0133  0.7546  0.6046
 5564TIP3    H138107   0.957   4.914  14.559  2.5346  1.1845  0.4310
 5564TIP3    H238108   0.978   4.943  14.706  0.9836  1.4404  0.6009
 5565TIP3   OH238109   4.702   2.134  11.034  0.3733 -0.8737  0.8181
 5565TIP3    H138110   4.720   2.045  11.063 -0.4030 -1.0709  0.6865
 5565TIP3    H238111   4.720   2.189  11.111 -2.2747 -1.4431  1.8729
 5566TIP3   OH238112   5.059   4.515  13.071  0.0222 -0.2478 -0.2853
 5566TIP3    H138113   4.975   4.474  13.046 -0.6542 -1.0843  3.1480
 5566TIP3    H238114   5.118   4.441  13.083  0.3417  0.1270  0.4722
 5567TIP3   OH238115   6.332   4.049  10.612  0.2643  0.5156 -0.2194
 5567TIP3    H138116   6.240   4.024  10.602  0.3447  0.9838 -2.3488
 5567TIP3    H238117   6.340   4.076  10.704 -0.9801 -2.4658  0.8500
 5568TIP3   OH238118   6.660   6.172  12.095  0.9174  0.1250  0.7022
 5568TIP3    H138119   6.732   6.228  12.125 -0.8241  0.8282  3.7389
 5568TIP3    H238120   6.690   6.083  12.114  2.6993  0.0889 -1.9704
 5569TIP3   OH238121   5.734   5.367  15.972 -0.1055 -0.0197  0.5587
 5569TIP3    H138122   5.773   5.424  16.038  3.1045  0.2718 -1.4816
 5569TIP3    H238123   5.697   5.428  15.908  0.8291 -0.2186 -0.1849
 5570TIP3   OH238124   5.508   7.150  14.131 -0.0524  0.2219 -0.1987
 5570TIP3    H138125   5.582   7.162  14.191 -0.2346 -0.1245  0.0948
 5570TIP3    H238126   5.542   7.178  14.046  0.3976  0.1190 -0.0559
 5571TIP3   OH238127   2.444   2.581  14.605 -0.2168 -0.1321 -0.4729
 5571TIP3    H138128   2.430   2.639  14.680 -0.1620  0.1654 -0.6908
 5571TIP3    H238129   2.358   2.543  14.588  0.1166 -1.5349  0.8295
 5572TIP3   OH238130   4.374   3.261  10.484  0.0545  0.2289 -0.6802
 5572TIP3    H138131   4.359   3.262  10.579 -0.3646 -1.1714 -0.7300
 5572TIP3    H238132   4.304   3.316  10.449  1.2294  2.1933 -0.0513
 5573TIP3   OH238133   6.668   5.311  11.858 -0.1057  0.2989  0.2105
 5573TIP3    H138134   6.760   5.325  11.834  0.1677 -1.1626  0.3605
 5573TIP3    H238135   6.669   5.230  11.909 -1.3372  0.8764  1.1552
 5574TIP3   OH238136   0.071   5.736  11.159 -0.5323 -0.0613 -0.1232
 5574TIP3    H138137   0.101   5.822  11.190 -1.2044  0.3091 -0.4880
 5574TIP3    H238138   0.150   5.693  11.127 -0.1640  0.3614  0.2104
 5575TIP3   OH238139   5.886   1.863  11.294 -0.2192  0.1076  0.0441
 5575TIP3    H138140   5.909   1.954  11.313 -1.5600  0.5919 -0.6196
 5575TIP3    H238141   5.935   1.843  11.214  1.0829 -0.1791  0.8933
 5576TIP3   OH238142   6.049   5.362  10.326  0.4744 -0.4700 -0.2073
 5576TIP3    H138143   6.067   5.379  10.234 -0.2395 -0.7570 -0.3993
 5576TIP3    H238144   6.075   5.442  10.371 -0.1817  0.0667 -0.7792
 5577TIP3   OH238145   6.358   2.300  13.195  0.1748 -0.0247 -0.4118
 5577TIP3    H138146   6.317   2.239  13.256  0.4182  0.0100 -0.2117
 5577TIP3    H238147   6.386   2.246  13.121  0.3393 -0.1470 -0.2600
 5578TIP3   OH238148   1.258   1.388  10.040  0.0549 -0.1990  0.2295
 5578TIP3    H138149   1.296   1.304  10.064 -0.6175 -0.4552  0.4118
 5578TIP3    H238150   1.291   1.449  10.106 -0.1413 -0.4880  0.5923
 5579TIP3   OH238151   2.321   4.365   0.160 -0.3070  0.4157 -0.8028
 5579TIP3    H138152   2.361   4.449   0.181  0.8356 -0.4152  0.4691
 5579TIP3    H238153   2.227   4.383   0.158 -0.0891  1.6653 -0.2400
 5580TIP3   OH238154   5.814   4.193  11.385 -0.1304  0.4123  0.2657
 5580TIP3    H138155   5.758   4.235  11.320  0.3037 -1.1523 -1.1625
 5580TIP3    H238156   5.856   4.265  11.432  0.2647  1.5600 -1.8237
 5581TIP3   OH238157   4.259   5.347  10.991 -0.2917  0.2115  0.3011
 5581TIP3    H138158   4.311   5.398  11.053  1.5583 -0.9765 -0.2387
 5581TIP3    H238159   4.171   5.383  10.999  0.3018  1.3156  2.2677
 5582TIP3   OH238160   1.145   4.671  11.948 -0.2662  0.0656  0.6239
 5582TIP3    H138161   1.232   4.643  11.977 -0.1745 -0.9210 -0.5854
 5582TIP3    H238162   1.161   4.749  11.894 -0.2328  0.4616  1.1935
 5583TIP3   OH238163   6.265   5.465  10.691  0.5700  0.2359  0.3339
 5583TIP3    H138164   6.189   5.423  10.731 -0.7235  1.1252 -1.1664
 5583TIP3    H238165   6.308   5.395  10.642 -0.5664  0.2496 -0.6869
 5584TIP3   OH238166   1.204   4.150  11.441 -0.3276 -1.0108  0.4753
 5584TIP3    H138167   1.279   4.104  11.477 -0.3823 -0.5288  1.2074
 5584TIP3    H238168   1.201   4.233  11.488  0.7658  0.4800 -1.9963
 5585TIP3   OH238169   0.858   4.290  15.168 -0.0348  0.2241 -0.3036
 5585TIP3    H138170   0.835   4.308  15.259 -0.2811 -1.1653 -0.0905
 5585TIP3    H238171   0.841   4.373  15.122 -1.1579  0.5346  0.6619
 5586TIP3   OH238172   6.737   5.902  13.880  0.0784 -0.0447 -0.4849
 5586TIP3    H138173   6.743   5.956  13.959 -0.7720 -0.1380 -0.3514
 5586TIP3    H238174   6.644   5.886  13.869 -0.0982  2.3363 -3.1178
 5587TIP3   OH238175   1.277   3.795  15.125  0.5325  0.6222 -0.6922
 5587TIP3    H138176   1.247   3.885  15.120 -0.5096  0.2713 -0.9373
 5587TIP3    H238177   1.313   3.786  15.213 -0.4445  0.9462 -0.2576
 5588TIP3   OH238178   4.978   2.682  12.109  0.3721 -0.4537 -0.5422
 5588TIP3    H138179   4.948   2.594  12.086 -0.5715 -0.4030  0.4807
 5588TIP3    H238180   5.026   2.712  12.031  0.9166 -1.9659 -0.8096
 5589TIP3   OH238181   6.757   3.172  12.817  0.4259 -0.4561 -0.0205
 5589TIP3    H138182   6.790   3.199  12.903 -2.3384 -0.1209  0.9917
 5589TIP3    H238183   6.792   3.236  12.756  1.3667  0.0573  1.0504
 5590TIP3   OH238184   1.242   3.409  14.454 -0.0724 -0.0555 -0.5316
 5590TIP3    H138185   1.268   3.461  14.530  0.7872  1.3851 -1.7646
 5590TIP3    H238186   1.254   3.468  14.380 -2.1386 -1.0071 -1.6712
 5591TIP3   OH238187   5.139   5.890  11.718  0.0095 -0.3459 -0.5386
 5591TIP3    H138188   5.210   5.917  11.777 -0.6989 -0.1355  0.2301
 5591TIP3    H238189   5.181   5.831  11.655  1.2133  1.1250 -1.1470
 5592TIP3   OH238190   7.079   5.692  13.010 -0.3900  0.5089  0.4334
 5592TIP3    H138191   7.162   5.651  12.984 -0.4678  1.6942 -1.7990
 5592TIP3    H238192   7.105   5.760  13.072  0.4137  1.4315 -0.8949
 5593TIP3   OH238193   3.960   6.676   0.218  0.2816  0.1518  0.1674
 5593TIP3    H138194   3.891   6.727   0.176  1.1247  0.8896 -0.3622
 5593TIP3    H238195   3.946   6.587   0.187 -1.2469  0.0390  1.1580
 5594TIP3   OH238196   6.858   4.867  11.396  0.2467  0.6272  1.0691
 5594TIP3    H138197   6.812   4.940  11.356  0.7559 -0.7150 -2.1916
 5594TIP3    H238198   6.797   4.793  11.389  0.4898  0.2790  2.4993
 5595TIP3   OH238199   1.752   4.998  12.363 -0.0254 -0.5098  0.4159
 5595TIP3    H138200   1.816   4.932  12.337 -0.8586 -1.4273  0.6615
 5595TIP3    H238201   1.710   5.024  12.281  0.6718  0.1027  0.2558
 5596TIP3   OH238202   6.401   5.215  12.851  0.0836 -0.0552 -0.0209
 5596TIP3    H138203   6.380   5.158  12.778  0.3360  1.9420 -1.6877
 5596TIP3    H238204   6.491   5.190  12.876 -0.8538 -2.3562  1.2077
 5597TIP3   OH238205   3.666   4.462  10.235 -0.0879 -0.9287 -0.0461
 5597TIP3    H138206   3.735   4.523  10.210  0.5716 -0.7027  2.2103
 5597TIP3    H238207   3.712   4.389  10.275 -0.9998 -2.0919 -1.0768
 5598TIP3   OH238208   7.058   5.982  12.071  0.4612 -0.7563  0.4122
 5598TIP3    H138209   7.046   5.942  11.985 -1.6737  1.9151 -0.5622
 5598TIP3    H238210   7.151   6.006  12.073  0.3324 -0.0416 -1.4782
 5599TIP3   OH238211   0.132   5.423  10.594 -0.1693 -0.6844  0.7251
 5599TIP3    H138212   0.104   5.466  10.513  1.6222 -0.8121  0.0303
 5599TIP3    H238213   0.093   5.476  10.663  0.4276  0.9689 -0.1727
 5600TIP3   OH238214   4.349   7.105  11.100  0.0400  0.3545 -0.0526
 5600TIP3    H138215   4.258   7.131  11.082 -0.2084 -2.1512 -2.7650
 5600TIP3    H238216   4.402   7.168  11.051 -0.3157  0.1089 -0.7519
 5601TIP3   OH238217   5.026   2.139  14.546 -0.4533  0.4013  0.2403
 5601TIP3    H138218   5.079   2.200  14.598 -0.2721  0.8278 -0.4480
 5601TIP3    H238219   5.088   2.070  14.521 -0.9286 -0.7415  2.0653
 5602TIP3   OH238220   1.813   5.952  13.651  0.8599 -0.1254 -0.1487
 5602TIP3    H138221   1.814   6.039  13.690 -0.6591 -0.6452  1.0590
 5602TIP3    H238222   1.729   5.946  13.606  0.5133 -1.3480  0.6413
 5603TIP3   OH238223   6.961   2.152  13.380 -0.2225  0.6138 -0.6376
 5603TIP3    H138224   7.055   2.148  13.397 -0.3746  1.4541  0.4465
 5603TIP3    H238225   6.951   2.218  13.311  0.2092 -1.3820 -2.6959
 5604TIP3   OH238226   3.879   1.774  11.174  0.7647  0.0177  0.5072
 5604TIP3    H138227   3.877   1.848  11.235  0.2019  1.0958 -0.8206
 5604TIP3    H238228   3.948   1.718  11.208  1.2050  1.1504  1.5206
 5605TIP3   OH238229   3.301   2.363  15.512  0.3164  0.2672 -0.2702
 5605TIP3    H138230   3.216   2.368  15.556  0.2919 -0.7508 -0.1991
 5605TIP3    H238231   3.358   2.421  15.563  0.2160 -0.6835  0.9405
 5606TIP3   OH238232   6.634   0.997  15.249  0.2075  0.3140  0.4227
 5606TIP3    H138233   6.664   0.918  15.203  0.5122 -0.9112  2.6649
 5606TIP3    H238234   6.713   1.050  15.260  0.6447 -0.5912  1.8108
 5607TIP3   OH238235   6.145   3.013  10.628 -0.0624 -0.4765 -0.4942
 5607TIP3    H138236   6.088   3.022  10.552 -1.8316 -1.9711  0.6222
 5607TIP3    H238237   6.232   2.994  10.591 -0.7020 -0.2064 -2.1563
 5608TIP3   OH238238   6.690   5.813  13.390  0.2611  0.1427  0.4475
 5608TIP3    H138239   6.658   5.729  13.424  0.3604 -0.4729 -0.9410
 5608TIP3    H238240   6.743   5.849  13.461  1.1996 -1.5328  0.6249
 5609TIP3   OH238241   6.996   4.783  14.559  0.2458  0.1191 -0.1738
 5609TIP3    H138242   7.015   4.725  14.485  0.5744 -0.6345  0.4974
 5609TIP3    H238243   6.900   4.789  14.560  0.1201 -1.6155  0.6555
 5610TIP3   OH238244   5.769   2.121  11.218 -0.0233  0.2372  0.0527
 5610TIP3    H138245   5.685   2.161  11.196  0.0136  0.3005  0.0245
 5610TIP3    H238246   5.805   2.093  11.133  0.7610  1.7500 -0.1281
 5611TIP3   OH238247   0.716   3.686  13.132  0.1281  0.0158  0.4674
 5611TIP3    H138248   0.638   3.652  13.089 -0.2218  0.9094  0.3920
 5611TIP3    H238249   0.774   3.713  13.059 -0.2448  1.0325  0.5396
 5612TIP3   OH238250   6.752   6.717  15.455  0.0651 -0.1383  0.5918
 5612TIP3    H138251   6.753   6.724  15.551  0.3422  0.9057  0.5176
 5612TIP3    H238252   6.842   6.697  15.431  0.2292  0.7596  0.4653
 5613TIP3   OH238253   5.968   6.358  15.121 -0.3519  0.0066  0.1199
 5613TIP3    H138254   6.020   6.278  15.119 -1.1796 -0.5517  0.3752
 5613TIP3    H238255   5.878   6.327  15.137 -0.7041  0.9693  0.0139
 5614TIP3   OH238256   3.422   5.251   0.335  0.4746  0.2975  0.4022
 5614TIP3    H138257   3.397   5.210   0.418  0.1508 -0.4212 -0.0463
 5614TIP3    H238258   3.341   5.255   0.285  0.5788  1.1645  0.3037
 5615TIP3   OH238259   5.007   4.309  11.625  0.3623 -0.1614 -0.0649
 5615TIP3    H138260   5.036   4.379  11.683  0.8709 -0.3748 -0.0621
 5615TIP3    H238261   5.001   4.349  11.539  1.6261 -0.3630 -0.2495
 5616TIP3   OH238262   7.275   3.769  11.527 -0.2116  0.4238 -0.0477
 5616TIP3    H138263   7.339   3.829  11.567  1.1348 -1.1157  0.1540
 5616TIP3    H238264   7.315   3.747  11.442 -2.2390  2.3412 -1.5541
 5617TIP3   OH238265   5.122   3.332  13.527  0.1092  0.7048  0.2237
 5617TIP3    H138266   5.038   3.320  13.570 -0.2808  0.1514 -0.6692
 5617TIP3    H238267   5.182   3.359  13.597 -1.2728  3.1363  0.4860
 5618TIP3   OH238268   3.616   0.881  11.284 -0.3724  0.1050 -0.4948
 5618TIP3    H138269   3.596   0.973  11.270  0.2482  0.3006 -0.1090
 5618TIP3    H238270   3.532   0.836  11.271 -1.6831  1.1583  3.3670
 5619TIP3   OH238271   2.425   1.381  10.503 -0.3141  0.0953 -0.1763
 5619TIP3    H138272   2.452   1.299  10.461 -1.6215  0.0901 -1.0298
 5619TIP3    H238273   2.360   1.418  10.443  1.7865  2.8234 -0.8553
 5620TIP3   OH238274   4.729   4.591  11.442  0.5621  0.5557  0.2069
 5620TIP3    H138275   4.688   4.671  11.477 -0.9722 -0.1415  0.0691
 5620TIP3    H238276   4.686   4.578  11.357  2.2288  0.6593 -0.6749
 5621TIP3   OH238277   0.509   0.078  11.154  0.6084  0.1138  0.2817
 5621TIP3    H138278   0.576   0.015  11.131  0.8189  0.2505  0.5240
 5621TIP3    H238279   0.463   0.039  11.229 -0.6376 -0.7346 -0.8930
 5622TIP3   OH238280   6.343   2.248  13.727  0.3855 -0.0104 -0.0656
 5622TIP3    H138281   6.374   2.332  13.694  0.2400  0.9007  2.0132
 5622TIP3    H238282   6.393   2.234  13.807 -1.4029 -0.6436  0.9702
 5623TIP3   OH238283   5.981   6.463  13.628 -0.2367 -0.6170  0.1996
 5623TIP3    H138284   5.961   6.525  13.558 -1.7831  1.1386  2.1580
 5623TIP3    H238285   5.913   6.396  13.621  0.1172 -0.9124 -0.4988
 5624TIP3   OH238286   7.274   0.676  13.208 -0.2053  0.1279 -0.2638
 5624TIP3    H138287   7.226   0.601  13.243  0.8838 -1.0710 -1.3269
 5624TIP3    H238288   7.213   0.750  13.218 -1.5376 -1.0088  0.1549
 5625TIP3   OH238289   5.024   3.615  12.646 -0.2119 -0.0645  0.0384
 5625TIP3    H138290   4.957   3.568  12.695  0.3941  0.6516  1.5669
 5625TIP3    H238291   5.106   3.574  12.671  0.0519 -0.0311 -0.7631
 5626TIP3   OH238292   5.722   5.816  12.685  0.1960  0.4446 -0.7705
 5626TIP3    H138293   5.689   5.726  12.674 -0.2340  0.4038  0.7695
 5626TIP3    H238294   5.805   5.805  12.732  0.9614  0.7532 -2.0293
 5627TIP3   OH238295   0.574   6.040  12.938  0.2860 -0.5870  0.8177
 5627TIP3    H138296   0.628   5.980  12.886  0.8291 -0.8364  1.6494
 5627TIP3    H238297   0.503   5.986  12.972 -1.4260  0.0813 -1.5774
 5628TIP3   OH238298   6.691   4.303  14.018  0.2006  0.3817  0.1532
 5628TIP3    H138299   6.734   4.317  13.933 -0.8553 -0.6436 -0.5636
 5628TIP3    H238300   6.613   4.359  14.015  0.7858  1.2500  0.9318
 5629TIP3   OH238301   6.512   2.277  14.388 -0.6758  0.3313 -0.3802
 5629TIP3    H138302   6.578   2.324  14.337 -0.6889  0.2607 -0.4625
 5629TIP3    H238303   6.428   2.302  14.348 -0.7027  0.4585 -0.2480
 5630TIP3   OH238304   5.803   5.785  13.556 -0.4986 -0.0619 -0.0756
 5630TIP3    H138305   5.719   5.778  13.511 -1.8069 -0.5009  2.2984
 5630TIP3    H238306   5.779   5.787  13.649  2.1605 -0.8388  0.6663
 5631TIP3   OH238307   5.967   5.100  10.823  0.0363 -0.4622  0.5208
 5631TIP3    H138308   5.871   5.097  10.819  0.0037 -0.0617  0.9180
 5631TIP3    H238309   5.988   5.193  10.823  0.2275 -0.4305  4.5043
 5632TIP3   OH238310   6.387   5.812  10.334  0.1947 -0.6093 -0.5625
 5632TIP3    H138311   6.433   5.747  10.388 -0.5008  0.2015  1.0662
 5632TIP3    H238312   6.423   5.896  10.363  0.2286 -0.1849 -1.8039
 5633TIP3   OH238313   5.107   4.816  11.900 -0.1338  0.2164 -0.3599
 5633TIP3    H138314   5.045   4.889  11.888 -1.8201 -1.2365 -0.6841
 5633TIP3    H238315   5.085   4.780  11.986 -0.2770 -0.7922 -0.8124
 5634TIP3   OH238316   2.745   6.083  12.335  0.1104 -0.4204  0.0856
 5634TIP3    H138317   2.798   6.138  12.392  0.0868 -1.2888  0.9492
 5634TIP3    H238318   2.714   6.143  12.266  0.6716  0.4835  0.6119
 5635TIP3   OH238319   1.762   6.250  13.655  0.2213 -0.1807  0.4987
 5635TIP3    H138320   1.667   6.246  13.663  0.0961  1.5090  0.0913
 5635TIP3    H238321   1.779   6.224  13.564  0.1416 -0.3912  0.5441
 5636TIP3   OH238322   4.133   4.457  10.096 -0.4690 -0.6456 -0.0905
 5636TIP3    H138323   4.203   4.458  10.162 -0.9670  1.4006  0.4640
 5636TIP3    H238324   4.054   4.480  10.146 -1.0116 -0.0120 -1.2233
 5637TIP3   OH238325   3.796   2.290  11.202 -0.1028 -0.4797 -0.4926
 5637TIP3    H138326   3.825   2.355  11.266 -0.6546 -0.6622 -0.0549
 5637TIP3    H238327   3.819   2.206  11.240  1.4794 -0.5119 -1.4960
 5638TIP3   OH238328   0.714   3.262  11.469  0.2235 -1.1163  0.3349
 5638TIP3    H138329   0.739   3.170  11.481  0.1216 -1.4104 -1.4896
 5638TIP3    H238330   0.683   3.266  11.378 -0.4597  0.5725  0.6335
 5639TIP3   OH238331   4.859   6.950  13.485  0.6796 -0.1125  0.4821
 5639TIP3    H138332   4.833   6.991  13.403  1.3480 -2.8289 -1.1583
 5639TIP3    H238333   4.864   7.022  13.548  0.7858  2.1019 -1.9908
 5640TIP3   OH238334   2.296   0.483  11.092 -0.5647 -0.5517  0.0781
 5640TIP3    H138335   2.234   0.526  11.032 -0.1614 -0.6038 -0.3776
 5640TIP3    H238336   2.240   0.441  11.157 -0.9348  1.9899  1.4657
 5641TIP3   OH238337   5.077   5.661  10.177  0.2978 -0.3927  0.4511
 5641TIP3    H138338   5.159   5.703  10.202  0.6706 -0.5539 -0.4703
 5641TIP3    H238339   5.098   5.613  10.097 -0.3803 -1.4800  0.9081
 5642TIP3   OH238340   1.672   5.383   9.867  0.2771 -0.5028  0.1783
 5642TIP3    H138341   1.580   5.368   9.889  0.2072 -0.2303  0.0826
 5642TIP3    H238342   1.721   5.328   9.927  0.0758 -0.1174  0.7029
 5643TIP3   OH238343   0.295   3.743  15.591 -0.1022  0.0280 -0.5208
 5643TIP3    H138344   0.290   3.744  15.495 -2.9717 -1.1344 -0.4398
 5643TIP3    H238345   0.338   3.659  15.611  2.1249  1.0588 -0.7814
 5644TIP3   OH238346   6.825   4.598  13.736 -0.0115 -0.4039  0.3250
 5644TIP3    H138347   6.885   4.619  13.665  0.5607 -1.5401  0.4522
 5644TIP3    H238348   6.793   4.510  13.715 -0.6510 -0.3188  0.9194
 5645TIP3   OH238349   3.193   4.729  12.571 -0.6334  0.4194 -0.0496
 5645TIP3    H138350   3.278   4.696  12.541 -0.9847 -1.4082  0.8760
 5645TIP3    H238351   3.206   4.823  12.582  1.4784  0.0463  0.8327
 5646TIP3   OH238352   5.516   0.169  14.824  0.4732  0.0615 -0.6305
 5646TIP3    H138353   5.591   0.167  14.883  1.7969  2.1588 -2.1823
 5646TIP3    H238354   5.482   0.080  14.826  1.7943 -0.4357  1.6136
 5647TIP3   OH238355   6.891   3.548  12.149  0.1519  0.6042  0.5074
 5647TIP3    H138356   6.858   3.582  12.232 -0.9356 -0.1710  0.4050
 5647TIP3    H238357   6.911   3.625  12.097  1.3201  1.1121  1.6607
 5648TIP3   OH238358   6.160   4.782  11.813 -0.1850  0.1013  0.7340
 5648TIP3    H138359   6.113   4.700  11.821  0.0861 -0.1811 -0.3654
 5648TIP3    H238360   6.235   4.761  11.757 -0.2985  1.1601  0.1597
 5649TIP3   OH238361   2.299   0.877  15.297 -0.1083  0.7080 -0.7334
 5649TIP3    H138362   2.338   0.800  15.339 -1.0835  1.7989  2.2781
 5649TIP3    H238363   2.373   0.935  15.280  0.0646  1.1904  1.5394
 5650TIP3   OH238364   7.083   0.659  12.092 -0.2461 -0.4939 -0.0777
 5650TIP3    H138365   7.149   0.593  12.110  0.2972  0.2029  0.5111
 5650TIP3    H238366   7.089   0.720  12.165 -0.8331  0.1394 -0.5447
 5651TIP3   OH238367   0.250   0.071  12.209  0.4977  0.3101 -0.2395
 5651TIP3    H138368   0.242  -0.020  12.181 -0.7407  0.1977  0.4614
 5651TIP3    H238369   0.278   0.065  12.300  0.3397  0.6363 -0.1705
 5652TIP3   OH238370   6.713   0.728  12.946  0.9120  0.2173  0.1285
 5652TIP3    H138371   6.680   0.785  12.876  0.5687  1.4365  1.2433
 5652TIP3    H238372   6.774   0.669  12.902 -1.3052 -0.8175 -1.6521
 5653TIP3   OH238373   0.499   4.801  13.782 -0.4452  0.6935 -0.3342
 5653TIP3    H138374   0.546   4.753  13.714  0.7696  1.6908 -0.2009
 5653TIP3    H238375   0.407   4.778  13.767  0.0954 -1.6156 -0.3127
 5654TIP3   OH238376   7.258   5.452  12.627 -0.0425 -0.5199  0.2210
 5654TIP3    H138377   7.276   5.417  12.540 -2.8738 -2.5298  0.3660
 5654TIP3    H238378   7.163   5.463  12.629  0.0757  0.4168  2.7453
 5655TIP3   OH238379   2.363   3.564  10.802  0.6196 -0.4982  0.0605
 5655TIP3    H138380   2.374   3.654  10.770  1.2230 -0.0267  1.5553
 5655TIP3    H238381   2.437   3.516  10.764  2.0127  0.3247  1.6511
 5656TIP3   OH238382   7.120   5.691  10.460 -0.5729 -0.1697  0.1581
 5656TIP3    H138383   7.099   5.598  10.459 -0.9446 -0.0704 -1.5290
 5656TIP3    H238384   7.190   5.698  10.525  1.3920 -2.0583 -1.6479
 5657TIP3   OH238385   6.480   5.986  10.713  0.0755  0.4495  0.0367
 5657TIP3    H138386   6.495   5.900  10.674 -2.2315  0.2292 -0.4239
 5657TIP3    H238387   6.451   5.967  10.802  0.2799  0.7902  0.1772
 5658TIP3   OH238388   2.209   6.318  11.026  0.4035  0.4477  0.2372
 5658TIP3    H138389   2.201   6.293  10.934  1.8092  0.6457  0.0563
 5658TIP3    H238390   2.137   6.379  11.041  0.0060  0.2004 -0.6610
 5659TIP3   OH238391   2.030   6.281   1.400 -0.4977 -0.4402 -0.3349
 5659TIP3    H138392   1.995   6.194   1.386 -0.6630 -0.6892  1.4846
 5659TIP3    H238393   1.968   6.340   1.358 -2.2253 -0.9882  1.3977
 5660TIP3   OH238394   0.257   6.349  15.613  0.0648 -0.4201 -0.4954
 5660TIP3    H138395   0.289   6.263  15.637 -2.3692 -1.2934 -0.2183
 5660TIP3    H238396   0.336   6.403  15.602  1.6077 -2.7264 -0.9455
 5661TIP3   OH238397   0.707   6.727  10.963 -0.1025 -0.0122  0.5427
 5661TIP3    H138398   0.750   6.759  10.884 -1.5415  1.5942  0.3875
 5661TIP3    H238399   0.779   6.704  11.022  1.0061 -1.6444 -1.3576
 5662TIP3   OH238400   5.786   0.058  13.172 -0.0831 -0.1657 -0.4910
 5662TIP3    H138401   5.812  -0.004  13.241  0.2979 -0.2645 -0.7231
 5662TIP3    H238402   5.813   0.143  13.205  0.9747 -0.3252 -0.9508
 5663TIP3   OH238403   7.230   0.890  14.182  0.1401 -0.2785  0.2228
 5663TIP3    H138404   7.262   0.977  14.207 -1.2604 -0.0462  1.2560
 5663TIP3    H238405   7.298   0.830  14.212  2.5907  0.6503 -3.2145
 5664TIP3   OH238406   1.044   0.453  15.112 -0.5107  0.1361 -0.1876
 5664TIP3    H138407   1.139   0.464  15.113 -0.6374  1.1973  0.8728
 5664TIP3    H238408   1.023   0.410  15.195 -0.9403 -0.3339 -0.5306
 5665TIP3   OH238409   7.184   5.251  15.128 -0.0634 -0.2637 -0.5970
 5665TIP3    H138410   7.169   5.265  15.034 -0.0820 -1.0409 -0.7143
 5665TIP3    H238411   7.233   5.328  15.156 -2.0562  1.1164 -0.7552
 5666TIP3   OH238412   4.292   6.971  14.915 -0.0725 -0.3696  0.2697
 5666TIP3    H138413   4.238   6.916  14.859 -1.0477  1.3734 -0.5388
 5666TIP3    H238414   4.354   7.013  14.856  0.1809 -0.0366  0.7655
 5667TIP3   OH238415   7.098   1.052  11.024 -0.2394  0.2070  0.0648
 5667TIP3    H138416   7.162   1.122  11.009 -1.1157  1.0024 -0.0032
 5667TIP3    H238417   7.015   1.097  11.038 -1.0747 -0.8500 -1.2705
 5668TIP3   OH238418   1.328   6.131  11.597  0.0416  0.7489 -0.0695
 5668TIP3    H138419   1.358   6.135  11.506  0.6737  0.4096  0.1277
 5668TIP3    H238420   1.405   6.105  11.647 -0.3791  0.6560  0.5325
 5669TIP3   OH238421   0.328   0.550  14.397 -0.0679  0.4652  0.3144
 5669TIP3    H138422   0.361   0.505  14.319  0.4946  2.5177 -0.6880
 5669TIP3    H238423   0.407   0.582  14.441 -0.4845  1.7074  0.2026
 5670TIP3   OH238424   1.122   0.221  13.851 -0.4666  0.4948  0.4486
 5670TIP3    H138425   1.182   0.277  13.801 -0.9883 -0.7242 -1.6162
 5670TIP3    H238426   1.035   0.248  13.823 -0.8079  0.4677  1.4637
 5671TIP3   OH238427   0.172   7.009  13.631  0.1968 -0.0981 -0.1522
 5671TIP3    H138428   0.244   6.966  13.678 -0.1721  0.1070  0.6116
 5671TIP3    H238429   0.126   7.058  13.698 -1.1102 -0.8358 -0.4986
 5672TIP3   OH238430   3.127   0.189  14.680  0.4126 -0.3161 -0.0383
 5672TIP3    H138431   3.189   0.179  14.752 -0.0526  3.1026  0.9254
 5672TIP3    H238432   3.052   0.135  14.706  0.7595 -0.1146  1.4303
 5673TIP3   OH238433   2.255   5.857  11.397  0.0309 -0.4892 -0.0725
 5673TIP3    H138434   2.310   5.899  11.330 -0.2868 -1.9881 -1.2913
 5673TIP3    H238435   2.290   5.890  11.480 -0.4955  2.5503 -0.9837
 5674TIP3   OH238436   0.544   7.156  14.407  0.0220 -0.1483 -0.2524
 5674TIP3    H138437   0.602   7.227  14.380  0.4367 -0.4972 -0.2868
 5674TIP3    H238438   0.575   7.131  14.494  0.0703 -0.4927 -0.3687
 5675TIP3   OH238439   3.454   0.539  13.846 -0.2837 -0.8082  0.1770
 5675TIP3    H138440   3.501   0.619  13.821  0.1780 -0.8877  0.7691
 5675TIP3    H238441   3.471   0.478  13.774 -2.6842  0.4192 -1.4934
 5676TIP3   OH238442   1.658   0.328  10.458  0.4747 -0.2188 -0.0940
 5676TIP3    H138443   1.686   0.365  10.542  0.5109  0.8779 -0.5743
 5676TIP3    H238444   1.587   0.387  10.429  0.0676 -0.9304 -0.5527
 5677TIP3   OH238445   0.218   3.340  12.942 -0.4659  0.2221  0.3117
 5677TIP3    H138446   0.187   3.415  12.891 -0.6108  0.9522  1.4459
 5677TIP3    H238447   0.287   3.302  12.889 -0.5233  1.0485 -0.3722
 5678TIP3   OH238448   2.430   3.420  11.648 -0.1979 -0.5405 -0.3994
 5678TIP3    H138449   2.454   3.500  11.695  0.9323 -2.0783  1.7118
 5678TIP3    H238450   2.513   3.383  11.619 -0.7623 -0.6238 -1.9949
 5679TIP3   OH238451   7.206   5.534  11.299  0.4109  0.1505  0.1768
 5679TIP3    H138452   7.187   5.497  11.213  1.1066  0.4454 -0.1051
 5679TIP3    H238453   7.268   5.604  11.282 -2.9372  3.3159  0.3406
 5680TIP3   OH238454   1.447   0.143  12.970 -0.1659  0.8398  0.4306
 5680TIP3    H138455   1.405   0.083  13.031  0.5342  0.5812  0.6696
 5680TIP3    H238456   1.425   0.231  13.002 -1.6943  0.7151 -0.2678
 5681TIP3   OH238457   5.142   0.039  10.017  0.1439 -0.1727 -0.1294
 5681TIP3    H138458   5.157   0.098   9.943 -0.3115  0.0163 -0.0726
 5681TIP3    H238459   5.115  -0.043   9.977 -1.6805  0.3964 -0.1303
 5682TIP3   OH238460   1.167   4.941  12.887 -0.1861  0.7366  0.7732
 5682TIP3    H138461   1.140   5.028  12.858  0.4822  0.4143 -0.9229
 5682TIP3    H238462   1.100   4.914  12.949 -2.9480  0.5859 -2.1373
 5683TIP3   OH238463   4.603   4.980  14.218 -0.2392  0.3693 -0.0237
 5683TIP3    H138464   4.649   4.981  14.302 -0.1996  0.7540 -0.0471
 5683TIP3    H238465   4.538   4.911  14.226 -0.5019  0.6774  0.4681
 5684TIP3   OH238466   6.991   5.669  12.151  0.2374 -0.2978  0.3104
 5684TIP3    H138467   6.967   5.594  12.096  1.7448 -0.4959 -0.0922
 5684TIP3    H238468   6.998   5.742  12.090 -1.9713  0.3579  0.8043
 5685TIP3   OH238469   1.359   0.310  12.164  0.0619 -0.0771  0.3358
 5685TIP3    H138470   1.453   0.314  12.181  0.0960 -2.5773  0.8254
 5685TIP3    H238471   1.320   0.282  12.247 -1.0617  0.3793 -0.0246
 5686TIP3   OH238472   6.208   6.267  13.511 -0.6421 -0.3486  0.0625
 5686TIP3    H138473   6.260   6.191  13.536 -0.4117 -1.0915 -2.4597
 5686TIP3    H238474   6.125   6.256  13.557 -0.6443 -2.2011 -0.3565
 5687TIP3   OH238475   1.744   0.032  15.059  0.0932  0.0352  0.0000
 5687TIP3    H138476   1.794   0.112  15.043 -0.9268  0.9246  1.1631
 5687TIP3    H238477   1.796  -0.037  15.017  1.0784  1.2679 -0.8597
 5688TIP3   OH238478   1.722   6.560  13.766  0.0318  0.8406 -0.6101
 5688TIP3    H138479   1.703   6.487  13.824 -0.5796  0.7634 -0.9080
 5688TIP3    H238480   1.816   6.574  13.776  0.4269 -0.9479 -1.6885
 5689TIP3   OH238481   3.524   7.123  15.805 -0.0883 -0.5463  0.1159
 5689TIP3    H138482   3.556   7.063  15.738 -0.4283  0.0420 -0.5855
 5689TIP3    H238483   3.461   7.071  15.856 -0.1899 -0.8593 -0.3239
 5690TIP3   OH238484   1.527   0.713  15.204  1.0983 -0.2732  0.0208
 5690TIP3    H138485   1.587   0.787  15.207  1.5731 -0.6438 -0.3701
 5690TIP3    H238486   1.449   0.748  15.160  0.2040  0.7867  2.3386
 5691TIP3   OH238487   5.163   1.613  14.748  0.6913  0.2299  0.0037
 5691TIP3    H138488   5.250   1.577  14.766  0.2124 -1.1314 -0.3561
 5691TIP3    H238489   5.180   1.696  14.703  1.8049 -0.3201 -0.6080
 5692TIP3   OH238490   5.278   1.373  12.901 -0.4192  0.1651  0.4602
 5692TIP3    H138491   5.283   1.278  12.913  0.0422 -0.0572 -1.2760
 5692TIP3    H238492   5.288   1.409  12.989  1.1847 -1.3336  0.9200
 5693TIP3   OH238493   3.563   0.858  12.806  0.1121  0.3159  0.9358
 5693TIP3    H138494   3.637   0.919  12.807  0.7853 -0.4883  1.1558
 5693TIP3    H238495   3.569   0.815  12.721  1.0410 -1.0940  1.6783
 5694TIP3   OH238496   3.834   5.836  11.082 -0.3511 -0.3101 -0.6813
 5694TIP3    H138497   3.840   5.912  11.024 -0.2436 -1.0441 -1.6394
 5694TIP3    H238498   3.745   5.841  11.117 -0.3080  0.3238 -0.6549
 5695TIP3   OH238499   0.153   3.225  14.432  0.4123  0.2261 -0.5655
 5695TIP3    H138500   0.248   3.220  14.441  0.4805 -0.2642 -1.5046
 5695TIP3    H238501   0.137   3.208  14.340 -0.6425 -0.4958 -0.2558
 5696TIP3   OH238502   2.680   5.739  14.274 -0.1325 -0.3287 -0.1133
 5696TIP3    H138503   2.617   5.811  14.271  1.6701  1.3529  0.6077
 5696TIP3    H238504   2.758   5.774  14.230  1.0178 -1.5838  0.8695
 5697TIP3   OH238505   0.830   2.963  14.361  0.4189 -0.1490  0.3135
 5697TIP3    H138506   0.901   2.911  14.323  1.0313  1.6427 -1.0409
 5697TIP3    H238507   0.767   2.975  14.290  0.1713  0.7584  0.6778
 5698TIP3   OH238508   6.488   7.204  15.667  0.3359 -0.3080  0.3955
 5698TIP3    H138509   6.506   7.269  15.600  1.0954  0.2294  1.1089
 5698TIP3    H238510   6.395   7.185  15.658  0.2482  0.4088 -0.2304
 5699TIP3   OH238511   2.407   4.061  12.636  0.0530 -0.2706 -0.0889
 5699TIP3    H138512   2.320   4.093  12.612  0.5085  1.4978  0.5322
 5699TIP3    H238513   2.390   3.995  12.704 -0.9637 -2.2618 -2.1827
 5700TIP3   OH238514   6.129   1.983  10.592  1.1420  0.5148 -0.7004
 5700TIP3    H138515   6.193   2.052  10.572 -0.5584  2.5158  0.5463
 5700TIP3    H238516   6.089   1.962  10.508  0.8834  1.8848 -0.9340
 5701TIP3   OH238517   6.504   1.135  12.621  0.0714 -0.0746  0.3566
 5701TIP3    H138518   6.595   1.112  12.603 -0.1253 -0.5271 -0.0743
 5701TIP3    H238519   6.508   1.227  12.648  0.8105 -0.4871  1.6949
 5702TIP3   OH238520   0.482   1.422  13.865 -0.2426  0.1466  0.4334
 5702TIP3    H138521   0.485   1.431  13.960 -1.1861  2.8534  0.2444
 5702TIP3    H238522   0.542   1.350  13.846  2.0889  1.3342  2.8606
 5703TIP3   OH238523   1.399   3.287  13.185 -0.0249 -0.2563 -0.2300
 5703TIP3    H138524   1.323   3.231  13.170  0.1291 -1.0689  1.8953
 5703TIP3    H238525   1.371   3.349  13.251  0.7462  0.2812 -0.4038
 5704TIP3   OH238526   0.027   6.822  12.016  0.6891 -0.4110 -0.2166
 5704TIP3    H138527   0.110   6.867  12.028  0.3253  0.3941 -0.6655
 5704TIP3    H238528   0.046   6.751  11.955  0.9086  0.1616 -0.8111
 5705TIP3   OH238529   0.196   4.116  10.057 -0.8135 -1.0375  0.0890
 5705TIP3    H138530   0.208   4.119  10.152  0.5877 -0.6540 -0.0912
 5705TIP3    H238531   0.174   4.205  10.032  0.3179 -0.8158 -0.1319
 5706TIP3   OH238532   6.851   6.692  10.293 -0.1338  0.1078  0.4041
 5706TIP3    H138533   6.857   6.600  10.320  0.5026  0.2256  0.6861
 5706TIP3    H238534   6.839   6.740  10.375 -1.5854  0.1864  0.1533
 5707TIP3   OH238535   2.235   5.137  15.814  0.8506 -0.3920 -0.2614
 5707TIP3    H138536   2.178   5.143  15.737 -0.7256 -1.1783  0.8276
 5707TIP3    H238537   2.216   5.217  15.864  0.5307 -0.7622  0.2131
 5708TIP3   OH238538   6.988   5.002  11.603 -0.2372 -0.4203 -0.1783
 5708TIP3    H138539   6.987   5.088  11.560  1.4935 -0.7620 -0.9165
 5708TIP3    H238540   6.936   4.946  11.546 -2.3725  0.3841  0.9011
 5709TIP3   OH238541   5.807   5.761  14.082 -0.2297 -0.1925 -0.2306
 5709TIP3    H138542   5.754   5.800  14.152 -1.0748 -0.5686 -0.6621
 5709TIP3    H238543   5.847   5.685  14.123  0.2183  0.2590  0.1791
 5710TIP3   OH238544   0.810   5.611  12.509  0.0615 -0.5723  0.2127
 5710TIP3    H138545   0.753   5.543  12.474 -0.9676 -0.1008  0.9516
 5710TIP3    H238546   0.854   5.569  12.583  0.5638 -0.8831 -0.2537
 5711TIP3   OH238547   5.301   5.850   0.283  0.4271 -0.6964  0.1236
 5711TIP3    H138548   5.252   5.874   0.204 -1.2310 -1.6100  0.8569
 5711TIP3    H238549   5.254   5.893   0.354 -0.5259 -3.2484  1.0647
 5712TIP3   OH238550   1.887   0.528  10.350 -0.6637 -0.3565  0.1983
 5712TIP3    H138551   1.887   0.432  10.342  0.4672 -0.3359 -0.1234
 5712TIP3    H238552   1.830   0.557  10.280 -2.1471 -0.8535  1.1708
 5713TIP3   OH238553   6.654   2.702  15.744 -0.1615  0.3812 -0.3468
 5713TIP3    H138554   6.677   2.619  15.703 -0.5866  0.6120 -1.0576
 5713TIP3    H238555   6.735   2.733  15.785  0.3990  0.4227 -1.4847
 5714TIP3   OH238556   7.245   0.831  10.863  0.0103  0.8048 -0.0567
 5714TIP3    H138557   7.217   0.920  10.885 -0.3727  0.4569  0.8862
 5714TIP3    H238558   7.164   0.784  10.846  0.1218  0.2784  0.8351
 5715TIP3   OH238559   5.976   5.981  15.196  0.7991 -0.0066  0.0756
 5715TIP3    H138560   5.948   5.910  15.137 -1.2813  0.7342  0.1097
 5715TIP3    H238561   6.004   5.937  15.275 -0.7598 -0.8125  0.2034
 5716TIP3   OH238562   6.651   4.765  14.871  0.1185 -0.7069 -0.0538
 5716TIP3    H138563   6.568   4.719  14.859  0.8837 -2.3228  0.6770
 5716TIP3    H238564   6.647   4.798  14.961 -0.0715 -0.0494 -0.2971
 5717TIP3   OH238565   3.774   0.973  12.123 -0.2444  0.8644  0.2090
 5717TIP3    H138566   3.820   0.937  12.047 -2.3196 -1.5832  0.0552
 5717TIP3    H238567   3.792   1.067  12.118  0.2347  0.6796 -2.9311
 5718TIP3   OH238568   1.746   3.110  12.312 -0.4363 -0.0629  0.4986
 5718TIP3    H138569   1.666   3.120  12.260 -0.3356  0.8097  0.5025
 5718TIP3    H238570   1.728   3.035  12.369 -1.5745  0.6143  1.0727
 5719TIP3   OH238571   2.409   0.411  12.468  0.4335 -0.6052  0.0248
 5719TIP3    H138572   2.338   0.370  12.517 -1.4218  2.7550  0.2907
 5719TIP3    H238573   2.434   0.487  12.520  2.0941  0.0294 -1.6195
 5720TIP3   OH238574   4.402   6.993  10.759  0.5296 -0.7668 -0.3898
 5720TIP3    H138575   4.490   6.981  10.793  0.3901 -0.4170  0.1015
 5720TIP3    H238576   4.404   7.078  10.715  1.2621 -2.0870 -3.0434
 5721TIP3   OH238577   0.628   0.103   0.290 -0.3900 -0.0725  0.2268
 5721TIP3    H138578   0.648   0.130   0.379 -1.4180 -1.3492  0.8524
 5721TIP3    H238579   0.671   0.169   0.235 -0.1230  0.9700  1.6606
 5722TIP3   OH238580   0.468   2.605  10.744  0.1149  0.4728 -0.5762
 5722TIP3    H138581   0.528   2.536  10.717 -0.3879 -0.1359 -0.1590
 5722TIP3    H238582   0.382   2.575  10.714 -0.6141 -0.6912  2.4648
 5723TIP3   OH238583   0.475   6.819  10.090 -0.0517  0.3203 -0.0951
 5723TIP3    H138584   0.512   6.903  10.119 -3.0571  1.8992 -0.6046
 5723TIP3    H238585   0.507   6.808  10.001 -0.2208  1.3078 -0.2859
 5724TIP3   OH238586   0.881   5.924  12.472 -0.0387 -0.3732 -0.3112
 5724TIP3    H138587   0.849   5.918  12.382  1.1649 -3.7057 -0.5783
 5724TIP3    H238588   0.827   5.863  12.521 -0.1347  0.8115  1.1061
 5725TIP3   OH238589   5.281   2.575  10.814 -0.1837  0.2112 -0.0915
 5725TIP3    H138590   5.222   2.568  10.889 -0.5262  0.6453 -0.3116
 5725TIP3    H238591   5.241   2.643  10.759 -1.7040 -2.3242 -2.2624
 5726TIP3   OH238592   1.216   0.878  15.365  0.0475 -0.6462  0.4199
 5726TIP3    H138593   1.205   0.805  15.304 -0.3474 -1.5452  1.5461
 5726TIP3    H238594   1.131   0.923  15.364 -0.3636 -1.3930  1.2305
 5727TIP3   OH238595   2.712   3.251  11.996  0.3831  0.3023 -0.2163
 5727TIP3    H138596   2.681   3.283  11.911 -2.4500 -0.3259  0.5296
 5727TIP3    H238597   2.719   3.329  12.050  0.8463  0.5319 -0.5988
 5728TIP3   OH238598   4.521   0.230  15.001  0.3325 -0.3272  0.0456
 5728TIP3    H138599   4.613   0.223  14.975  1.3771 -0.4846  3.4774
 5728TIP3    H238600   4.508   0.324  15.013 -0.4098 -0.1747 -1.9251
 5729TIP3   OH238601   4.214   5.232  11.728 -0.0859 -0.0907 -0.2138
 5729TIP3    H138602   4.265   5.306  11.759  1.0565 -1.2822  0.8089
 5729TIP3    H238603   4.279   5.169  11.697 -0.9218 -1.4677  0.7350
 5730TIP3   OH238604   4.335   2.632  14.131 -0.0679  0.6744 -0.9264
 5730TIP3    H138605   4.280   2.568  14.174  2.2076 -2.2826 -2.2636
 5730TIP3    H238606   4.358   2.695  14.199 -1.8952 -0.2069  0.5262
 5731TIP3   OH238607   3.585   5.605  13.644 -0.3801  0.3448  0.1143
 5731TIP3    H138608   3.680   5.603  13.630 -0.4778 -2.1044 -0.3502
 5731TIP3    H238609   3.556   5.685  13.600  1.6863  2.0555  1.7671
 5732TIP3   OH238610   1.305   0.499  15.117 -0.0790 -0.3640  0.2314
 5732TIP3    H138611   1.318   0.593  15.099 -0.7516 -0.3135 -0.0014
 5732TIP3    H238612   1.357   0.482  15.195 -0.6657  0.4060  0.7938
 5733TIP3   OH238613   6.182   0.126  13.615  0.1673  0.3307 -0.3446
 5733TIP3    H138614   6.236   0.054  13.583 -1.7600 -1.1548 -0.3602
 5733TIP3    H238615   6.092   0.098  13.597 -0.7742  1.2320  2.6807
 5734TIP3   OH238616   1.394   4.111   0.669  0.1647 -0.0367  0.0569
 5734TIP3    H138617   1.471   4.138   0.720 -0.3426  1.8632 -0.1420
 5734TIP3    H238618   1.333   4.184   0.678 -1.1890 -1.0602 -0.6957
 5735TIP3   OH238619   2.157   0.507  13.728  0.3573  0.1849 -0.0598
 5735TIP3    H138620   2.081   0.541  13.680 -0.4293 -0.6343  0.5711
 5735TIP3    H238621   2.167   0.567  13.802 -2.4818 -2.1693  2.3708
 5736TIP3   OH238622   6.496   1.419   0.743  0.0219 -0.1131 -0.6648
 5736TIP3    H138623   6.552   1.386   0.813  0.7946  0.6235 -0.9309
 5736TIP3    H238624   6.451   1.341   0.710  0.1198 -0.5572  0.2257
 5737TIP3   OH238625   2.966   2.074   1.757 -0.3127 -0.1829 -0.1444
 5737TIP3    H138626   2.907   2.037   1.823 -0.4276 -0.7144 -0.5431
 5737TIP3    H238627   3.053   2.069   1.797 -0.5581  0.8392  0.5500
 5738TIP3   OH238628   2.291   5.505  13.644 -0.3983  0.3965  0.6785
 5738TIP3    H138629   2.306   5.411  13.643 -2.0540  0.1155 -0.0498
 5738TIP3    H238630   2.219   5.517  13.707 -0.9836  1.0351 -0.1018
 5739TIP3   OH238631   2.689   0.434  10.980  0.0663  0.5500  0.1565
 5739TIP3    H138632   2.608   0.478  11.006  0.3475 -0.0081  2.0564
 5739TIP3    H238633   2.661   0.364  10.921 -0.9840 -0.3844  1.7207
 5740TIP3   OH238634   0.342   5.272  14.724  0.0179 -0.1201  0.3129
 5740TIP3    H138635   0.328   5.355  14.679  0.2701 -0.8380 -1.1356
 5740TIP3    H238636   0.300   5.206  14.667  1.3364 -1.1804  0.5332
 5741TIP3   OH238637   0.001   7.186  13.911  0.6914  0.1786 -0.1327
 5741TIP3    H138638  -0.069   7.134  13.951  0.2501 -0.8491 -2.1926
 5741TIP3    H238639   0.047   7.225  13.985 -0.8626 -0.6980  1.3256
 5742TIP3   OH238640   3.491   2.337  14.304  0.1500  0.3482  0.1879
 5742TIP3    H138641   3.570   2.390  14.291 -0.7008  1.2017 -1.6882
 5742TIP3    H238642   3.515   2.276  14.374  2.2123  1.1056  0.1933
 5743TIP3   OH238643   1.564   7.076  14.060  0.1392 -0.2326 -0.7728
 5743TIP3    H138644   1.507   7.032  13.996  0.6119 -1.7742 -0.1572
 5743TIP3    H238645   1.512   7.078  14.140  0.5365 -0.6834 -0.5007
 5744TIP3   OH238646   2.264   5.300  12.585  0.3981 -0.1237 -0.2417
 5744TIP3    H138647   2.214   5.354  12.646 -1.8112 -2.2776 -0.0602
 5744TIP3    H238648   2.324   5.251  12.641  0.1633 -0.2072 -0.0591
 5745TIP3   OH238649   5.256   5.940  12.143 -0.2204  0.1735 -1.0975
 5745TIP3    H138650   5.343   5.934  12.104 -0.1079  0.4611 -0.8844
 5745TIP3    H238651   5.201   5.887  12.086  0.4717 -1.6011 -0.1664
 5746TIP3   OH238652   0.595   5.163  11.280 -0.2514 -0.3429  0.8548
 5746TIP3    H138653   0.655   5.140  11.209 -0.7851  0.9325 -0.0394
 5746TIP3    H238654   0.514   5.187  11.235 -0.5462  0.6402  1.8830
 5747TIP3   OH238655   4.945   1.842  13.760  0.1122 -0.0088  0.0594
 5747TIP3    H138656   4.909   1.890  13.686 -0.5140 -1.6610 -0.7387
 5747TIP3    H238657   5.038   1.865  13.761  0.4426 -1.1330 -2.1820
 5748TIP3   OH238658   4.321   5.142  12.464  0.3086  0.3154  0.4881
 5748TIP3    H138659   4.301   5.233  12.483 -0.0398  0.3004  0.2203
 5748TIP3    H238660   4.266   5.121  12.388 -0.2889 -0.3707  1.1034
 5749TIP3   OH238661   2.029   6.648  12.049 -0.0554  0.8018 -0.1923
 5749TIP3    H138662   2.076   6.567  12.066 -0.9416  0.0195 -1.4279
 5749TIP3    H238663   1.976   6.662  12.127 -1.2090 -0.7268 -0.6910
 5750TIP3   OH238664   6.418   0.288  13.474 -0.2286 -0.2753 -0.1823
 5750TIP3    H138665   6.361   0.271  13.549  0.8409  1.0937  0.9630
 5750TIP3    H238666   6.380   0.364  13.431  1.0027  0.9829  0.9024
 5751TIP3   OH238667   6.054   0.291  11.598 -0.0308  0.1510  0.0613
 5751TIP3    H138668   6.047   0.314  11.505 -1.1526 -2.0999 -0.4398
 5751TIP3    H238669   6.137   0.243  11.605  1.1886  2.2851  0.6858
 5752TIP3   OH238670   1.053   2.930  13.730  0.7078  0.3018 -0.2262
 5752TIP3    H138671   1.107   2.938  13.808 -2.4840  2.4322  1.8695
 5752TIP3    H238672   0.987   2.864  13.753  0.1105  0.4926 -1.3580
 5753TIP3   OH238673   0.337   4.542  10.605 -0.2798  0.0097  0.0443
 5753TIP3    H138674   0.428   4.535  10.578 -0.4109 -1.7986  0.0561
 5753TIP3    H238675   0.336   4.619  10.663  0.9350  0.9214 -1.1135
 5754TIP3   OH238676   7.138   6.587   0.044  0.8853 -0.4245 -0.3412
 5754TIP3    H138677   7.078   6.611  -0.027  0.2102 -0.0159  0.3561
 5754TIP3    H238678   7.187   6.667   0.062 -0.0907 -0.0560  0.7518
 5755TIP3   OH238679   6.094   4.267  13.569  0.4910  0.4682  0.4881
 5755TIP3    H138680   6.178   4.250  13.527  1.0678  2.4589  0.7851
 5755TIP3    H238681   6.116   4.306  13.653 -0.7198  0.1710  0.9572
 5756TIP3   OH238682   7.022   4.449  13.247 -0.0475 -0.0130 -0.2616
 5756TIP3    H138683   7.050   4.375  13.192 -2.8493 -0.9146 -0.5499
 5756TIP3    H238684   6.995   4.516  13.185 -0.7289 -0.0458 -0.0056
 5757TIP3   OH238685   4.944   0.165  11.091  0.1225  0.4605  0.1581
 5757TIP3    H138686   5.022   0.177  11.038  0.6253  0.1214  0.8082
 5757TIP3    H238687   4.939   0.242  11.147  0.2023  0.3121  0.3740
 5758TIP3   OH238688   6.100   0.105  14.922  0.0655  0.2978  0.4788
 5758TIP3    H138689   6.182   0.057  14.911 -0.4541 -0.9568  1.9858
 5758TIP3    H238690   6.043   0.070  14.854  0.3373  0.2156  0.2907
 5759TIP3   OH238691   6.937   5.412  13.540 -0.1146  0.5676 -0.0536
 5759TIP3    H138692   6.933   5.493  13.489  1.3817  0.7294  0.0778
 5759TIP3    H238693   7.015   5.367  13.508 -0.0046 -0.0436  1.0497
 5760TIP3   OH238694   2.279   0.118  11.165  0.2032  0.1979 -0.9076
 5760TIP3    H138695   2.313   0.047  11.219  0.9680  0.7838 -0.6135
 5760TIP3    H238696   2.331   0.114  11.085  1.6113  1.6502 -0.1005
 5761TIP3   OH238697   1.779   1.640  10.885  0.0071  0.0050 -0.1651
 5761TIP3    H138698   1.699   1.604  10.848  1.5543 -1.5571 -2.1206
 5761TIP3    H238699   1.841   1.567  10.883  2.4448  2.0166 -1.8388
 5762TIP3   OH238700   5.387   2.214  11.351  0.4656 -0.7565  0.5100
 5762TIP3    H138701   5.422   2.264  11.424 -0.0892 -0.4455  0.5647
 5762TIP3    H238702   5.456   2.217  11.285  1.0174 -1.1440  1.0630
 5763TIP3   OH238703   5.854   6.155  11.043  0.3452  0.0952 -0.3254
 5763TIP3    H138704   5.893   6.196  11.120 -0.2869  0.1503 -0.0303
 5763TIP3    H238705   5.836   6.227  10.983 -1.1826  0.3068  0.3806
 5764TIP3   OH238706   6.635   3.955  12.342 -0.3031 -0.2758 -0.1551
 5764TIP3    H138707   6.640   4.026  12.279  2.9646 -1.1410 -0.9615
 5764TIP3    H238708   6.593   3.994  12.419 -2.4518  1.3201 -2.0623
 5765TIP3   OH238709   0.127   0.620  13.745 -0.3920  0.2198  0.4860
 5765TIP3    H138710   0.083   0.540  13.715 -0.8531  0.4471  0.5495
 5765TIP3    H238711   0.082   0.643  13.826 -0.3764  0.6412  0.3768
 5766TIP3   OH238712   5.953   2.124  15.958  0.4105 -0.0805  0.1028
 5766TIP3    H138713   5.871   2.162  15.927  0.7457 -0.2335 -0.9873
 5766TIP3    H238714   6.005   2.111  15.878  1.5129  0.0741  0.7883
 5767TIP3   OH238715   4.794   0.732  14.423  0.4514  0.2260 -0.2739
 5767TIP3    H138716   4.877   0.779  14.423  0.6748 -0.1567 -1.4618
 5767TIP3    H238717   4.731   0.793  14.385  0.7737 -0.4773 -1.9583
 5768TIP3   OH238718   3.512   1.779  11.577 -0.2473 -0.1581 -0.0986
 5768TIP3    H138719   3.498   1.699  11.527  1.1702 -0.5765  0.1749
 5768TIP3    H238720   3.454   1.770  11.653 -0.5694 -0.6255 -0.3950
 5769TIP3   OH238721   0.085   4.966  14.817  0.2534 -0.2029 -0.5939
 5769TIP3    H138722   0.040   4.889  14.783 -0.4057 -0.2958  0.4437
 5769TIP3    H238723   0.045   5.040  14.771  1.9910 -0.5628 -2.7619
 5770TIP3   OH238724   6.495   0.424  14.811 -0.7179 -0.4714 -0.3517
 5770TIP3    H138725   6.403   0.398  14.800 -0.4536 -0.9115 -1.5970
 5770TIP3    H238726   6.538   0.396  14.730  0.0570  1.7379 -0.7439
 5771TIP3   OH238727   2.726   0.794  12.425  0.5305 -0.4752  0.0152
 5771TIP3    H138728   2.726   0.823  12.334 -0.1898 -0.3538  0.0443
 5771TIP3    H238729   2.650   0.837  12.464 -0.1883 -1.8834  0.2171
 5772TIP3   OH238730   7.066   4.639  12.610 -0.1424 -0.1851  0.3856
 5772TIP3    H138731   6.982   4.642  12.565  0.1548 -0.2370 -0.1855
 5772TIP3    H238732   7.097   4.550  12.596  0.0878 -0.1139  0.4404
 5773TIP3   OH238733   5.575   4.923  13.947  0.5852 -0.0044  0.3276
 5773TIP3    H138734   5.512   4.854  13.970 -0.0422  0.7574  0.9374
 5773TIP3    H238735   5.629   4.934  14.026  0.2067  0.7058  0.4936
 5774TIP3   OH238736   6.871   0.672  10.979 -0.1674 -0.5018  0.4502
 5774TIP3    H138737   6.911   0.724  10.910  0.1705  0.0251  1.0483
 5774TIP3    H238738   6.815   0.610  10.932  1.1568 -1.0983 -0.3793
 5775TIP3   OH238739   3.394   0.675  11.295 -0.2455  0.4005  0.1508
 5775TIP3    H138740   3.301   0.662  11.277 -0.0083  0.3458 -1.0930
 5775TIP3    H238741   3.415   0.609  11.362 -1.1181  0.4992  0.5312
 5776TIP3   OH238742   6.295   4.720  13.239 -0.4750  0.3571 -0.0185
 5776TIP3    H138743   6.263   4.743  13.326 -0.0612 -0.7854  0.4450
 5776TIP3    H238744   6.286   4.625  13.234  2.2635  0.0423 -0.0703
 5777TIP3   OH238745   0.146   1.018   0.980 -0.3666  0.2936  0.3084
 5777TIP3    H138746   0.051   1.029   0.973 -0.6478 -0.2916  2.7363
 5777TIP3    H238747   0.163   1.018   1.074  2.1569  1.2454 -0.1022
 5778TIP3   OH238748   0.847   6.854  14.469  0.0998 -0.5965 -0.6392
 5778TIP3    H138749   0.858   6.909  14.546 -2.7506  1.6050 -1.7014
 5778TIP3    H238750   0.916   6.883  14.409 -0.7587  1.1715 -0.8037
 5779TIP3   OH238751   6.481   5.140  10.306 -0.2290 -0.6678 -0.5250
 5779TIP3    H138752   6.479   5.195  10.227  0.1296 -0.5862 -0.4753
 5779TIP3    H238753   6.567   5.099  10.305  0.2058  0.1909  0.4133
 5780TIP3   OH238754   6.377   7.055  13.052 -0.0453 -0.9474  0.3640
 5780TIP3    H138755   6.345   7.080  12.965  0.8190  0.5477  0.4528
 5780TIP3    H238756   6.456   7.003  13.035  1.9527  1.9927  0.2648
 5781TIP3   OH238757   4.908   2.911  14.980  0.3306  0.4868  0.5225
 5781TIP3    H138758   4.813   2.906  14.975  0.3144  1.0562  0.2436
 5781TIP3    H238759   4.929   2.871  15.065  0.0264 -1.7277 -0.3979
 5782TIP3   OH238760   0.677   0.700  10.570 -0.6154  0.0566 -0.2523
 5782TIP3    H138761   0.629   0.671  10.647  0.8535  0.6212  0.8923
 5782TIP3    H238762   0.623   0.672  10.496 -0.2643 -3.7525  0.8364
 5783TIP3   OH238763   1.041   3.176  12.449 -0.0911  0.0194  0.6253
 5783TIP3    H138764   1.086   3.104  12.493 -0.8161  0.2495  1.7764
 5783TIP3    H238765   1.061   3.253  12.503 -2.2582  0.0309  1.4680
 5784TIP3   OH238766   0.454   6.756  14.969  0.0126 -0.5861 -0.1368
 5784TIP3    H138767   0.454   6.802  14.885  1.7206  0.6270  0.4985
 5784TIP3    H238768   0.412   6.672  14.951 -1.7543  0.6195 -1.6603
 5785TIP3   OH238769   5.396   0.126   1.354  0.1866  0.6819  0.0775
 5785TIP3    H138770   5.456   0.197   1.334  0.7229  0.4697  0.9170
 5785TIP3    H238771   5.449   0.047   1.347 -0.3481  0.3782 -0.6125
 5786TIP3   OH238772   5.542   6.026  13.948 -0.6719 -0.1666 -0.1284
 5786TIP3    H138773   5.464   6.077  13.927  0.5916  1.3399 -1.2845
 5786TIP3    H238774   5.606   6.092  13.975  0.2797 -1.3647  0.5419
 5787TIP3   OH238775   1.729   4.830  10.902  0.0547 -0.0487  0.2706
 5787TIP3    H138776   1.767   4.813  10.815 -2.0634  1.2175 -0.9372
 5787TIP3    H238777   1.724   4.744  10.943  1.3469 -0.6293 -0.7332
 5788TIP3   OH238778   6.715   5.102  11.308 -0.8167 -0.4727 -0.3249
 5788TIP3    H138779   6.714   5.088  11.213  0.3684 -1.4020 -0.2141
 5788TIP3    H238780   6.632   5.144  11.327 -0.3055  1.3655 -2.0212
 5789TIP3   OH238781   2.759   1.579  10.281 -0.8476 -0.2588  0.0555
 5789TIP3    H138782   2.681   1.602  10.332 -1.8246 -2.1320 -0.5471
 5789TIP3    H238783   2.806   1.662  10.271 -3.6512  1.3041 -1.0802
 5790TIP3   OH238784   1.752   4.174   0.070 -0.5450  0.0627 -0.5491
 5790TIP3    H138785   1.725   4.265   0.079 -1.4708 -0.3750  1.1705
 5790TIP3    H238786   1.747   4.137   0.158  1.3028 -1.2580 -0.9560
 5791TIP3   OH238787   4.718   1.756  14.883 -0.6058 -0.2440 -0.4587
 5791TIP3    H138788   4.778   1.694  14.840  1.6789  1.1895  0.5454
 5791TIP3    H238789   4.708   1.722  14.971  0.9985  1.0199  0.2264
 5792TIP3   OH238790   5.715   3.384  13.664 -0.2220  0.1566  0.1103
 5792TIP3    H138791   5.803   3.346  13.654 -1.2905 -2.3003 -0.3418
 5792TIP3    H238792   5.677   3.382  13.576 -1.5660 -0.9819  0.6963
 5793TIP3   OH238793   3.571   5.130  13.666 -0.0954 -0.0190 -0.7194
 5793TIP3    H138794   3.632   5.166  13.731 -0.5058 -0.6167  0.0012
 5793TIP3    H238795   3.589   5.037  13.664 -0.4120 -0.0738 -1.1213
 5794TIP3   OH238796   2.207   0.401  12.694  0.2606 -0.2735 -0.2269
 5794TIP3    H138797   2.171   0.364  12.775  0.0455  0.1067 -0.1489
 5794TIP3    H238798   2.270   0.467  12.724 -1.3267  1.3311 -0.3662
 5795TIP3   OH238799   6.858   7.118  11.976  0.2912 -0.2633 -0.0078
 5795TIP3    H138800   6.790   7.112  11.908 -0.0760  1.5241  0.1761
 5795TIP3    H238801   6.940   7.124  11.927  0.1203 -0.0478 -0.2676
 5796TIP3   OH238802   1.917   5.983  11.496  0.4615 -0.3342  0.1592
 5796TIP3    H138803   1.824   5.978  11.472  0.6361  1.8204 -1.1113
 5796TIP3    H238804   1.953   6.049  11.436  2.7210 -0.8481  0.9259
 5797TIP3   OH238805   6.181   0.672   0.703 -0.1643 -0.1078 -0.2423
 5797TIP3    H138806   6.137   0.686   0.787  0.5270 -0.5978  0.2053
 5797TIP3    H238807   6.262   0.724   0.710 -0.4743  0.4679 -0.9027
 5798TIP3   OH238808   3.363   6.632  15.176  0.5035  0.0022 -0.1746
 5798TIP3    H138809   3.326   6.720  15.184  2.2509  0.6994  0.3363
 5798TIP3    H238810   3.306   6.578  15.230 -0.2826  0.9067 -0.0837
 5799TIP3   OH238811   1.723   5.346  11.840  0.9993  0.1730 -0.2240
 5799TIP3    H138812   1.740   5.289  11.915 -1.1433 -0.5737 -0.2955
 5799TIP3    H238813   1.724   5.287  11.764  1.2727  0.6343 -0.5846
 5800TIP3   OH238814   1.193   0.797  13.052 -0.0620 -0.8088  0.5393
 5800TIP3    H138815   1.120   0.859  13.057  0.2907 -0.3362 -0.0622
 5800TIP3    H238816   1.182   0.741  13.128 -0.0674  0.3546  1.4054
 5801TIP3   OH238817   7.275   3.960  12.620 -0.0032 -0.0596  1.1664
 5801TIP3    H138818   7.339   3.890  12.626 -2.2062 -2.1834  0.4873
 5801TIP3    H238819   7.191   3.916  12.609 -1.1990  2.6634 -1.6327
 5802TIP3   OH238820   2.076   4.318  11.195  0.1699 -0.7227  0.1494
 5802TIP3    H138821   2.164   4.284  11.175  0.5028 -0.1629  0.6345
 5802TIP3    H238822   2.093   4.405  11.233 -0.6496 -0.1257 -0.8458
 5803TIP3   OH238823   4.120   5.918  15.461 -0.0623  0.6745 -0.9261
 5803TIP3    H138824   4.128   6.013  15.469  0.2316  0.6223 -0.5729
 5803TIP3    H238825   4.040   5.905  15.410 -0.2146  1.1066 -0.8014
 5804TIP3   OH238826   2.613   5.973  12.807  0.3785  0.0920 -0.0596
 5804TIP3    H138827   2.548   6.036  12.777  0.6183  0.7346  0.7623
 5804TIP3    H238828   2.631   5.998  12.897  2.0832  0.1760 -0.4201
 5805TIP3   OH238829   1.269   6.539  11.177 -0.0125  0.0283  0.1834
 5805TIP3    H138830   1.204   6.490  11.125 -0.9136  1.7927 -0.3824
 5805TIP3    H238831   1.318   6.590  11.113  2.3448 -1.7040  0.5576
 5806TIP3   OH238832   0.983   4.068  12.711 -0.3908 -0.0609 -0.1039
 5806TIP3    H138833   0.916   4.036  12.772 -1.4319 -0.3142 -1.3391
 5806TIP3    H238834   0.995   4.160  12.734  1.0177 -0.7621  2.0541
 5807TIP3   OH238835   3.354   0.444  12.193  0.7581 -0.1515 -0.2384
 5807TIP3    H138836   3.294   0.411  12.260  1.4992  1.5166  1.2980
 5807TIP3    H238837   3.302   0.508  12.144  0.6569 -0.2289 -0.2310
 5808TIP3   OH238838   0.670   1.764  14.948 -0.3879  0.2097  0.0001
 5808TIP3    H138839   0.640   1.842  14.994 -0.4289 -0.3627  0.9640
 5808TIP3    H238840   0.591   1.722  14.916 -0.3846  0.4179 -0.2810
 5809TIP3   OH238841   0.190   1.608   2.923  0.4171  0.2695 -0.1022
 5809TIP3    H138842   0.181   1.664   3.000 -2.0515  0.2443 -0.3238
 5809TIP3    H238843   0.235   1.662   2.858 -0.5842  1.4771  0.1953
 5810TIP3   OH238844   2.320   2.805  12.279 -0.2139 -0.0289  0.2638
 5810TIP3    H138845   2.347   2.789  12.370 -0.2902  0.7245  0.4249
 5810TIP3    H238846   2.401   2.822  12.232 -0.0445 -1.6756 -0.0872
 5811TIP3   OH238847   6.579   4.446  11.410  0.0726  0.2110 -0.2543
 5811TIP3    H138848   6.532   4.407  11.484 -0.1442 -0.7613 -0.8897
 5811TIP3    H238849   6.648   4.382  11.389 -1.0200 -0.4049 -2.0600
 5812TIP3   OH238850   1.332   6.222  12.254 -0.1845  0.0754 -0.5502
 5812TIP3    H138851   1.253   6.180  12.221 -0.9214 -0.8890  2.2765
 5812TIP3    H238852   1.396   6.211  12.184 -1.6483 -1.8575 -1.6400
 5813TIP3   OH238853   3.585   1.211  10.807 -0.0088 -0.1525  0.7042
 5813TIP3    H138854   3.490   1.205  10.802 -0.0572 -4.4103  3.5059
 5813TIP3    H238855   3.603   1.231  10.899  1.7799 -1.9758  0.7914
 5814TIP3   OH238856   1.984   6.625  11.060 -0.2419 -0.1008  0.5125
 5814TIP3    H138857   2.024   6.620  11.147 -1.5093 -1.8907  1.0193
 5814TIP3    H238858   2.056   6.650  11.002  1.4347 -2.3265  1.5581
 5815TIP3   OH238859   1.376   5.411  10.663 -0.1847 -0.2656  0.2406
 5815TIP3    H138860   1.426   5.407  10.745 -0.5555 -0.2437  0.4693
 5815TIP3    H238861   1.424   5.473  10.608 -0.5744  0.6027  0.8787
 5816TIP3   OH238862   5.486   5.105  10.976  0.0116  0.0869  0.1305
 5816TIP3    H138863   5.450   5.124  11.063 -1.0634  2.5733 -0.8077
 5816TIP3    H238864   5.455   5.017  10.956 -1.8461  0.4730  1.2163
 5817TIP3   OH238865   2.009   6.966  14.300  0.2457  0.0432  0.0594
 5817TIP3    H138866   1.985   6.934  14.213 -0.4802  0.8882 -0.0610
 5817TIP3    H238867   1.974   7.055  14.303 -2.6276 -1.1204  2.4516
 5818TIP3   OH238868   0.661   1.250  13.765 -0.6388  0.4627  0.4881
 5818TIP3    H138869   0.654   1.178  13.828 -1.0545  0.9590  1.0114
 5818TIP3    H238870   0.670   1.207  13.680  0.2946 -0.2179  0.9204
 5819TIP3   OH238871   0.423   2.952  14.169  0.3685  0.3083 -0.5398
 5819TIP3    H138872   0.517   2.956  14.157  0.5635 -0.1941  0.7219
 5819TIP3    H238873   0.407   2.999  14.251 -0.4273  0.1054 -0.5722
 5820TIP3   OH238874   2.153   3.669  14.785 -0.2593 -0.3303 -0.3625
 5820TIP3    H138875   2.097   3.635  14.856 -1.3112 -0.1021 -1.0788
 5820TIP3    H238876   2.112   3.751  14.759  0.2966 -0.2629 -1.0366
 5821TIP3   OH238877   0.989   1.819  14.929  0.4603 -0.1028  0.1557
 5821TIP3    H138878   0.970   1.910  14.906  3.8910 -0.0863 -3.3006
 5821TIP3    H238879   0.942   1.767  14.863  0.4068 -0.7073  0.6628
 5822TIP3   OH238880   2.030   5.803  13.645  0.4541  0.0244 -0.2778
 5822TIP3    H138881   1.954   5.859  13.627 -0.7196 -0.9007  1.6404
 5822TIP3    H238882   2.057   5.770  13.560  0.0114  2.0364 -1.2241
 5823TIP3   OH238883   0.957   0.054   1.110 -0.2997  0.4711 -0.1809
 5823TIP3    H138884   0.952   0.145   1.139  1.1432  0.2755  0.7279
 5823TIP3    H238885   1.044   0.024   1.138 -0.4360 -0.9350 -1.1982
 5824TIP3   OH238886   2.804   4.793  12.073  0.3158  0.4799  0.5312
 5824TIP3    H138887   2.801   4.704  12.037 -0.5608  0.3169  0.9995
 5824TIP3    H238888   2.817   4.849  11.997  0.6223 -0.0343  0.2026
 5825TIP3   OH238889   6.088   1.139  12.137  0.7175  0.0016  0.1854
 5825TIP3    H138890   6.085   1.061  12.191 -1.6591 -0.8608 -1.1361
 5825TIP3    H238891   6.028   1.201  12.179 -1.7085 -0.9369 -1.7915
 5826TIP3   OH238892   2.533   0.412  11.576  0.3839 -0.0729  0.2396
 5826TIP3    H138893   2.532   0.502  11.543  0.5505 -0.2085 -0.1403
 5826TIP3    H238894   2.619   0.378  11.549  0.3044 -0.3586  0.3466
 5827TIP3   OH238895   1.567   6.050  11.741  0.7392 -0.2209  0.3732
 5827TIP3    H138896   1.630   6.119  11.720 -0.4160  1.1982  1.4781
 5827TIP3    H238897   1.606   6.005  11.817  2.2988 -1.9029 -1.3645
 5828TIP3   OH238898   0.037   6.237  13.005  0.1354 -0.2575  0.7642
 5828TIP3    H138899   0.081   6.152  12.997  0.9991  0.2102  0.5039
 5828TIP3    H238900   0.035   6.271  12.915  0.1167  0.1693  0.9277
 5829TIP3   OH238901   3.072   4.565  12.377 -0.2258  0.0642  0.0945
 5829TIP3    H138902   2.982   4.598  12.367 -0.0429  0.8840  1.0706
 5829TIP3    H238903   3.115   4.629  12.434  0.6163 -0.9849  0.6663
 5830TIP3   OH238904   2.114   0.084  12.662  0.0797 -0.4375 -0.9526
 5830TIP3    H138905   2.071  -0.001  12.655  0.6201 -0.7127 -1.0295
 5830TIP3    H238906   2.047   0.143  12.696  0.0974 -1.2274  0.5120
 5831TIP3   OH238907   1.499   4.625  12.662 -0.4353 -1.1048  0.0824
 5831TIP3    H138908   1.548   4.700  12.695 -1.6566 -0.5220  0.5951
 5831TIP3    H238909   1.409   4.639  12.693 -0.6169 -2.9302  0.4513
 5832TIP3   OH238910   6.701   2.457  11.845 -0.1676  0.0553 -0.2741
 5832TIP3    H138911   6.624   2.486  11.894  0.8660  0.4423  1.1514
 5832TIP3    H238912   6.667   2.434  11.758 -1.8939  0.1465  0.3582
 5833TIP3   OH238913   2.199   4.511  12.171  0.3463 -0.0633 -0.8516
 5833TIP3    H138914   2.130   4.457  12.209  0.3325  0.1225 -0.6129
 5833TIP3    H238915   2.238   4.557  12.245  0.8972 -0.3571 -0.9491
 5834TIP3   OH238916   1.768   5.708  15.785 -0.2033  0.2031  0.4218
 5834TIP3    H138917   1.831   5.775  15.811  1.9779 -2.0715  1.2384
 5834TIP3    H238918   1.711   5.698  15.861 -0.1708  0.7032  0.5158
 5835TIP3   OH238919   1.236   0.410  13.703  0.2312  0.2199  0.2305
 5835TIP3    H138920   1.319   0.381  13.665 -0.1279 -0.9316  0.3066
 5835TIP3    H238921   1.213   0.488  13.653  2.0774  1.4053  1.1723
 5836TIP3   OH238922   2.616   5.972  12.030  0.4640  0.4968  0.2608
 5836TIP3    H138923   2.672   6.043  11.996  0.4709 -0.0494 -0.8735
 5836TIP3    H238924   2.674   5.896  12.035  0.5982  0.6850  2.0062
 5837TIP3   OH238925   2.569   3.668  12.293 -0.1049 -0.7351 -0.1525
 5837TIP3    H138926   2.584   3.746  12.239 -2.1990 -0.5469 -0.4845
 5837TIP3    H238927   2.578   3.699  12.383  1.2265 -0.5929 -0.3155
 5838TIP3   OH238928   7.215   1.798  13.076 -0.3029 -0.2915 -0.4970
 5838TIP3    H138929   7.256   1.715  13.099 -0.1161 -0.7700 -2.4600
 5838TIP3    H238930   7.150   1.775  13.009 -0.3174  1.1172 -0.9974
 5839TIP3   OH238931   4.438   1.277  15.699 -0.1579 -0.1615 -0.4296
 5839TIP3    H138932   4.448   1.213  15.628 -0.2348 -1.2039  0.4825
 5839TIP3    H238933   4.510   1.256  15.759  0.4183  1.2655 -0.6156
 5840TIP3   OH238934   0.625   5.799  12.512  0.0106 -0.3847 -0.3415
 5840TIP3    H138935   0.546   5.748  12.528  0.4701 -1.8052 -2.4785
 5840TIP3    H238936   0.694   5.734  12.501  1.5507  0.8498  1.6541
 5841TIP3   OH238937   4.264   5.446  12.596 -0.2249  0.1079 -0.3282
 5841TIP3    H138938   4.256   5.449  12.501 -0.7795 -0.1429 -0.2915
 5841TIP3    H238939   4.350   5.486  12.614 -0.1864  0.3020 -0.9161
 5842TIP3   OH238940   5.939   1.481  13.699  0.2570  0.2120 -0.1122
 5842TIP3    H138941   5.972   1.405  13.747 -0.0774  0.0775 -0.0916
 5842TIP3    H238942   6.014   1.539  13.691  0.8737 -0.7221 -1.3126
 5843TIP3   OH238943   4.455   6.044  14.464 -0.3649  0.0268  0.3494
 5843TIP3    H138944   4.366   6.066  14.493  0.3593  1.3821  1.6054
 5843TIP3    H238945   4.484   6.121  14.415 -0.2271 -0.8075 -0.9125
 5844TIP3   OH238946   3.442   3.571  13.684 -0.2464  0.0593 -0.3118
 5844TIP3    H138947   3.406   3.643  13.736  2.8753  0.4165  1.4669
 5844TIP3    H238948   3.497   3.614  13.619 -0.4210 -0.6037 -0.9005
 5845TIP3   OH238949   7.278   5.999  11.191 -0.7645  0.4558 -0.1941
 5845TIP3    H138950   7.247   5.979  11.279  1.0097  0.8959  0.5619
 5845TIP3    H238951   7.251   5.924  11.138 -4.3938  1.4656  0.0485
 5846TIP3   OH238952   4.039   5.536  12.730 -0.0601 -0.5178 -0.2089
 5846TIP3    H138953   4.120   5.503  12.690  1.0513  0.0503  1.5297
 5846TIP3    H238954   4.052   5.631  12.733 -0.0373 -0.5606  1.6603
 5847TIP3   OH238955   3.755   6.982  12.411 -0.1300  0.1471 -0.0465
 5847TIP3    H138956   3.752   7.016  12.322  0.4534 -0.2348 -0.2091
 5847TIP3    H238957   3.663   6.966  12.433 -0.0786 -3.1814 -1.8878
 5848TIP3   OH238958   1.665   6.696  11.417 -0.2487 -0.4142 -0.1221
 5848TIP3    H138959   1.606   6.649  11.476 -0.0312 -2.8315 -1.7500
 5848TIP3    H238960   1.682   6.634  11.346  4.6764 -0.0512  0.5616
 5849TIP3   OH238961   1.698   5.013  13.538  0.6805 -0.5095 -0.4344
 5849TIP3    H138962   1.643   4.935  13.529  0.2737 -0.3717  0.7622
 5849TIP3    H238963   1.665   5.057  13.616  1.4940  0.3954 -0.5876
 5850TIP3   OH238964   5.473   0.734  12.596 -0.2474  1.0783  0.8525
 5850TIP3    H138965   5.560   0.709  12.563 -1.2172 -0.7692 -0.3801
 5850TIP3    H238966   5.484   0.825  12.625  2.4843  0.3879  2.1523
 5851TIP3   OH238967   2.351   2.928  14.485  0.5609 -0.1064  0.0545
 5851TIP3    H138968   2.389   2.897  14.403  0.5224 -1.4422  0.5214
 5851TIP3    H238969   2.425   2.959  14.536  0.5810  0.7556 -0.4954
 5852TIP3   OH238970   5.866   6.321  13.226  0.0645  0.1781 -0.2042
 5852TIP3    H138971   5.816   6.282  13.298 -1.2576  0.8722 -0.7363
 5852TIP3    H238972   5.933   6.374  13.270  0.7004 -1.1696  0.5099
 5853TIP3   OH238973   1.294   5.297  13.192  0.0693 -0.1085 -0.2567
 5853TIP3    H138974   1.249   5.261  13.268 -0.7067 -0.8549 -1.0536
 5853TIP3    H238975   1.367   5.236  13.177 -0.7578 -0.9248 -1.1004
 5854TIP3   OH238976   3.363   5.755  11.835  0.2020 -0.3602 -0.6411
 5854TIP3    H138977   3.442   5.714  11.800  1.6956  0.4173  1.7305
 5854TIP3    H238978   3.365   5.737  11.929 -0.6069  2.6021  0.0088
 5855TIP3   OH238979   4.083   4.593  14.620  0.0470  0.0285 -0.1530
 5855TIP3    H138980   4.051   4.683  14.629 -0.6279 -0.3998  1.9667
 5855TIP3    H238981   4.147   4.583  14.691 -0.0081 -1.2230 -0.2670
 5856TIP3   OH238982   2.723   6.312  12.707  0.1547 -0.2796  0.3517
 5856TIP3    H138983   2.730   6.388  12.764 -2.1066 -0.7510  1.3104
 5856TIP3    H238984   2.629   6.302  12.692  0.6061 -1.0093 -2.3284
 5857TIP3   OH238985   2.312   2.724  10.927  0.1808 -0.3599 -0.9334
 5857TIP3    H138986   2.247   2.662  10.896  0.9134 -1.7477  0.2680
 5857TIP3    H238987   2.261   2.792  10.971 -0.4620 -1.4966  0.0947
 5858TIP3   OH238988   4.070   4.347  13.793 -0.0072  0.0421 -0.7089
 5858TIP3    H138989   4.130   4.413  13.758 -0.9297  1.6410  0.6308
 5858TIP3    H238990   4.122   4.300  13.859 -0.2976  1.7026  0.7521
 5859TIP3   OH238991   6.000   1.666  10.597  0.0332  0.1482 -0.3809
 5859TIP3    H138992   6.026   1.612  10.672 -0.6431 -0.3100 -0.4670
 5859TIP3    H238993   6.063   1.738  10.595 -0.8152  0.9575  1.4898
 5860TIP3   OH238994   1.298   3.998  13.546  0.5198  0.1370  0.0142
 5860TIP3    H138995   1.211   4.037  13.553  0.5819  0.1031  1.1436
 5860TIP3    H238996   1.283   3.904  13.557  0.8066  0.2269  1.2205
 5861TIP3   OH238997   1.017   1.244  15.810  0.2223 -0.0299 -0.1722
 5861TIP3    H138998   0.997   1.287  15.894 -0.3890 -0.2246 -0.2169
 5861TIP3    H238999   1.111   1.226  15.815 -0.1082 -1.4978  1.1448
 5862TIP3   OH239000   6.288   0.085  12.154 -0.2025  0.2379 -0.1644
 5862TIP3    H139001   6.364   0.037  12.186 -0.5482 -1.4811 -1.7962
 5862TIP3    H239002   6.324   0.160  12.108  0.4393  0.4638  0.7031
 5863TIP3   OH239003   3.009   4.322  10.594  0.3404 -0.0810  0.2470
 5863TIP3    H139004   2.994   4.356  10.505  1.3288  0.6936  0.3747
 5863TIP3    H239005   2.956   4.242  10.597 -0.4185  0.3629 -0.7356
 5864TIP3   OH239006   6.758   6.335  11.084  0.3686 -0.3756 -0.2084
 5864TIP3    H139007   6.816   6.380  11.021 -0.8723  2.4755  0.5963
 5864TIP3    H239008   6.670   6.351  11.051 -0.1477 -1.6135  0.5385
 5865TIP3   OH239009   4.001   1.346  12.086  0.3475  0.3491 -0.0908
 5865TIP3    H139010   4.084   1.330  12.131 -0.0415 -0.5282  0.3323
 5865TIP3    H239011   4.024   1.346  11.993  1.0475  1.5335  0.0712
 5866TIP3   OH239012   1.872   5.613  14.701 -0.3354  0.2771 -0.1565
 5866TIP3    H139013   1.821   5.550  14.650 -0.5489  0.5525 -0.2852
 5866TIP3    H239014   1.882   5.689  14.643  0.4465  0.1244 -0.2295
 5867TIP3   OH239015   2.533   2.515  11.531 -0.9537  0.2446 -0.5120
 5867TIP3    H139016   2.485   2.445  11.575  0.2198 -0.3012 -0.0861
 5867TIP3    H239017   2.621   2.512  11.569 -0.4378  0.9301 -1.6199
 5868TIP3   OH239018   2.169   4.706  11.971 -0.3857 -0.4148  0.5403
 5868TIP3    H139019   2.196   4.647  12.041 -0.6677  1.1819  2.0426
 5868TIP3    H239020   2.177   4.794  12.009 -1.9234  0.4172 -0.9531
 5869TIP3   OH239021   2.006   6.251  13.057 -0.2482 -0.4234 -0.4278
 5869TIP3    H139022   2.048   6.190  12.997 -2.2286 -1.2579 -1.0293
 5869TIP3    H239023   2.077   6.288  13.109  1.3627 -0.5358 -2.5311
 5870TIP3   OH239024   6.482   4.135  11.691  0.0582 -0.2737 -0.0242
 5870TIP3    H139025   6.484   4.223  11.655  0.3124 -0.1360  0.3220
 5870TIP3    H239026   6.573   4.115  11.712  0.0000 -0.6064 -0.0746
 5871TIP3   OH239027   0.454   2.255  15.638 -0.3732  0.0800 -0.4013
 5871TIP3    H139028   0.383   2.308  15.602  0.0432  1.1193  0.2805
 5871TIP3    H239029   0.451   2.173  15.589 -2.3976 -0.1021  0.0117
 5872TIP3   OH239030   6.698   5.248  12.862  0.5902  0.2435 -0.5835
 5872TIP3    H139031   6.681   5.339  12.838  0.8918  0.7218  0.9407
 5872TIP3    H239032   6.790   5.233  12.839  0.2709  0.0304 -1.7172
 5873TIP3   OH239033   3.796   5.966  12.112  0.0635  0.4241 -0.0492
 5873TIP3    H139034   3.789   6.001  12.201  1.8925  1.5360 -0.3189
 5873TIP3    H239035   3.828   6.040  12.059  0.7734 -0.7379 -1.2716
 5874TIP3   OH239036   3.762   4.533  12.904 -0.4906 -0.3259  0.4240
 5874TIP3    H139037   3.814   4.590  12.961  1.7054 -0.7644 -1.0673
 5874TIP3    H239038   3.682   4.517  12.953  0.2265  1.4322  2.2512
 5875TIP3   OH239039   1.717   0.645  13.837  0.3599 -0.1294 -0.0279
 5875TIP3    H139040   1.726   0.594  13.918 -0.4844  0.9398  0.7460
 5875TIP3    H239041   1.717   0.579  13.767  0.9177 -1.0726  0.8429
 5876TIP3   OH239042   6.670   6.956   0.062  0.6821 -0.1898 -0.8225
 5876TIP3    H139043   6.723   6.933  -0.013  0.4283  0.3517 -1.1717
 5876TIP3    H239044   6.584   6.917   0.044  0.6012 -0.0012 -0.8442
 5877TIP3   OH239045   0.589   6.800  11.327 -0.0478  0.2046 -0.3062
 5877TIP3    H139046   0.668   6.818  11.377  0.9240 -1.3785 -1.2201
 5877TIP3    H239047   0.525   6.865  11.357  1.1480  0.5774  1.4655
 5878TIP3   OH239048   5.220   4.606  10.730 -0.0535 -0.0745  0.3040
 5878TIP3    H139049   5.288   4.579  10.791 -0.8244 -0.2796  1.0921
 5878TIP3    H239050   5.219   4.539  10.662 -0.8852 -1.1989  1.4107
 5879TIP3   OH239051   0.537   6.324  12.947  0.2144 -0.0948  0.4329
 5879TIP3    H139052   0.452   6.292  12.977  0.6673 -1.6536  0.0600
 5879TIP3    H239053   0.600   6.262  12.982  1.0648  0.1680 -0.6265
 5880TIP3   OH239054   5.455   4.231  10.610  0.2269 -0.3139 -0.4693
 5880TIP3    H139055   5.449   4.155  10.668  0.2718 -0.2429 -0.3707
 5880TIP3    H239056   5.370   4.274  10.619 -0.4570 -1.3345 -1.8905
 5881TIP3   OH239057   0.023   0.431  11.901  0.2063 -0.0023 -0.3888
 5881TIP3    H139058  -0.059   0.458  11.862  0.4062  1.7707  0.3820
 5881TIP3    H239059   0.087   0.437  11.830  0.1981  1.3285 -0.2910
 5882TIP3   OH239060   1.320   3.949  14.069 -0.1626  0.5469  0.0314
 5882TIP3    H139061   1.340   4.036  14.034  1.4768 -0.1507 -0.7937
 5882TIP3    H239062   1.229   3.956  14.098 -0.7532  1.9294 -2.0096
 5883TIP3   OH239063   6.892   7.022  12.664 -0.3773 -0.1843  0.2430
 5883TIP3    H139064   6.868   7.074  12.588  0.6263  1.5218  1.0624
 5883TIP3    H239065   6.819   6.960  12.675 -1.8858  1.4255 -0.4054
 5884TIP3   OH239066   6.328   6.413  14.111  0.0680 -0.1460 -0.0873
 5884TIP3    H139067   6.309   6.464  14.032  0.8863 -0.9030 -0.7780
 5884TIP3    H239068   6.413   6.444  14.140  1.3107 -2.2222 -1.4250
 5885TIP3   OH239069   4.176   7.111  12.187 -0.1210 -0.2712  0.3624
 5885TIP3    H139070   4.120   7.154  12.123  0.5035  0.7488  0.4968
 5885TIP3    H239071   4.236   7.179  12.216  1.2204 -1.3624  0.1851
 5886TIP3   OH239072   0.192   3.874  12.856 -0.2150 -0.1622  0.5414
 5886TIP3    H139073   0.235   3.807  12.910  2.5679 -0.8498 -2.3550
 5886TIP3    H239074   0.107   3.836  12.836  1.0606 -2.6466 -0.5074
 5887TIP3   OH239075   0.452   5.794  10.716 -0.4818  0.1489  0.0239
 5887TIP3    H139076   0.485   5.708  10.687  0.3294 -0.3802  2.3780
 5887TIP3    H239077   0.385   5.773  10.781 -0.6157  1.2967  0.2618
 5888TIP3   OH239078   6.313   0.638  15.082  0.4622  0.4631 -0.1362
 5888TIP3    H139079   6.407   0.636  15.097  0.4631 -0.8334 -0.2465
 5888TIP3    H239080   6.286   0.546  15.089 -0.7832  0.8226 -0.1443
 5889TIP3   OH239081   3.605   5.828  14.295  0.3838 -0.4641  0.3865
 5889TIP3    H139082   3.524   5.783  14.270 -1.0070  2.2129 -0.0782
 5889TIP3    H239083   3.656   5.832  14.214 -0.3440  0.5044 -0.0320
 5890TIP3   OH239084   3.295   1.437  11.749 -0.3852  0.0092  0.4984
 5890TIP3    H139085   3.257   1.364  11.699 -0.0964 -0.9081  1.5874
 5890TIP3    H239086   3.282   1.412  11.840 -2.2061  2.3262  0.9348
 5891TIP3   OH239087   3.732   1.335  11.452  0.1620  0.1714 -0.0218
 5891TIP3    H139088   3.668   1.268  11.432  0.8634 -0.0485 -1.5615
 5891TIP3    H239089   3.680   1.414  11.468 -0.4752  0.1911 -2.0332
 5892TIP3   OH239090   3.170   4.507  13.757 -0.2604  0.7514 -0.3502
 5892TIP3    H139091   3.150   4.600  13.743 -2.2958  0.7270  2.0428
 5892TIP3    H239092   3.200   4.502  13.848  0.3171 -0.8753 -0.6114
 5893TIP3   OH239093   6.342   5.646  11.243 -0.9760 -0.2328  0.4687
 5893TIP3    H139094   6.298   5.594  11.311 -2.9046  1.1511  0.3175
 5893TIP3    H239095   6.336   5.592  11.164 -1.7404 -0.3890  0.6294
 5894TIP3   OH239096   5.545   6.373  14.997  0.0704 -0.4347  0.0504
 5894TIP3    H139097   5.500   6.289  15.006  1.7524 -1.1520  2.0875
 5894TIP3    H239098   5.587   6.388  15.082 -1.3259  3.1448  0.2281
 5895TIP3   OH239099   2.582   5.610  14.051  0.1329  0.1568 -0.2117
 5895TIP3    H139100   2.536   5.530  14.077 -2.0611  0.7816 -1.9038
 5895TIP3    H239101   2.591   5.661  14.131 -1.8515 -0.1756  0.2551
 5896TIP3   OH239102   1.997   1.836  12.265 -0.1413  0.5809 -0.4634
 5896TIP3    H139103   1.906   1.860  12.285 -0.6168 -2.1728  0.8389
 5896TIP3    H239104   2.049   1.908  12.302 -1.7635  2.0291 -0.9591
 5897TIP3   OH239105   4.585   0.994  12.561 -0.0687 -0.2588 -0.2011
 5897TIP3    H139106   4.562   1.037  12.644 -2.3097 -1.3505 -0.2325
 5897TIP3    H239107   4.650   0.929  12.585 -0.0568  0.0319  0.5721
 5898TIP3   OH239108   3.760   6.257  12.061  0.3236  0.3295  0.3615
 5898TIP3    H139109   3.792   6.293  11.978 -1.5336  1.4834  0.1085
 5898TIP3    H239110   3.825   6.285  12.126  2.1324 -1.1362 -0.7705
 5899TIP3   OH239111   3.623   6.513  12.546 -0.3034 -0.0056 -0.0552
 5899TIP3    H139112   3.677   6.442  12.581  0.3681  0.8968  0.7727
 5899TIP3    H239113   3.684   6.586  12.536 -0.7897  0.2014 -1.7560
 5900TIP3   OH239114   5.384   3.973  12.514  0.1307  0.4640  0.0897
 5900TIP3    H139115   5.363   3.944  12.425 -0.9015 -2.1168  1.1183
 5900TIP3    H239116   5.468   3.931  12.534  0.3440  1.0108  0.3425
 5901TIP3   OH239117   3.101   6.938  15.583  0.7174 -0.2201  0.2620
 5901TIP3    H139118   3.057   6.940  15.669 -0.3704 -1.0822 -0.2542
 5901TIP3    H239119   3.064   6.861  15.540  2.8663 -1.0616 -0.1496
 5902TIP3   OH239120   6.454   6.894  13.756 -0.7720 -0.2421  0.0374
 5902TIP3    H139121   6.407   6.888  13.839 -0.3728  0.9444  0.3515
 5902TIP3    H239122   6.486   6.805  13.741 -1.1207 -0.5379  0.9975
 5903TIP3   OH239123   6.358   7.093  12.423  0.0466 -0.2342  0.3026
 5903TIP3    H139124   6.393   7.049  12.345  0.5814  0.8105 -0.0592
 5903TIP3    H239125   6.278   7.136  12.393  0.2331  0.1372  0.3308
 5904TIP3   OH239126   2.483   0.188  13.269  0.8343 -0.3652 -0.3515
 5904TIP3    H139127   2.559   0.135  13.242  1.7088 -0.0839  1.4482
 5904TIP3    H239128   2.514   0.278  13.265 -0.0816 -0.1026 -1.6508
 5905TIP3   OH239129   5.598   6.088   1.738 -0.2608  0.5160 -0.2948
 5905TIP3    H139130   5.627   6.057   1.824 -0.0103  1.4917 -0.0241
 5905TIP3    H239131   5.506   6.111   1.750 -0.2590  0.5358 -0.3220
 5906TIP3   OH239132   1.561   5.195  11.196  0.0127 -0.3512  0.1850
 5906TIP3    H139133   1.649   5.182  11.161 -0.4118 -0.5007 -0.8359
 5906TIP3    H239134   1.506   5.134  11.147 -0.5874 -0.5918  1.1380
 5907TIP3   OH239135   1.393   0.231   0.527 -0.2280  0.5949 -0.2154
 5907TIP3    H139136   1.380   0.325   0.536  1.6334  0.5762  3.3170
 5907TIP3    H239137   1.346   0.193   0.602  2.1279 -0.9778  0.5168
 5908TIP3   OH239138   6.888   0.492  15.013 -0.2702  0.0201  0.1385
 5908TIP3    H139139   6.823   0.537  14.959  0.1214 -0.5779 -0.8252
 5908TIP3    H239140   6.885   0.401  14.983  0.6692 -0.1048  0.4306
 5909TIP3   OH239141   4.115   2.151  11.764 -0.1685 -0.2012  0.0234
 5909TIP3    H139142   4.050   2.097  11.808 -1.5707  0.2921 -1.4064
 5909TIP3    H239143   4.186   2.161  11.828 -3.2267  2.5507  3.1453
 5910TIP3   OH239144   7.259   4.080  12.881 -0.0426 -0.0619 -0.1870
 5910TIP3    H139145   7.274   4.065  12.788 -0.4955 -0.8672 -0.1280
 5910TIP3    H239146   7.164   4.087  12.889  0.1093  2.8976 -0.2230
 5911TIP3   OH239147   0.215   0.436  13.102  0.7192 -0.5106 -0.4836
 5911TIP3    H139148   0.173   0.352  13.119  1.0548 -0.5385  0.2148
 5911TIP3    H239149   0.162   0.475  13.032 -0.6257 -0.4415  0.5588
 5912TIP3   OH239150   4.335   1.995  12.301 -0.2059  0.1688 -0.1227
 5912TIP3    H139151   4.329   1.903  12.326  0.3727  0.1712  0.0339
 5912TIP3    H239152   4.311   2.043  12.380 -1.0865  0.1511 -0.3706
 5913TIP3   OH239153   5.816   4.363  13.764  0.4045  0.2029  0.2784
 5913TIP3    H139154   5.739   4.337  13.713  0.8417  0.3421 -0.4610
 5913TIP3    H239155   5.808   4.315  13.846 -0.4073  0.1158  0.1488
 5914TIP3   OH239156   5.176   1.976  13.765  0.0648 -0.6555  0.0377
 5914TIP3    H139157   5.242   2.017  13.822  0.9533 -2.8745  0.6322
 5914TIP3    H239158   5.224   1.954  13.685 -0.7700  0.8120 -0.8864
 5915TIP3   OH239159   5.614   0.411  12.162 -0.9136 -0.0246  0.4339
 5915TIP3    H139160   5.587   0.331  12.207 -0.3680  0.6936  2.1154
 5915TIP3    H239161   5.543   0.472  12.177 -1.3932 -0.2345 -0.9713
 5916TIP3   OH239162   1.983   4.087  11.456  0.1427 -0.4740 -0.3174
 5916TIP3    H139163   2.011   4.111  11.545 -0.3361 -1.1235  0.0098
 5916TIP3    H239164   1.952   4.169  11.419  2.5260  0.2838 -0.7176
 5917TIP3   OH239165   3.760   5.091  14.144  0.4452 -0.3039  0.3029
 5917TIP3    H139166   3.809   5.173  14.142 -0.5678  0.3263  0.4573
 5917TIP3    H239167   3.669   5.119  14.155 -0.0272 -1.4096 -0.6882
 5918TIP3   OH239168   0.969   1.441  12.964 -0.1316  0.4382 -0.0467
 5918TIP3    H139169   0.978   1.536  12.957  0.2736  0.3575 -0.6583
 5918TIP3    H239170   0.895   1.428  13.022 -0.2793  1.1340 -0.0784
 5919TIP3   OH239171   1.145   4.750  10.142 -0.2420  0.0654  0.2394
 5919TIP3    H139172   1.079   4.696  10.185 -0.5914 -0.1996 -0.6294
 5919TIP3    H239173   1.151   4.715  10.053 -0.7968  1.7445 -0.4709
 5920TIP3   OH239174   4.918   1.575  14.092  0.0928  0.0362 -0.5872
 5920TIP3    H139175   4.874   1.535  14.017 -0.2857  0.7457 -0.7526
 5920TIP3    H239176   4.967   1.649  14.055 -1.2341  1.2563  0.0332
 5921TIP3   OH239177   2.938   4.609  13.041  0.3853 -0.4780 -0.0345
 5921TIP3    H139178   3.017   4.627  12.989  0.2793 -0.5638 -0.2255
 5921TIP3    H239179   2.887   4.550  12.986  0.1879 -0.4236  0.0912
 5922TIP3   OH239180   7.217   0.777  11.508 -0.1474  0.7409  0.3783
 5922TIP3    H139181   7.126   0.751  11.525 -0.3458 -0.1983 -1.9433
 5922TIP3    H239182   7.209   0.859  11.459  0.2901  0.8389  0.4693
 5923TIP3   OH239183   6.835   0.559  12.643 -0.5349  0.3749 -0.8273
 5923TIP3    H139184   6.741   0.555  12.624 -0.5527  0.3909 -0.7456
 5923TIP3    H239185   6.863   0.644  12.610 -0.5975  0.4691 -0.6428
 5924TIP3   OH239186   2.059   6.946  12.646 -0.5671 -0.6326 -0.3576
 5924TIP3    H139187   2.009   7.027  12.636 -0.5693 -0.6547 -0.5243
 5924TIP3    H239188   2.150   6.972  12.636 -0.4806 -0.4350  0.8926
 5925TIP3   OH239189   5.911   0.618  11.169 -0.7364  0.3369  0.3088
 5925TIP3    H139190   5.879   0.683  11.232  1.0898  1.8189 -0.2581
 5925TIP3    H239191   5.863   0.637  11.089 -1.8388 -0.4905  0.7407
 5926TIP3   OH239192   3.386   6.654  13.810 -0.1005  0.2458  0.3492
 5926TIP3    H139193   3.379   6.601  13.731  1.7900  0.5707 -0.0652
 5926TIP3    H239194   3.380   6.744  13.778  0.1866  0.3622  0.6204
 5927TIP3   OH239195   4.217   0.153  10.948 -0.2852 -0.1540 -0.3268
 5927TIP3    H139196   4.171   0.210  11.009 -0.8129  0.0413 -0.9002
 5927TIP3    H239197   4.195   0.188  10.861 -0.2782 -0.9759 -0.6634
 5928TIP3   OH239198   2.124   4.436  13.476 -0.0880 -0.8025  0.7761
 5928TIP3    H139199   2.151   4.525  13.496  0.3164 -0.5650 -0.7475
 5928TIP3    H239200   2.063   4.413  13.545 -1.7216  1.3546  0.0925
 5929TIP3   OH239201   0.762   6.985  13.477 -0.0031  0.5017  0.0374
 5929TIP3    H139202   0.778   6.908  13.422  0.5832  1.4686 -1.1623
 5929TIP3    H239203   0.835   6.985  13.539 -0.8713 -0.8058  1.0970
 5930TIP3   OH239204   5.850   5.774  11.357 -0.6359  0.1005  0.2446
 5930TIP3    H139205   5.862   5.681  11.374 -0.4843 -0.4343 -2.6278
 5930TIP3    H239206   5.934   5.814  11.379 -0.9072 -0.2942  2.1304
 5931TIP3   OH239207   0.965   1.317  14.727  0.1258 -0.5034  0.6573
 5931TIP3    H139208   0.973   1.228  14.759  0.2876 -0.5498  0.4838
 5931TIP3    H239209   1.018   1.370  14.787 -0.2013 -0.4799  0.9339
 5932TIP3   OH239210   5.625   5.918  14.223 -0.5132 -0.2774 -0.1164
 5932TIP3    H139211   5.684   5.992  14.231  0.2088 -0.8574 -0.0251
 5932TIP3    H239212   5.574   5.936  14.144 -1.0047  0.7788  0.4426
 5933TIP3   OH239213   1.004   1.092  12.005 -0.2517 -0.1554 -0.2585
 5933TIP3    H139214   0.917   1.127  11.982 -0.5653 -1.3256 -0.8910
 5933TIP3    H239215   1.026   1.136  12.087 -1.6696 -0.2190  0.1765
 5934TIP3   OH239216   0.315   0.002  11.638  0.3118 -0.4269  0.0563
 5934TIP3    H139217   0.238  -0.048  11.664 -0.7470 -0.1952 -2.5153
 5934TIP3    H239218   0.310   0.083  11.689 -0.0966 -1.2297  1.3143
 5935TIP3   OH239219   2.052   5.740  11.571 -0.1688 -0.2555  0.1681
 5935TIP3    H139220   2.121   5.724  11.506  1.1645  0.9089  1.2486
 5935TIP3    H239221   2.027   5.831  11.558 -2.8775 -1.1889 -1.4473
 5936TIP3   OH239222   3.696   1.669  13.972  0.0149  0.3525 -0.2008
 5936TIP3    H139223   3.676   1.695  13.882  0.0665 -0.1053 -0.3419
 5936TIP3    H239224   3.610   1.658  14.013 -0.0227 -1.2555 -0.7074
 5937TIP3   OH239225   0.536   5.277  11.938  0.3598 -0.1664  0.1741
 5937TIP3    H139226   0.594   5.255  11.865 -0.5290 -2.3636  0.1125
 5937TIP3    H239227   0.574   5.232  12.013 -1.2269 -1.6016  0.1414
 5938TIP3   OH239228   4.244   4.754  13.375  0.1034 -0.1702 -0.2274
 5938TIP3    H139229   4.264   4.846  13.362  1.7389 -0.1345  2.2919
 5938TIP3    H239230   4.327   4.709  13.363 -0.3060 -1.1148  0.4441
 5939TIP3   OH239231   0.353   6.862  15.217  0.1371  0.3823 -0.0903
 5939TIP3    H139232   0.411   6.847  15.142 -0.7272  1.4506 -0.9866
 5939TIP3    H239233   0.265   6.859  15.180 -0.2886  1.1836  0.8392
 5940TIP3   OH239234   3.712   1.278  15.365 -0.1871  0.5283  0.4001
 5940TIP3    H139235   3.650   1.208  15.345  0.2842  0.7440 -1.8828
 5940TIP3    H239236   3.796   1.234  15.374 -0.1557  0.6150  0.5407
 5941TIP3   OH239237   4.560   6.410   0.176  0.2358  0.6271 -0.0329
 5941TIP3    H139238   4.477   6.374   0.208  0.2857  1.2225  0.8006
 5941TIP3    H239239   4.625   6.382   0.241  0.5046  1.0633 -0.1095
 5942TIP3   OH239240   4.058   5.046  11.526  0.0231  0.4512 -0.2351
 5942TIP3    H139241   4.019   5.019  11.609  0.6504 -1.4285 -0.5289
 5942TIP3    H239242   4.114   5.120  11.548 -1.7441  1.5722  0.6007
 5943TIP3   OH239243   4.970   1.263  14.803  0.7444  0.2867 -0.6413
 5943TIP3    H139244   4.940   1.176  14.831  1.6880 -0.4665 -1.8912
 5943TIP3    H239245   5.055   1.275  14.846  1.8597 -0.5691 -2.5099
 5944TIP3   OH239246   3.976   3.176  11.968  0.4816 -0.7191  0.1094
 5944TIP3    H139247   3.974   3.146  11.877  0.9472  0.0574 -0.1574
 5944TIP3    H239248   3.886   3.165  11.998  0.1672 -0.3255 -0.6658
 5945TIP3   OH239249   0.728   3.258  10.862 -0.0177  0.2981  0.4689
 5945TIP3    H139250   0.778   3.281  10.941  0.5294  1.2597 -0.1409
 5945TIP3    H239251   0.647   3.219  10.895 -0.0940  1.3152  1.5160
 5946TIP3   OH239252   0.349   1.342  12.427 -0.0654 -0.2546 -0.1784
 5946TIP3    H139253   0.301   1.263  12.403 -1.5279  0.0973  1.4892
 5946TIP3    H239254   0.348   1.342  12.523  1.8596  0.6162 -0.1356
 5947TIP3   OH239255   1.714   0.200  12.919  0.4842  0.0070 -0.0739
 5947TIP3    H139256   1.619   0.207  12.905  0.8439  1.1966 -2.1136
 5947TIP3    H239257   1.723   0.129  12.983 -1.9262  1.8801  2.4675
 5948TIP3   OH239258   5.448   7.275  14.615 -0.3311 -0.1688 -0.1826
 5948TIP3    H139259   5.463   7.321  14.532 -1.8462  0.7453  0.0504
 5948TIP3    H239260   5.401   7.195  14.590  0.4592 -0.5866 -0.3523
 5949TIP3   OH239261   1.736   1.426  15.047  0.5632 -0.3631  0.8165
 5949TIP3    H139262   1.686   1.460  14.973  1.4219  2.7375  1.6044
 5949TIP3    H239263   1.671   1.385  15.104 -1.2216  3.8842  2.0041
 5950TIP3   OH239264   1.377   6.636  13.296  0.0430 -0.9473 -0.2258
 5950TIP3    H139265   1.356   6.667  13.208 -0.2453 -0.8838 -0.1352
 5950TIP3    H239266   1.345   6.705  13.354 -0.4192 -1.3182 -0.0331
 5951TIP3   OH239267   1.561   4.965  13.786 -0.2294 -0.4039 -0.0103
 5951TIP3    H139268   1.601   4.912  13.855 -0.9949 -0.4246  0.4281
 5951TIP3    H239269   1.503   4.905  13.740  0.8214 -0.5689 -1.1485
 5952TIP3   OH239270   3.800   6.065  11.595 -0.2272 -0.2305 -0.6171
 5952TIP3    H139271   3.746   6.003  11.645 -0.1735  0.1855 -0.0359
 5952TIP3    H239272   3.888   6.027  11.598 -0.2156 -0.1845 -0.3629
 5953TIP3   OH239273   3.248   4.827  12.198  0.5364  0.1541 -0.2195
 5953TIP3    H139274   3.203   4.766  12.141  1.9268  0.3197 -1.5152
 5953TIP3    H239275   3.296   4.772  12.260 -0.3977 -0.0313  0.3456
 5954TIP3   OH239276   2.969   0.318   0.346 -0.1653  0.0015  0.1701
 5954TIP3    H139277   3.063   0.316   0.363 -0.0244  0.1722 -0.5791
 5954TIP3    H239278   2.956   0.394   0.289 -0.2713 -2.0534 -2.6603
 5955TIP3   OH239279   0.363   5.356   2.017  0.4629  0.2593 -0.1659
 5955TIP3    H139280   0.317   5.278   1.987  0.5827 -0.3955  1.3120
 5955TIP3    H239281   0.321   5.380   2.099  1.8024  0.5027  0.4736
 5956TIP3   OH239282   3.016   0.430  14.228 -0.1724 -0.6630 -0.1610
 5956TIP3    H139283   2.929   0.405  14.197 -0.1516 -0.7919 -0.1152
 5956TIP3    H239284   3.017   0.405  14.320 -0.2014 -0.3613 -0.0785
 5957TIP3   OH239285   3.201   5.071  14.122  0.3308  0.0452 -0.6018
 5957TIP3    H139286   3.183   4.983  14.087  1.1034 -0.7972  1.0569
 5957TIP3    H239287   3.213   5.125  14.044 -0.3859 -1.2687 -1.6587
 5958TIP3   OH239288   2.937   6.934  13.030  0.2328 -0.0034  0.1366
 5958TIP3    H139289   3.028   6.907  13.016 -0.0483 -0.4028 -0.9984
 5958TIP3    H239290   2.944   7.021  13.069  1.1060  0.6650 -1.4521
 5959TIP3   OH239291   3.921   2.112  12.413  0.1653  0.2427 -0.7692
 5959TIP3    H139292   3.873   2.182  12.458 -0.5001 -0.2819 -0.6659
 5959TIP3    H239293   3.967   2.157  12.342 -0.2750  0.7835 -0.7177
 5960TIP3   OH239294   3.980   5.232  12.269 -0.5463  0.5353  0.2316
 5960TIP3    H139295   3.950   5.252  12.180  0.3767  0.8678 -0.0030
 5960TIP3    H239296   4.047   5.165  12.257 -1.6771 -0.7301  0.8156
 5961TIP3   OH239297   2.324   4.537  10.562  0.5872  0.3454  0.4536
 5961TIP3    H139298   2.373   4.618  10.573  1.1097  0.2245 -0.9320
 5961TIP3    H239299   2.251   4.561  10.504  0.6600 -0.1371  0.1585
 5962TIP3   OH239300   2.270   7.204  14.036 -0.3217 -0.5482  0.2852
 5962TIP3    H139301   2.309   7.281  14.078 -0.8367  0.1049 -0.4219
 5962TIP3    H239302   2.182   7.233  14.011 -0.6292 -1.4657  0.2858
 5963TIP3   OH239303   2.663   6.245  13.120  0.1709 -0.5161  0.3542
 5963TIP3    H139304   2.744   6.293  13.104 -1.1051  0.8300 -2.3556
 5963TIP3    H239305   2.599   6.313  13.145 -0.3917 -1.4244  1.4243
 5964TIP3   OH239306   5.086   3.053  13.401 -0.1013  0.2248 -0.7638
 5964TIP3    H139307   5.160   2.997  13.379 -0.9803 -1.0155 -0.6125
 5964TIP3    H239308   5.125   3.131  13.441  1.0402 -0.9682  0.4721
 5965TIP3   OH239309   6.174   6.844  13.174 -0.2956  0.5544 -0.5065
 5965TIP3    H139310   6.080   6.859  13.164 -0.3273  3.3758  2.7279
 5965TIP3    H239311   6.215   6.918  13.129  0.2891  0.2357 -0.5020
 5966TIP3   OH239312   2.945   0.758  14.348 -0.3695  0.3426 -0.4761
 5966TIP3    H139313   2.942   0.844  14.389 -0.0685  1.2347 -2.2762
 5966TIP3    H239314   3.035   0.750  14.317  0.4082 -1.8277  2.1313
 5967TIP3   OH239315   3.872   6.886   1.005 -0.0527  0.0327  0.8593
 5967TIP3    H139316   3.920   6.837   1.071 -1.7036 -0.4762  1.7136
 5967TIP3    H239317   3.865   6.827   0.930 -0.6684 -0.4628  1.3039
 5968TIP3   OH239318   4.160   5.098  13.734 -0.1614  0.2184 -0.2741
 5968TIP3    H139319   4.206   5.153  13.798 -0.4909  1.3288 -0.9776
 5968TIP3    H239320   4.134   5.021  13.784 -1.8091  1.7699  1.3639
 5969TIP3   OH239321   4.468   5.693  11.828 -0.2579  0.1576 -0.0961
 5969TIP3    H139322   4.473   5.781  11.865 -0.3447 -0.4749  1.4280
 5969TIP3    H239323   4.554   5.678  11.790 -0.5489  1.2735 -1.2346
 5970TIP3   OH239324   1.603   4.365  10.919  0.1590 -0.4131  0.7786
 5970TIP3    H139325   1.582   4.365  11.012  2.3082 -0.8860  1.3088
 5970TIP3    H239326   1.680   4.307  10.912  0.4034  0.0923 -1.1921
 5971TIP3   OH239327   3.903   4.818   0.892 -0.5073 -0.7627  0.4513
 5971TIP3    H139328   3.825   4.824   0.836 -0.6189 -1.2483  0.5544
 5971TIP3    H239329   3.962   4.760   0.844  0.0004  0.0090  0.1326
 5972TIP3   OH239330   1.534   5.958  13.595  0.1304  0.0566 -0.6356
 5972TIP3    H139331   1.548   5.961  13.501 -0.6720 -1.1961 -0.8080
 5972TIP3    H239332   1.479   6.034  13.614  1.2604  0.9703 -0.9970
 5973TIP3   OH239333   1.210   6.901  14.110  0.6491 -0.1048  0.2824
 5973TIP3    H139334   1.250   6.910  14.023  0.3249  0.3601  0.1791
 5973TIP3    H239335   1.250   6.823  14.147 -0.7297 -1.5081 -1.1116
 5974TIP3   OH239336   1.380   7.181  12.447 -0.0560  0.8644  0.8169
 5974TIP3    H139337   1.310   7.234  12.486 -0.8376  0.3709  0.1091
 5974TIP3    H239338   1.338   7.138  12.373  1.0681  0.7466  0.2403
 5975TIP3   OH239339   1.662   4.364  13.982 -0.1583  0.4671 -0.4299
 5975TIP3    H139340   1.619   4.285  13.949 -0.2928 -0.1387  1.1490
 5975TIP3    H239341   1.603   4.397  14.050  0.6338  1.0658 -0.0230
 5976TIP3   OH239342   0.737   4.343  14.510 -0.3188  0.0073 -0.3805
 5976TIP3    H139343   0.795   4.378  14.442 -0.0454 -0.6270 -0.4813
 5976TIP3    H239344   0.664   4.304  14.462 -1.9191  2.6784 -0.1851
 5977TIP3   OH239345   1.175   5.818  14.127  0.2548 -0.2414 -0.4565
 5977TIP3    H139346   1.123   5.853  14.200  0.5451 -2.0747  0.6391
 5977TIP3    H239347   1.110   5.799  14.059 -0.3454 -1.1357  0.3557
 5978TIP3   OH239348   3.447   2.740  13.927  0.2024 -0.3661 -0.0565
 5978TIP3    H139349   3.475   2.762  14.016 -2.3206  0.6745  0.5221
 5978TIP3    H239350   3.522   2.696  13.889  1.3324 -0.8764  2.6148
 5979TIP3   OH239351   0.069   0.911  15.559 -0.3646  0.4662 -0.0495
 5979TIP3    H139352   0.140   0.871  15.609 -0.5360 -0.0204 -0.1847
 5979TIP3    H239353   0.105   0.923  15.471 -0.5880 -0.1995 -0.2394
 5980TIP3   OH239354   2.933   5.742  13.630  0.7300  0.1857 -0.2313
 5980TIP3    H139355   2.872   5.803  13.589 -1.0299 -1.0243  0.5278
 5980TIP3    H239356   2.883   5.702  13.702  2.5542 -0.4955  0.6971
 5981TIP3   OH239357   5.580   6.940  13.425  0.0988 -1.0035 -0.3870
 5981TIP3    H139358   5.552   6.849  13.426 -0.5267 -0.8097 -0.1060
 5981TIP3    H239359   5.550   6.973  13.340  0.0877 -0.9874 -0.3761
 5982TIP3   OH239360   3.230   0.668  15.376 -0.1874 -0.3094  0.3142
 5982TIP3    H139361   3.221   0.594  15.437  0.5095 -0.3779  0.3444
 5982TIP3    H239362   3.317   0.704  15.396 -0.6451  0.7028  0.5029
 5983TIP3   OH239363   3.023   1.691  15.571 -0.8910 -0.3847 -0.7605
 5983TIP3    H139364   3.024   1.623  15.503 -3.6081  1.1517 -2.4413
 5983TIP3    H239365   2.989   1.768  15.527 -0.0449  1.4410  1.7024
 5984TIP3   OH239366   6.427   6.442  12.795 -0.0635 -0.1429 -0.3100
 5984TIP3    H139367   6.441   6.531  12.765  0.1773  0.0648  0.4173
 5984TIP3    H239368   6.500   6.424  12.854 -0.1058 -0.8209 -0.4565
 5985TIP3   OH239369   4.197   5.895  10.378  0.0953  0.0518  1.0577
 5985TIP3    H139370   4.148   5.977  10.367  3.0355  1.6189 -1.0402
 5985TIP3    H239371   4.165   5.839  10.307  0.2819  0.5067  0.6140
 5986TIP3   OH239372   5.426   0.792  10.629  0.4119  0.4829 -0.6641
 5986TIP3    H139373   5.352   0.852  10.636  0.1210  0.0247  0.3220
 5986TIP3    H239374   5.388   0.712  10.593  0.4458  0.2941 -0.2857
 5987TIP3   OH239375   0.658   6.363  10.329  0.5192  0.5065 -0.7835
 5987TIP3    H139376   0.721   6.313  10.278 -0.6831 -0.1234 -1.6630
 5987TIP3    H239377   0.595   6.396  10.264 -0.2196  0.8798  0.1122
 5988TIP3   OH239378   6.967   3.381  13.832 -0.0362 -0.0996  0.3204
 5988TIP3    H139379   6.918   3.300  13.814  0.8278 -0.7623  0.9257
 5988TIP3    H239380   7.025   3.391  13.757  0.6317 -0.6318  0.7654
 5989TIP3   OH239381   0.312   6.296  13.137  0.5751  0.4582  0.8717
 5989TIP3    H139382   0.300   6.202  13.127  1.2383  0.4609  0.0372
 5989TIP3    H239383   0.240   6.323  13.194  0.3779 -0.5471  1.1104
 5990TIP3   OH239384   4.313   4.443  12.072  0.5256  0.3502 -0.3637
 5990TIP3    H139385   4.371   4.485  12.135  1.4733 -0.8862 -0.4156
 5990TIP3    H239386   4.364   4.371  12.036 -1.0743 -0.8282 -0.3178
 5991TIP3   OH239387   4.924   5.561  11.878  0.0385  0.4374 -0.4471
 5991TIP3    H139388   4.894   5.481  11.922  0.4161  0.6899  0.2720
 5991TIP3    H239389   4.880   5.559  11.793  0.4565 -0.7980 -0.6368
 5992TIP3   OH239390   4.197   5.659  10.564  0.7249  0.2807 -0.1863
 5992TIP3    H139391   4.223   5.741  10.520 -0.8118  0.1604 -1.3411
 5992TIP3    H239392   4.114   5.635  10.523  1.0405 -1.7388  0.3345
 5993TIP3   OH239393   1.423   2.070  14.486  0.2321 -0.1110  0.0255
 5993TIP3    H139394   1.381   2.091  14.403  0.8118 -0.0332 -0.2556
 5993TIP3    H239395   1.355   2.028  14.539 -0.7901  1.9309  0.3780
 5994TIP3   OH239396   1.977   5.923  11.776 -0.2939  0.1024  0.0326
 5994TIP3    H139397   2.054   5.867  11.776  2.3133  3.5353  0.8065
 5994TIP3    H239398   1.956   5.937  11.684  1.2612  0.7559 -0.2253
 5995TIP3   OH239399   6.813   4.903  11.816 -0.3730 -0.0397  0.2585
 5995TIP3    H139400   6.888   4.895  11.757 -0.2169 -0.4562  0.5111
 5995TIP3    H239401   6.743   4.940  11.762  0.3490  1.4131  0.2995
 5996TIP3   OH239402   1.185   1.343  13.715  0.0080 -0.8966  0.0416
 5996TIP3    H139403   1.091   1.354  13.732 -0.1837 -1.9875 -0.3135
 5996TIP3    H239404   1.196   1.249  13.700  0.8053 -0.5099 -2.0233
 5997TIP3   OH239405   2.723   6.201  13.440  0.1944 -0.5021  0.0233
 5997TIP3    H139406   2.769   6.134  13.389  2.1432  0.3596  0.6090
 5997TIP3    H239407   2.781   6.276  13.440 -1.6831  1.0043 -0.0664
 5998TIP3   OH239408   3.454   1.877  12.883 -0.0426 -0.3161 -0.4361
 5998TIP3    H139409   3.516   1.808  12.903  1.4701  0.8143 -1.1261
 5998TIP3    H239410   3.390   1.874  12.955 -0.7582 -3.2454 -1.1218
 5999TIP3   OH239411   6.855   6.930  12.928 -0.7364  0.0286 -0.2530
 5999TIP3    H139412   6.888   6.970  12.848 -1.1838  1.5745  0.3155
 5999TIP3    H239413   6.899   6.977  12.998 -1.1880 -0.5567  0.4219
 6000TIP3   OH239414   0.988   3.882  11.864 -0.2552  0.5929 -0.1852
 6000TIP3    H139415   1.021   3.876  11.774 -0.4675  0.0218 -0.2228
 6000TIP3    H239416   1.060   3.852  11.918 -0.2674  0.5587 -0.1873
 6001TIP3   OH239417   5.685   6.554  12.847 -0.3846  0.3359  0.2711
 6001TIP3    H139418   5.662   6.636  12.890 -0.4940  0.2060  0.4612
 6001TIP3    H239419   5.781   6.552  12.849 -0.3504  0.9064 -0.5808
 6002TIP3   OH239420   4.143   4.356  11.515 -0.0636 -0.4314  0.3223
 6002TIP3    H139421   4.053   4.325  11.526 -0.7065  1.9470  2.3226
 6002TIP3    H239422   4.138   4.419  11.444  0.4295 -1.7782 -0.9197
 6003TIP3   OH239423   1.724   0.315  14.234  0.1623 -0.3934  0.0540
 6003TIP3    H139424   1.718   0.378  14.163 -0.4536 -0.6846 -0.1525
 6003TIP3    H239425   1.665   0.349  14.301  0.9840  0.0494  0.5613
 6004TIP3   OH239426   6.070   2.181  14.114 -0.4853 -0.3063 -0.2744
 6004TIP3    H139427   6.059   2.199  14.207  0.1307 -0.1687 -0.2289
 6004TIP3    H239428   6.084   2.086  14.110  1.5416 -0.0267 -0.0373
 6005TIP3   OH239429   4.465   2.486  12.782 -0.0319 -0.5943  0.4742
 6005TIP3    H139430   4.433   2.400  12.810  0.6868 -0.9861  0.1223
 6005TIP3    H239431   4.473   2.479  12.687 -1.8332  0.5137  0.2318
 6006TIP3   OH239432   0.102   5.186  13.110  0.2024  0.6267 -0.7397
 6006TIP3    H139433   0.039   5.116  13.129  0.3675  0.3383 -1.2524
 6006TIP3    H239434   0.079   5.216  13.022  1.5504 -0.3249 -1.4329
 6007TIP3   OH239435   2.557   4.465  11.220  0.0771 -0.2272 -0.1961
 6007TIP3    H139436   2.500   4.489  11.146  0.0534  0.4131  0.0253
 6007TIP3    H239437   2.636   4.517  11.206  0.4982 -0.9134 -0.3552
 6008TIP3   OH239438   2.862   1.987  13.353  0.2276  0.1234  0.2675
 6008TIP3    H139439   2.862   2.048  13.426 -0.1577  0.2531  0.1595
 6008TIP3    H239440   2.939   1.932  13.367 -1.3791 -1.7018  2.3231
 6009TIP3   OH239441   4.083   7.253   0.751 -0.4430  0.0676 -0.6220
 6009TIP3    H139442   4.101   7.264   0.844 -2.1169  0.5941 -0.3492
 6009TIP3    H239443   3.988   7.244   0.745 -0.1573 -2.7404 -2.0052
 6010TIP3   OH239444   1.274   4.752  13.400  0.0288  0.4610 -0.7891
 6010TIP3    H139445   1.204   4.713  13.452 -0.6513  1.1730 -1.1556
 6010TIP3    H239446   1.230   4.818  13.346  1.1457  1.7512 -0.1560
 6011TIP3   OH239447   3.089   6.453  14.436  0.4402  0.6239 -0.1009
 6011TIP3    H139448   3.019   6.392  14.413  0.8329  0.1235  0.0148
 6011TIP3    H239449   3.044   6.530  14.469 -0.0428 -0.9267  3.1445
 6012TIP3   OH239450   2.088   6.364  10.777  0.1303 -0.2967  0.4297
 6012TIP3    H139451   2.003   6.375  10.734  0.6534  0.4265 -0.4302
 6012TIP3    H239452   2.127   6.451  10.775  1.5958 -0.9668 -0.6698
 6013TIP3   OH239453   6.816   4.297  13.762  0.5783 -0.2632 -0.3150
 6013TIP3    H139454   6.781   4.281  13.674  1.5517  1.7399 -1.0958
 6013TIP3    H239455   6.906   4.263  13.757 -0.1503 -2.4116  0.6888
 6014TIP3   OH239456   2.919   0.915   0.279 -0.9112 -0.7448  0.0977
 6014TIP3    H139457   2.947   0.906   0.370 -0.1648 -0.4335 -0.0953
 6014TIP3    H239458   2.988   0.966   0.237 -1.7117 -0.0706 -0.4285
 6015TIP3   OH239459   1.941   1.896  10.447 -0.0231  0.4819  0.1191
 6015TIP3    H139460   2.021   1.948  10.444  0.1278  0.2583  0.2362
 6015TIP3    H239461   1.880   1.942  10.389  0.6559 -0.1380 -1.1192
 6016TIP3   OH239462   3.373   4.725  11.093  0.0123  0.4616 -0.0905
 6016TIP3    H139463   3.407   4.744  11.181 -0.1144  0.9026 -0.1347
 6016TIP3    H239464   3.448   4.694  11.044  0.3388  1.3706 -0.1690
 6017TIP3   OH239465   5.786   4.978  11.797  0.0250  0.0923 -0.0272
 6017TIP3    H139466   5.701   5.019  11.783  0.2138  0.5298  0.0848
 6017TIP3    H239467   5.808   4.937  11.714  0.8017  2.0345 -0.8187
 6018TIP3   OH239468   0.084   5.533  13.339  0.3929 -0.6287 -0.3921
 6018TIP3    H139469   0.133   5.503  13.262  1.1707  1.1329 -0.6033
 6018TIP3    H239470   0.020   5.464  13.355 -1.3943  0.0489 -4.0725
 6019TIP3   OH239471   5.815   1.846  15.429 -0.4367  0.2198 -0.2173
 6019TIP3    H139472   5.735   1.796  15.413 -0.7667  0.5354  0.4082
 6019TIP3    H239473   5.848   1.867  15.341 -1.6041  0.9713 -0.4990
 6020TIP3   OH239474   2.948   6.213  13.027  0.2285 -0.7926  0.0085
 6020TIP3    H139475   2.950   6.156  12.950 -1.9999 -0.8768  0.0059
 6020TIP3    H239476   2.944   6.302  12.990  1.9185 -0.6872  0.0300
 6021TIP3   OH239477   1.684   0.320  14.766  0.0271 -0.4004  0.5041
 6021TIP3    H139478   1.732   0.300  14.846 -0.3772 -0.5221  0.7162
 6021TIP3    H239479   1.592   0.308  14.789 -0.0796 -0.6632 -0.0406
 6022TIP3   OH239480   6.512   5.038  14.964 -0.6315  0.2154 -0.0178
 6022TIP3    H139481   6.507   5.019  15.057 -2.5308 -0.5464 -0.2551
 6022TIP3    H239482   6.543   5.129  14.959 -1.2716  0.5085  1.3585
 6023TIP3   OH239483   5.132   2.095  11.415  0.3100 -0.0697 -0.0546
 6023TIP3    H139484   5.189   2.142  11.354  1.1380 -0.9594  0.0239
 6023TIP3    H239485   5.166   2.115  11.502  0.6355 -0.7606 -0.0183
 6024TIP3   OH239486   1.684   4.443  13.032  0.9979 -0.3814 -0.5199
 6024TIP3    H139487   1.623   4.516  13.037  0.3382 -0.7671 -2.4561
 6024TIP3    H239488   1.719   4.435  13.121 -0.9649  0.5165  0.3751
 6025TIP3   OH239489   7.173   6.723  14.355 -0.1056  0.2366 -0.0682
 6025TIP3    H139490   7.124   6.642  14.368  0.0436  0.2060  0.3252
 6025TIP3    H239491   7.247   6.716  14.415  2.2767 -1.2103 -3.0541
 6026TIP3   OH239492   2.675   2.255  12.669  0.8744  0.1179 -0.5651
 6026TIP3    H139493   2.622   2.334  12.661  0.6280 -0.1402 -1.7354
 6026TIP3    H239494   2.660   2.225  12.758  0.0915  0.7860 -0.4621
 6027TIP3   OH239495   6.434   0.367   0.789 -0.5878 -0.5086  0.1621
 6027TIP3    H139496   6.346   0.335   0.809 -1.7791  2.1363 -0.7183
 6027TIP3    H239497   6.439   0.366   0.694 -0.3074  0.9654  0.1460
 6028TIP3   OH239498   4.592   7.149  10.346 -0.4028 -0.1728 -0.2920
 6028TIP3    H139499   4.667   7.196  10.309  0.1391 -0.8602 -0.0780
 6028TIP3    H239500   4.546   7.215  10.399 -0.0550  0.2987 -0.5739
 6029TIP3   OH239501   2.951   3.086  13.058 -0.8835  0.1959  0.2272
 6029TIP3    H139502   2.987   3.042  13.135  0.9805  0.9372 -0.1851
 6029TIP3    H239503   2.861   3.053  13.051 -1.5415  1.0994  3.4809
 6030TIP3   OH239504   5.558   4.231  12.122  0.1902  0.1178 -0.6493
 6030TIP3    H139505   5.650   4.214  12.141  0.8994  2.0395 -2.1723
 6030TIP3    H239506   5.549   4.326  12.131 -1.6963 -0.0765 -0.3080
 6031TIP3   OH239507   3.217   1.714  14.367  0.0485  0.1811 -0.7977
 6031TIP3    H139508   3.301   1.744  14.404 -0.2793  0.3602 -0.1944
 6031TIP3    H239509   3.234   1.624  14.340  0.1393 -0.1403  0.3082
 6032TIP3   OH239510   5.021   5.306  13.604  0.3607 -0.5883 -0.3760
 6032TIP3    H139511   5.108   5.305  13.645  0.4174 -2.2691 -0.5141
 6032TIP3    H239512   4.983   5.390  13.630  2.6544  0.9017 -1.6108
 6033TIP3   OH239513   1.029   4.634  13.328 -0.0720  0.4817 -0.1916
 6033TIP3    H139514   1.083   4.555  13.325  0.8966  1.1716 -2.7115
 6033TIP3    H239515   0.988   4.632  13.415  0.2921 -2.5114 -0.0239
 6034TIP3   OH239516   2.206   4.123  13.268  0.0605  0.0219 -0.2242
 6034TIP3    H139517   2.256   4.041  13.278  0.0663  0.1129  0.5376
 6034TIP3    H239518   2.135   4.100  13.209  1.3669  0.0534 -1.8564
 6035TIP3   OH239519   4.862   0.317  11.783  0.4720  0.0290  0.1253
 6035TIP3    H139520   4.891   0.348  11.697 -0.8308  0.3826 -0.2009
 6035TIP3    H239521   4.797   0.249  11.764  2.7860 -2.4689  0.8486
 6036TIP3   OH239522   5.357   1.595  12.449 -0.3709  0.2068  0.2211
 6036TIP3    H139523   5.352   1.552  12.535  0.0606  0.7574  0.5284
 6036TIP3    H239524   5.448   1.624  12.443 -0.3054 -0.1592 -0.5888
 6037TIP3   OH239525   4.475   7.096  13.447 -0.2586 -0.1277  0.2092
 6037TIP3    H139526   4.472   7.093  13.351 -0.2988  0.3070  0.1963
 6037TIP3    H239527   4.539   7.165  13.466 -0.9233  0.4036  0.5021
 6038TIP3   OH239528   0.991   1.137  10.947  0.0647  0.4045  0.2701
 6038TIP3    H139529   1.074   1.104  10.979 -0.0322  0.2470  0.3599
 6038TIP3    H239530   1.014   1.211  10.892  0.2807  0.2034  0.0920
 6039TIP3   OH239531   3.742   4.173  12.756  0.4548 -0.2468  0.6778
 6039TIP3    H139532   3.768   4.163  12.847  0.2287  2.7764  1.1179
 6039TIP3    H239533   3.712   4.264  12.749 -3.1318 -1.4873 -1.5171
 6040TIP3   OH239534   7.260   5.135  12.197 -0.3483  0.4188  0.3510
 6040TIP3    H139535   7.210   5.137  12.116 -0.9207  0.1046  0.6906
 6040TIP3    H239536   7.266   5.041  12.219  0.0634  0.4807  0.5082
 6041TIP3   OH239537   3.477   6.302  12.061 -0.0076 -0.2846 -0.3017
 6041TIP3    H139538   3.567   6.284  12.034 -0.0287 -0.6759 -0.1142
 6041TIP3    H239539   3.460   6.391  12.028  1.2823  0.8002  1.7982
 6042TIP3   OH239540   6.109   5.074  11.421  0.3828  0.7002  0.3797
 6042TIP3    H139541   6.030   5.126  11.406  0.1546  0.3208  0.2537
 6042TIP3    H239542   6.145   5.059  11.333  1.7233  2.6054  0.5854
 6043TIP3   OH239543   0.781   6.983  14.190  0.0008  0.3302 -0.0442
 6043TIP3    H139544   0.865   6.986  14.235 -0.1385 -0.7688  0.2963
 6043TIP3    H239545   0.726   7.043  14.239  0.4213  0.6288  0.0674
 6044TIP3   OH239546   4.520   0.131  14.469 -0.0665 -0.0727  0.1189
 6044TIP3    H139547   4.616   0.139  14.466 -0.1581  1.9661  1.5505
 6044TIP3    H239548   4.490   0.179  14.392  0.0138  0.1822  0.2461
 6045TIP3   OH239549   5.861   5.836  12.121 -0.3954  0.0420 -0.2529
 6045TIP3    H139550   5.827   5.916  12.162 -2.8690 -1.1646  0.0921
 6045TIP3    H239551   5.857   5.770  12.190 -1.8276 -1.2870 -1.5888
 6046TIP3   OH239552   0.301   3.688  13.051 -0.2701 -0.0616 -0.0022
 6046TIP3    H139553   0.385   3.657  13.018 -1.4930 -2.9103 -0.6602
 6046TIP3    H239554   0.295   3.655  13.140 -1.2520 -1.0918 -0.4293
 6047TIP3   OH239555   6.630   4.620  13.541 -0.3672 -0.0775  0.4119
 6047TIP3    H139556   6.662   4.660  13.622  0.0525 -3.5310  2.0592
 6047TIP3    H239557   6.542   4.590  13.562  0.1453 -1.9633 -0.0037
 6048TIP3   OH239558   5.949   6.442  11.401  0.2670  0.6316  1.0635
 6048TIP3    H139559   5.882   6.500  11.364 -0.0302 -1.1421 -1.3531
 6048TIP3    H239560   5.924   6.433  11.493 -2.7197  0.2251  0.2831
 6049TIP3   OH239561   6.721   5.055  12.013  0.6190  0.4603 -0.4645
 6049TIP3    H139562   6.712   4.987  12.079 -0.7158  1.1505  0.0824
 6049TIP3    H239563   6.751   5.009  11.934  0.0171 -0.7135 -0.0177
 6050TIP3   OH239564   0.677   6.741  14.274 -0.0299 -0.3707 -0.6555
 6050TIP3    H139565   0.754   6.736  14.330 -2.0078  0.2774  2.2486
 6050TIP3    H239566   0.689   6.820  14.221  2.5895 -1.8309 -2.3689
 6051TIP3   OH239567   6.005   3.908  12.872  0.2107 -1.1975  0.7372
 6051TIP3    H139568   6.085   3.893  12.923  0.7738  0.1273  0.2718
 6051TIP3    H239569   5.985   4.001  12.885 -0.3589 -1.1464 -0.4041
 6052TIP3   OH239570   0.361   6.969  12.698 -0.5103  0.1375  0.0764
 6052TIP3    H139571   0.269   6.981  12.675 -0.5812  1.1534  0.8173
 6052TIP3    H239572   0.361   6.961  12.793  0.0612 -0.9635 -0.0165
 6053TIP3   OH239573   4.965   4.110  11.306  0.0097 -0.3784  0.4386
 6053TIP3    H139574   4.966   4.030  11.358  1.5031 -0.2295  0.6510
 6053TIP3    H239575   4.872   4.128  11.292 -0.3353 -2.3875  0.0116
 6054TIP3   OH239576   5.894   7.157  13.899  0.9709 -0.0571 -0.0932
 6054TIP3    H139577   5.812   7.125  13.861 -1.1141  1.1152  3.1916
 6054TIP3    H239578   5.957   7.087  13.883 -0.6460 -0.9666 -2.7239
 6055TIP3   OH239579   4.096   6.345  13.248 -0.7320  0.7420  0.1489
 6055TIP3    H139580   4.088   6.409  13.177  1.4200  1.1973  0.2793
 6055TIP3    H239581   4.112   6.398  13.326 -1.7918  0.1657  0.7708
 6056TIP3   OH239582   5.452   4.721  11.182  0.0246  0.0522 -0.1077
 6056TIP3    H139583   5.391   4.741  11.253 -0.4877  1.1325 -0.8337
 6056TIP3    H239584   5.473   4.806  11.145  2.3350 -0.2713  0.4082
 6057TIP3   OH239585   4.253   6.437  12.826  0.2978  0.6450 -0.0303
 6057TIP3    H139586   4.297   6.522  12.825 -1.5010  1.6665  2.4140
 6057TIP3    H239587   4.319   6.376  12.859  1.3893  1.1884 -1.1492
 6058TIP3   OH239588   2.296   0.703   0.725  0.0509  0.1452  0.8796
 6058TIP3    H139589   2.225   0.647   0.756  1.0412 -1.2894  0.6336
 6058TIP3    H239590   2.362   0.698   0.794 -0.2173  1.7532  1.2663
 6059TIP3   OH239591   4.829   0.083  15.168 -0.0962 -0.0932  0.1091
 6059TIP3    H139592   4.853   0.153  15.228 -0.9628 -0.5408  0.9852
 6059TIP3    H239593   4.890   0.093  15.094  1.8570 -0.3522  1.6394
 6060TIP3   OH239594   5.894   0.644  13.934  0.3100 -0.3989  0.2583
 6060TIP3    H139595   5.809   0.616  13.900  0.6610 -0.4419 -0.6012
 6060TIP3    H239596   5.900   0.605  14.021  0.1658 -1.7839 -0.3508
 6061TIP3   OH239597   5.568   0.617  13.223 -0.6902  0.6773 -0.1609
 6061TIP3    H139598   5.601   0.697  13.264  2.0616 -1.7071  2.4923
 6061TIP3    H239599   5.503   0.584  13.285  0.3301 -0.6633  0.2236
 6062TIP3   OH239600   3.467   3.103  11.171  0.2175 -0.6649  0.8091
 6062TIP3    H139601   3.423   3.048  11.235 -1.9179  0.0798  0.0064
 6062TIP3    H239602   3.545   3.053  11.147  0.0831 -1.7813  2.6005
 6063TIP3   OH239603   2.588   1.505  14.732 -0.1519  0.0917 -0.0233
 6063TIP3    H139604   2.633   1.522  14.649 -0.7119  1.4001 -0.0756
 6063TIP3    H239605   2.514   1.449  14.708  1.0202 -1.4843 -0.0399
 6064TIP3   OH239606   0.432   6.934  14.767  0.1273  0.3142 -0.1312
 6064TIP3    H139607   0.452   7.027  14.758  0.9704  0.2099  0.5855
 6064TIP3    H239608   0.404   6.907  14.680 -1.0851  1.4648 -0.1148
 6065TIP3   OH239609   3.593   1.415  14.422 -0.6091 -0.5378 -0.0344
 6065TIP3    H139610   3.601   1.394  14.515  0.1354 -1.4433 -0.3008
 6065TIP3    H239611   3.629   1.503  14.414 -0.2467 -0.6398  0.4515
 6066TIP3   OH239612   5.490   3.715  10.758  0.5607 -0.4637 -0.1886
 6066TIP3    H139613   5.547   3.678  10.691  1.1229 -0.1119  0.0894
 6066TIP3    H239614   5.461   3.639  10.809  1.2780 -0.5815  0.0514
 6067TIP3   OH239615   2.432   1.765  12.592 -0.3173 -0.0425  0.1260
 6067TIP3    H139616   2.340   1.789  12.576 -0.1139  2.1618  2.0801
 6067TIP3    H239617   2.429   1.711  12.670  0.0390 -0.0927  0.1051
 6068TIP3   OH239618   3.361   5.734  14.156  0.5035  0.2613  0.0381
 6068TIP3    H139619   3.317   5.669  14.210 -0.8608  0.3937 -0.8854
 6068TIP3    H239620   3.364   5.695  14.069 -0.8499  1.6588 -0.6509
 6069TIP3   OH239621   3.806   0.201  12.170 -0.0974  0.1344  0.2769
 6069TIP3    H139622   3.795   0.245  12.254 -1.0017  1.6637 -0.6105
 6069TIP3    H239623   3.718   0.168  12.149 -0.7568  3.0224 -1.7875
 6070TIP3   OH239624   0.997   6.032  14.627  0.0403 -0.2312 -0.6355
 6070TIP3    H139625   1.040   6.075  14.701  1.2238 -0.7639 -1.0036
 6070TIP3    H239626   1.042   6.067  14.550 -1.5249  0.6996 -1.1396
 6071TIP3   OH239627   5.484   1.529   1.137  1.3767  0.3379  0.2507
 6071TIP3    H139628   5.563   1.519   1.190  1.6219  0.1364 -0.1431
 6071TIP3    H239629   5.423   1.577   1.192  1.0256 -1.3127  1.3454
 6072TIP3   OH239630   2.051   0.216  15.987 -0.2562 -0.2449  0.4416
 6072TIP3    H139631   2.135   0.175  16.003  1.0810  1.4307 -1.9388
 6072TIP3    H239632   2.051   0.294  16.043  0.4112  0.5402 -0.6403
 6073TIP3   OH239633   6.553   2.282  12.278 -0.0101 -0.0811  0.0937
 6073TIP3    H139634   6.602   2.360  12.251  0.3062 -0.0976  0.6108
 6073TIP3    H239635   6.585   2.213  12.220  1.6454 -0.4249  1.3636
 6074TIP3   OH239636   3.474   1.038  14.553 -0.4789 -0.4147  0.8577
 6074TIP3    H139637   3.472   1.082  14.638 -0.0494  0.8396  0.2338
 6074TIP3    H239638   3.565   1.011  14.542 -0.6751 -1.1826  1.0931
 6075TIP3   OH239639   6.313   0.818  14.867  0.5052  0.6333 -0.3452
 6075TIP3    H139640   6.305   0.730  14.903  0.2190 -0.3792 -2.7373
 6075TIP3    H239641   6.407   0.832  14.859  0.6785  1.9382  3.1568
 6076TIP3   OH239642   5.620   1.040  14.034  0.9786  0.0188  0.8961
 6076TIP3    H139643   5.549   1.101  14.011 -1.8841 -3.3438  0.2834
 6076TIP3    H239644   5.588   0.995  14.112  2.2752 -1.7824  0.4171
 6077TIP3   OH239645   1.286   6.686  12.671  0.4404  0.5996 -0.4327
 6077TIP3    H139646   1.228   6.611  12.663 -0.9864  1.5854  0.4707
 6077TIP3    H239647   1.366   6.651  12.710 -0.4902 -0.3306  0.6715
 6078TIP3   OH239648   5.205   2.873  15.503  0.3409 -0.4572  0.2783
 6078TIP3    H139649   5.277   2.857  15.442  0.1846 -1.5624  0.3832
 6078TIP3    H239650   5.190   2.789  15.545 -1.8543 -0.5363 -0.6312
 6079TIP3   OH239651   2.982   5.268  13.556  0.0865 -0.2215 -0.0029
 6079TIP3    H139652   3.052   5.322  13.520  0.0012 -1.2511 -1.7724
 6079TIP3    H239653   2.985   5.187  13.504 -0.2876 -1.6150  2.0617
 6080TIP3   OH239654   7.126   6.461  11.815 -0.1260  0.4457  0.0987
 6080TIP3    H139655   7.154   6.371  11.798 -2.2276  0.0421 -1.3749
 6080TIP3    H239656   7.035   6.465  11.786 -0.5337  2.6729  1.5008
 6081TIP3   OH239657   5.091   2.063  11.932  0.3023 -0.9389 -0.4627
 6081TIP3    H139658   5.016   2.117  11.909  0.8467  0.9834  2.0367
 6081TIP3    H239659   5.151   2.072  11.858 -0.8947 -0.5835 -1.4040
 6082TIP3   OH239660   5.056   5.809  15.583  0.0498  0.0463 -0.1979
 6082TIP3    H139661   4.991   5.864  15.627  1.2234 -0.2992  2.0657
 6082TIP3    H239662   5.034   5.720  15.609 -0.7420 -0.4083 -2.3700
 6083TIP3   OH239663   5.337   6.567  14.331  0.5643  0.1687  0.0005
 6083TIP3    H139664   5.304   6.657  14.327 -0.2231 -0.1331 -0.6014
 6083TIP3    H239665   5.428   6.576  14.359 -0.1317  1.0060  2.1028
 6084TIP3   OH239666   7.148   4.883  11.266 -0.3944 -0.3615 -0.3810
 6084TIP3    H139667   7.110   4.955  11.216 -3.1000 -0.1313  1.8979
 6084TIP3    H239668   7.098   4.882  11.348  2.1734 -2.3814  1.2205
 6085TIP3   OH239669   3.430   6.086  12.231 -0.3328  0.0105  0.3002
 6085TIP3    H139670   3.426   6.156  12.166  2.4563  0.4823  0.5787
 6085TIP3    H239671   3.407   6.129  12.314 -0.8964  0.0768  0.1114
 6086TIP3   OH239672   2.936   1.779  12.494  0.2205 -0.0772 -0.5239
 6086TIP3    H139673   2.939   1.844  12.424  0.0682  1.1569  0.6067
 6086TIP3    H239674   2.862   1.723  12.471 -1.5386  1.9499  0.0422
 6087TIP3   OH239675   4.237   0.038  11.824 -0.5930  0.1460 -0.4442
 6087TIP3    H139676   4.230   0.127  11.857 -0.2716  0.6756 -1.7654
 6087TIP3    H239677   4.302   0.043  11.754 -2.9200 -0.4812 -2.7104
 6088TIP3   OH239678   6.147   5.129  10.111 -1.0715  0.4919  0.1315
 6088TIP3    H139679   6.146   5.079  10.029 -0.5298  0.2872  0.2458
 6088TIP3    H239680   6.086   5.202  10.096  2.1279  2.8641 -1.9751
 6089TIP3   OH239681   3.092   6.907  14.500 -0.0096 -0.3090  0.3272
 6089TIP3    H139682   3.150   6.888  14.574  0.1967 -0.7007  0.0680
 6089TIP3    H239683   3.141   6.968  14.445 -0.3535  0.3485  0.7540
 6090TIP3   OH239684   4.249   6.902  12.492  0.0033  0.2797 -0.1683
 6090TIP3    H139685   4.272   6.862  12.408  0.4076  0.7468 -0.2805
 6090TIP3    H239686   4.180   6.965  12.470  1.0870  1.4094 -0.3656
 6091TIP3   OH239687   4.645   0.828  15.000 -0.4408 -0.2915  0.3717
 6091TIP3    H139688   4.710   0.817  14.931 -1.1697  0.6521 -0.4942
 6091TIP3    H239689   4.609   0.740  15.013 -0.0982 -0.5328 -0.2604
 6092TIP3   OH239690   5.845   2.442  10.931 -0.0965  0.2224  0.3213
 6092TIP3    H139691   5.770   2.386  10.914 -0.3187  0.4483  0.5557
 6092TIP3    H239692   5.880   2.463  10.845  0.2004 -0.5572  0.2424
 6093TIP3   OH239693   6.146   0.485  13.051  0.0691 -0.2188 -0.0857
 6093TIP3    H139694   6.100   0.568  13.061  1.5386  0.7473 -1.1037
 6093TIP3    H239695   6.227   0.496  13.100  1.2786 -0.2073 -2.0105
 6094TIP3   OH239696   7.272   0.477  12.973 -0.2563  0.3196  0.2332
 6094TIP3    H139697   7.181   0.507  12.976 -0.1489  0.7849 -0.9412
 6094TIP3    H239698   7.312   0.515  13.051 -0.6710  1.4592 -0.1015
 6095TIP3   OH239699   2.579   4.650  15.129 -0.5221 -0.1676  0.3847
 6095TIP3    H139700   2.539   4.583  15.186  0.3959 -0.2119  0.9927
 6095TIP3    H239701   2.640   4.696  15.187  0.6779 -0.4379 -0.6562
 6096TIP3   OH239702   4.397   3.800  11.881  0.2328 -0.5311  0.2193
 6096TIP3    H139703   4.472   3.741  11.889  0.2166 -0.8404 -1.5709
 6096TIP3    H239704   4.324   3.742  11.861  0.4205  0.1473 -2.6082
 6097TIP3   OH239705   6.026   0.933  12.971  1.1189  0.4891  0.4414
 6097TIP3    H139706   6.026   1.019  13.012  1.7174  0.5241  0.3857
 6097TIP3    H239707   6.040   0.872  13.043 -0.2620  0.3603  0.6100
 6098TIP3   OH239708   5.457   0.107  12.590 -0.7240 -0.0583  0.2022
 6098TIP3    H139709   5.544   0.081  12.558 -0.8759 -0.9596  0.5067
 6098TIP3    H239710   5.455   0.077  12.681 -1.1655  0.4240  0.3529
 6099TIP3   OH239711   3.245   1.179  13.889  0.0749 -0.1442 -0.1853
 6099TIP3    H139712   3.167   1.135  13.924  0.2202 -0.0954  0.2025
 6099TIP3    H239713   3.318   1.133  13.929  0.2574 -0.4867 -0.9060
 6100TIP3   OH239714   5.302   6.187   0.774 -0.1315  0.4023  0.4091
 6100TIP3    H139715   5.298   6.106   0.826  0.4217  0.3988  0.4502
 6100TIP3    H239716   5.215   6.225   0.783 -0.3107 -0.0455  0.6242
 6101TIP3   OH239717   0.277   3.045  11.991  0.4140 -0.0621  0.2947
 6101TIP3    H139718   0.289   3.043  12.086 -2.2347  0.0184  0.6731
 6101TIP3    H239719   0.290   2.954  11.963 -0.8187 -0.4738  1.0293
 6102TIP3   OH239720   4.975   2.271  12.540  0.3444 -0.0874 -0.1631
 6102TIP3    H139721   4.977   2.351  12.488 -0.3512 -0.9485 -1.5753
 6102TIP3    H239722   5.047   2.280  12.602  1.9282  0.5301 -2.0154
 6103TIP3   OH239723   3.164   1.913  15.262  0.3672  0.1972  0.3619
 6103TIP3    H139724   3.120   1.836  15.227  2.2484 -0.7526  0.0011
 6103TIP3    H239725   3.248   1.879  15.296  1.4065  2.1407 -0.1904
 6104TIP3   OH239726   2.660   4.483  14.682 -0.3081 -0.0525  0.1965
 6104TIP3    H139727   2.669   4.534  14.763  1.0310  0.5856 -0.3288
 6104TIP3    H239728   2.626   4.545  14.618  0.4314 -0.0600 -0.2068
 6105TIP3   OH239729   6.558   5.347  14.930 -0.5850 -0.1359  0.0524
 6105TIP3    H139730   6.466   5.367  14.915 -0.8789 -0.6731  1.0596
 6105TIP3    H239731   6.594   5.427  14.968 -0.8533 -0.2264  0.5023
 6106TIP3   OH239732   4.561   6.264  14.020 -0.2908 -0.2369 -0.0974
 6106TIP3    H139733   4.577   6.273  13.926 -2.3771  3.1490 -0.1947
 6106TIP3    H239734   4.606   6.339  14.060 -1.2843 -0.4001  1.3607
 6107TIP3   OH239735   5.934   2.351  13.446 -0.3650 -0.0970 -0.1011
 6107TIP3    H139736   5.947   2.434  13.401  0.7995 -0.3420 -0.2256
 6107TIP3    H239737   5.965   2.285  13.385 -0.9162 -0.6009  0.1572
 6108TIP3   OH239738   3.724   5.189  13.176 -0.5471  0.6621 -0.2578
 6108TIP3    H139739   3.672   5.255  13.223  0.5166 -0.2422  2.3191
 6108TIP3    H239740   3.809   5.189  13.222 -0.2647 -1.9209 -0.7037
 6109TIP3   OH239741   6.251   3.006  11.020  0.3617 -0.1505  0.0282
 6109TIP3    H139742   6.211   2.949  10.955  0.3701  0.0156 -0.1238
 6109TIP3    H239743   6.211   2.979  11.103 -0.7999  0.6679 -0.2515
 6110TIP3   OH239744   3.504   3.741  13.366 -0.3824  0.5560 -0.0857
 6110TIP3    H139745   3.550   3.798  13.305  0.4661  0.5293  0.5176
 6110TIP3    H239746   3.472   3.669  13.313 -1.8619  1.8230 -0.9387
 6111TIP3   OH239747   4.726   6.464  11.938  0.7108 -0.1785 -0.0203
 6111TIP3    H139748   4.649   6.517  11.956  1.1515  0.1089  1.0959
 6111TIP3    H239749   4.696   6.396  11.879 -0.1845  0.4777 -0.3232
 6112TIP3   OH239750   0.377   5.658  12.499 -0.4788  0.0842  0.5570
 6112TIP3    H139751   0.370   5.674  12.405 -0.6044 -0.2380  0.5111
 6112TIP3    H239752   0.293   5.689  12.534 -0.7607 -0.5589  0.4540
 6113TIP3   OH239753   5.596   4.022  11.324  0.5575 -0.4340  0.2757
 6113TIP3    H139754   5.628   3.937  11.294  0.1169 -0.9637  1.2820
 6113TIP3    H239755   5.675   4.072  11.343  0.8188 -0.7101 -0.0706
 6114TIP3   OH239756   3.223   0.843  14.061 -0.4644  0.3889 -0.3998
 6114TIP3    H139757   3.311   0.867  14.090 -0.8472  0.7148  0.5288
 6114TIP3    H239758   3.187   0.791  14.133 -2.1487  2.8628  0.6304
 6115TIP3   OH239759   3.937   4.092  12.142 -0.0368  0.0975 -0.3889
 6115TIP3    H139760   4.013   4.150  12.141 -0.1528  0.2530 -1.5808
 6115TIP3    H239761   3.862   4.151  12.143 -0.1671  0.0049 -2.3659
 6116TIP3   OH239762   3.085   6.525  15.674  0.0154 -0.0828 -0.4051
 6116TIP3    H139763   3.133   6.443  15.660  0.1701 -0.0432 -0.1180
 6116TIP3    H239764   3.006   6.517  15.621  0.5646  0.0468 -1.2518
 6117TIP3   OH239765   2.297   2.823  11.460  0.0889  0.6713 -0.2148
 6117TIP3    H139766   2.251   2.890  11.410 -0.2644  1.9112  1.7180
 6117TIP3    H239767   2.229   2.778  11.509  0.2896 -1.3159 -1.6812
 6118TIP3   OH239768   3.286   1.121  12.445 -0.1647 -0.2372  0.0839
 6118TIP3    H139769   3.290   1.099  12.538  0.6180  1.5905  0.5083
 6118TIP3    H239770   3.231   1.053  12.406 -2.8460  0.5310  2.3591
 6119TIP3   OH239771   1.094   6.008  15.460  0.1647 -0.3029  0.5566
 6119TIP3    H139772   1.100   5.913  15.470  3.4284  0.0292  2.7349
 6119TIP3    H239773   1.098   6.023  15.366 -1.2962 -2.3475  0.1374
 6120TIP3   OH239774   0.480   4.840  13.067 -0.7660 -0.0324 -0.4598
 6120TIP3    H139775   0.433   4.920  13.043  0.3010  0.3373 -1.3568
 6120TIP3    H239776   0.458   4.826  13.159 -2.3623  0.3151 -0.7728
 6121TIP3   OH239777   4.347   1.113  10.697  1.0249  0.5708 -0.3182
 6121TIP3    H139778   4.315   1.165  10.624  2.5360 -0.2896 -1.6297
 6121TIP3    H239779   4.443   1.113  10.687  1.0572 -3.2656 -1.0038
 6122TIP3   OH239780   5.201   5.437  10.998  0.0819  0.3034  0.3504
 6122TIP3    H139781   5.246   5.499  10.942 -0.9009  1.1900  0.5269
 6122TIP3    H239782   5.261   5.363  11.005  0.5994  0.5664 -1.1324
 6123TIP3   OH239783   4.745   3.347  10.522  0.2432 -0.2233 -0.2113
 6123TIP3    H139784   4.739   3.396  10.604  1.2466  1.2534 -0.9838
 6123TIP3    H239785   4.689   3.395  10.462 -0.5528 -1.3526 -0.3738
 6124TIP3   OH239786   3.341   4.529  14.682 -0.2349 -0.0236 -0.1716
 6124TIP3    H139787   3.413   4.577  14.641  1.7086 -1.1558  1.8290
 6124TIP3    H239788   3.321   4.578  14.762 -1.4221  0.0382 -0.4865
 6125TIP3   OH239789   2.237   6.909  11.603 -0.3991  0.4415  0.1781
 6125TIP3    H139790   2.177   6.980  11.581 -2.4292 -0.8822  1.2881
 6125TIP3    H239791   2.222   6.891  11.696  0.6061 -0.9490  0.1083
 6126TIP3   OH239792   5.388   0.488  10.562 -0.0042  0.2518 -0.5800
 6126TIP3    H139793   5.465   0.467  10.509 -0.7266  1.4902 -2.1607
 6126TIP3    H239794   5.314   0.450  10.513 -0.5807  0.5491  0.0448
 6127TIP3   OH239795   3.147   5.202  10.488  0.3025  0.4715  0.4647
 6127TIP3    H139796   3.242   5.211  10.498  0.4610 -2.1350  1.5806
 6127TIP3    H239797   3.121   5.145  10.560 -1.5123 -2.1654 -2.2122
 6128TIP3   OH239798   4.234   1.206  12.745  0.2957 -0.4110 -0.2016
 6128TIP3    H139799   4.287   1.141  12.790  0.8853 -0.0241 -0.3296
 6128TIP3    H239800   4.280   1.222  12.662  0.9773  1.2741  0.4800
 6129TIP3   OH239801   6.612   5.676  11.969  0.7165  0.4680  0.0250
 6129TIP3    H139802   6.648   5.764  11.955  1.1672  0.3208  0.2612
 6129TIP3    H239803   6.683   5.627  12.010  0.1708  0.2416  0.7046
 6130TIP3   OH239804   3.816   5.450  14.440 -0.3080  0.2445  0.4848
 6130TIP3    H139805   3.737   5.434  14.389  0.8575  1.3180 -1.7684
 6130TIP3    H239806   3.788   5.510  14.509 -1.3347  1.2760 -0.7818
 6131TIP3   OH239807   6.359   0.988  13.720 -0.2895  0.0963 -0.4184
 6131TIP3    H139808   6.328   0.917  13.664  0.5351  0.5628 -1.4854
 6131TIP3    H239809   6.426   1.032  13.668 -1.4430  2.2409 -0.1684
 6132TIP3   OH239810   4.901   1.246  15.378 -0.0997  0.7104 -0.3302
 6132TIP3    H139811   4.812   1.253  15.343  0.1388 -0.6354 -1.2469
 6132TIP3    H239812   4.943   1.180  15.322  0.6253 -0.7188  1.8608
 6133TIP3   OH239813   3.893   0.339  13.692  0.2141  0.5229 -0.0318
 6133TIP3    H139814   3.859   0.406  13.752 -0.7391  1.3032 -1.4081
 6133TIP3    H239815   3.967   0.381  13.648  1.1749 -0.1908  0.8800
 6134TIP3   OH239816   6.968   6.442  12.200 -0.1717 -0.4039 -0.4782
 6134TIP3    H139817   6.978   6.357  12.159  1.3938 -0.6020  0.2952
 6134TIP3    H239818   6.937   6.499  12.130 -0.3126 -1.3890 -1.2233
 6135TIP3   OH239819   1.396   4.876  13.015  0.3922 -0.0713 -0.5246
 6135TIP3    H139820   1.310   4.882  12.973  0.2393 -1.1250 -0.3782
 6135TIP3    H239821   1.430   4.966  13.014 -1.3649  0.6412  0.8129
 6136TIP3   OH239822   5.508   0.976  14.378 -0.4688 -0.2872 -0.2343
 6136TIP3    H139823   5.413   0.964  14.369 -0.3285 -0.8700 -0.9833
 6136TIP3    H239824   5.522   1.069  14.360 -1.1494  0.2719  2.0448
 6137TIP3   OH239825   3.935   3.269  15.425 -0.5301 -0.0487 -0.5711
 6137TIP3    H139826   3.958   3.176  15.418 -1.5458 -0.3477 -0.0357
 6137TIP3    H239827   3.903   3.291  15.338  0.0472 -0.0999 -0.8032
 6138TIP3   OH239828   0.683   0.545  10.287 -0.0985 -0.0399 -0.5447
 6138TIP3    H139829   0.612   0.610  10.284  1.3089  1.5264 -0.4554
 6138TIP3    H239830   0.763   0.597  10.291  1.1787 -1.7508 -2.7885
 6139TIP3   OH239831   3.142   0.149  15.317  0.3704  0.0896  0.1981
 6139TIP3    H139832   3.059   0.173  15.358  1.0870  1.4505  0.9188
 6139TIP3    H239833   3.119   0.086  15.249 -0.8875 -2.0661  2.5415
 6140TIP3   OH239834   4.494   7.163  11.365  0.4542  0.3603 -0.2718
 6140TIP3    H139835   4.451   7.131  11.285  3.2159 -0.2405 -1.5914
 6140TIP3    H239836   4.586   7.172  11.340  1.4100 -0.0557  2.9353
 6141TIP3   OH239837   3.409   0.508  14.339  0.2086 -0.6092 -0.1202
 6141TIP3    H139838   3.481   0.499  14.276  2.2923  0.0086  2.0602
 6141TIP3    H239839   3.442   0.464  14.418 -2.0645 -0.8024  0.7406
 6142TIP3   OH239840   3.425   3.812  14.000  0.9089 -0.2552 -0.5086
 6142TIP3    H139841   3.370   3.748  14.045  0.8298  0.3354  0.2265
 6142TIP3    H239842   3.389   3.815  13.911 -1.5466  1.6105  0.4806
 6143TIP3   OH239843   0.001   4.614  14.116  0.8381 -0.2748 -0.4397
 6143TIP3    H139844   0.013   4.672  14.041  1.5095 -0.4176 -0.4513
 6143TIP3    H239845  -0.065   4.551  14.088  0.4628  0.1950 -0.6037
 6144TIP3   OH239846   5.383   5.408  11.269  0.2867  0.3438  0.0848
 6144TIP3    H139847   5.459   5.429  11.215  0.5749  0.4095  0.5121
 6144TIP3    H239848   5.331   5.488  11.271 -0.4137 -0.0689 -1.2088
 6145TIP3   OH239849   6.511   6.840  14.704 -0.4906 -0.2051  0.0309
 6145TIP3    H139850   6.591   6.854  14.755 -1.0284 -1.6333  1.3153
 6145TIP3    H239851   6.501   6.920  14.652  0.2248  1.2127  1.9891
 6146TIP3   OH239852   6.631   6.331  13.891  0.4397 -0.0737 -0.0792
 6146TIP3    H139853   6.593   6.396  13.831  0.8238  1.1640  0.9818
 6146TIP3    H239854   6.652   6.256  13.835 -1.5696  0.0549 -1.0395
 6147TIP3   OH239855   6.690   7.167  11.011  0.0006 -0.2021 -0.1633
 6147TIP3    H139856   6.695   7.259  11.035 -1.6904 -0.7362  2.4630
 6147TIP3    H239857   6.727   7.121  11.086 -2.2439 -1.7904  0.0331
 6148TIP3   OH239858   3.611   5.992  14.533 -0.9321  0.3105 -0.3289
 6148TIP3    H139859   3.521   6.014  14.558 -1.2024 -0.9706 -0.1286
 6148TIP3    H239860   3.601   5.937  14.455 -0.4141 -1.2400  0.6773
 6149TIP3   OH239861   3.389   4.961  12.023 -0.5098 -0.2351 -0.1169
 6149TIP3    H139862   3.343   4.928  12.100 -2.1741  0.7789 -0.6395
 6149TIP3    H239863   3.443   5.032  12.055 -0.0908 -0.7648  0.3495
 6150TIP3   OH239864   4.456   4.279  14.086  0.4426 -0.5712 -0.3521
 6150TIP3    H139865   4.378   4.224  14.085  0.4142 -0.5279 -1.3670
 6150TIP3    H239866   4.469   4.302  14.178 -0.8366 -0.4378 -0.2053
 6151TIP3   OH239867   3.833   5.493  11.903 -0.0125 -0.3227  0.6191
 6151TIP3    H139868   3.773   5.442  11.958 -0.7602 -0.1179 -0.0001
 6151TIP3    H239869   3.867   5.430  11.840 -0.4933 -0.1853  0.2195
 6152TIP3   OH239870   3.713   0.143  13.673  0.3653 -0.3283 -0.5331
 6152TIP3    H139871   3.794   0.189  13.698  1.0991 -1.8488 -0.0160
 6152TIP3    H239872   3.663   0.207  13.623  2.7163  0.0670 -2.4559
 6153TIP3   OH239873   6.285   4.902  10.574  0.4156 -0.8920 -0.6278
 6153TIP3    H139874   6.206   4.869  10.618  0.4078 -0.4594 -0.3133
 6153TIP3    H239875   6.252   4.963  10.508  0.5383  0.2117  0.3093
 6154TIP3   OH239876   2.818   7.122  14.214  0.1008  0.2285 -0.0513
 6154TIP3    H139877   2.825   7.043  14.267  0.6004 -0.2099 -0.7656
 6154TIP3    H239878   2.857   7.191  14.268  0.5926 -0.2138  0.1553
 6155TIP3   OH239879   4.928   7.152  15.305 -0.0231  0.2172  0.3264
 6155TIP3    H139880   4.861   7.206  15.265  1.2045  1.5918  0.0827
 6155TIP3    H239881   4.885   7.068  15.322 -1.7250  1.0132  0.0042
 6156TIP3   OH239882   3.830   6.084  14.655 -0.1844  0.4532 -0.2928
 6156TIP3    H139883   3.812   6.178  14.655 -0.3551  0.4514 -2.8721
 6156TIP3    H239884   3.748   6.044  14.626 -0.7533 -0.6658  2.7254
 6157TIP3   OH239885   4.887   5.939  13.146  0.7502  0.6023  0.4686
 6157TIP3    H139886   4.920   5.852  13.126  1.1138  0.7827  0.2875
 6157TIP3    H239887   4.938   5.998  13.091 -0.3015  0.8296 -0.2776
 6158TIP3   OH239888   5.421   0.399  11.931  0.4563  0.9341 -0.1406
 6158TIP3    H139889   5.457   0.380  12.018  1.2429  0.0018 -0.6518
 6158TIP3    H239890   5.430   0.494  11.921 -0.3246  1.1416  1.0923
 6159TIP3   OH239891   3.241   5.598  10.676  0.0842 -0.5267  0.6876
 6159TIP3    H139892   3.234   5.505  10.696 -0.6789 -0.5192  0.4971
 6159TIP3    H239893   3.292   5.602  10.595  1.5619 -0.6705  1.5934
 6160TIP3   OH239894   0.932   5.410  15.667  0.1650  0.5561  0.2397
 6160TIP3    H139895   0.851   5.415  15.717  1.0659 -2.0673  2.0934
 6160TIP3    H239896   0.941   5.317  15.645  2.1923  0.9456 -0.7333
 6161TIP3   OH239897   3.787   4.894   0.216  0.2338 -0.6679 -0.4925
 6161TIP3    H139898   3.740   4.849   0.286  0.1843  0.1792  0.0252
 6161TIP3    H239899   3.730   4.966   0.190  2.2650  1.9248  1.8892
 6162TIP3   OH239900   5.923   5.827  14.798 -0.0263 -0.3492  0.0669
 6162TIP3    H139901   6.008   5.788  14.779 -0.7697 -1.5721 -0.8197
 6162TIP3    H239902   5.914   5.820  14.893 -0.0201 -2.1050 -0.0444
 6163TIP3   OH239903   3.925   0.948  13.439  0.0223  0.4425  0.0970
 6163TIP3    H139904   4.017   0.974  13.439 -0.1056  0.9049 -0.4496
 6163TIP3    H239905   3.908   0.916  13.351  0.5502 -2.9155  1.1679
 6164TIP3   OH239906   3.774   0.056  12.702  0.1578  0.0127  0.3467
 6164TIP3    H139907   3.780   0.135  12.649 -1.7134 -0.3944 -0.4941
 6164TIP3    H239908   3.693   0.014  12.675  0.1180 -1.1920  2.1986
 6165TIP3   OH239909   2.489   6.484  12.241 -0.2092  0.1448  0.5430
 6165TIP3    H139910   2.584   6.473  12.232 -0.0126  1.7575  0.4272
 6165TIP3    H239911   2.463   6.531  12.162 -1.1630 -0.5205  0.4440
 6166TIP3   OH239912   4.986   0.070  14.195 -0.3184 -0.1027 -0.1519
 6166TIP3    H139913   5.066   0.029  14.164 -0.7063 -0.7615 -0.3032
 6166TIP3    H239914   5.015   0.141  14.252  0.3980  1.1774 -2.0616
 6167TIP3   OH239915   6.220   4.931  13.818  0.1495 -0.5069 -0.3022
 6167TIP3    H139916   6.241   5.012  13.771 -0.0227  0.6633  1.6068
 6167TIP3    H239917   6.133   4.946  13.854  1.2486 -0.4075  2.4281
 6168TIP3   OH239918   1.168   0.082  12.488  0.0213 -0.2888  0.0150
 6168TIP3    H139919   1.207   0.067  12.574 -0.0759  0.7463  0.2336
 6168TIP3    H239920   1.110   0.007  12.475  0.1095 -0.4949  0.8004
 6169TIP3   OH239921   5.446   6.834  13.786  0.1022  0.2032  0.1596
 6169TIP3    H139922   5.432   6.741  13.806 -0.8784  0.3904  0.3423
 6169TIP3    H239923   5.441   6.839  13.691  1.1253 -0.0884  0.0843
 6170TIP3   OH239924   4.669   6.908   0.250  0.1562  0.4217 -0.2481
 6170TIP3    H139925   4.749   6.929   0.201  0.1857 -0.3100 -0.5247
 6170TIP3    H239926   4.692   6.829   0.300 -0.5525 -0.0871 -0.7262
 6171TIP3   OH239927   3.802   4.157  11.897 -0.0710 -0.3380 -0.5719
 6171TIP3    H139928   3.800   4.246  11.932  1.8427  0.7515 -3.0506
 6171TIP3    H239929   3.848   4.105  11.963  0.1452  0.8491  0.2148
 6172TIP3   OH239930   5.015   5.380  10.399 -0.3838  0.0371 -0.1917
 6172TIP3    H139931   5.018   5.287  10.419  2.1604 -0.1294 -1.0948
 6172TIP3    H239932   5.100   5.414  10.428 -0.5096  1.6639 -1.5977
 6173TIP3   OH239933   4.408   3.699  13.650  0.1768  0.2852 -0.2904
 6173TIP3    H139934   4.317   3.671  13.640  0.2724  0.3797 -1.4463
 6173TIP3    H239935   4.411   3.739  13.737 -0.6441 -0.6399  0.1845
 6174TIP3   OH239936   2.127   5.166  11.177  0.2857  0.4073  0.0388
 6174TIP3    H139937   2.084   5.221  11.112  0.3078 -2.7350 -2.7094
 6174TIP3    H239938   2.190   5.225  11.219 -0.3301  2.7327 -2.1684
 6175TIP3   OH239939   6.171   5.795  12.298 -0.2138  0.2391 -0.0444
 6175TIP3    H139940   6.131   5.758  12.376  0.6584 -0.1613  0.2182
 6175TIP3    H239941   6.100   5.844  12.255 -1.4303 -1.8636 -0.4933
 6176TIP3   OH239942   5.290   2.476  14.167 -0.0739 -0.2281  0.1191
 6176TIP3    H139943   5.250   2.561  14.148 -2.1548 -1.6120 -1.9288
 6176TIP3    H239944   5.240   2.414  14.115  3.7868 -2.2802 -1.3773
 6177TIP3   OH239945   0.197   0.303  13.374 -0.2897 -0.7041 -0.2587
 6177TIP3    H139946   0.190   0.392  13.406  1.3755 -1.1857  1.5298
 6177TIP3    H239947   0.271   0.305  13.313 -1.0612 -0.6028 -1.2056
 6178TIP3   OH239948   3.885   3.325  10.645  0.2401 -0.5131 -0.6309
 6178TIP3    H139949   3.849   3.410  10.670  1.1958  0.5092 -2.6253
 6178TIP3    H239950   3.912   3.336  10.554  1.7754 -2.5089 -0.4553
 6179TIP3   OH239951   1.035   7.176  10.827  0.1389 -0.3910  0.3621
 6179TIP3    H139952   1.017   7.269  10.841  0.2562 -0.0711 -1.4184
 6179TIP3    H239953   1.017   7.134  10.911 -0.2364  1.1994  1.0788
 6180TIP3   OH239954   5.743   1.225  11.882  0.0255  0.0764 -0.5209
 6180TIP3    H139955   5.806   1.291  11.855  1.4325  0.0421  2.4062
 6180TIP3    H239956   5.797   1.150  11.908 -1.3955 -1.1952 -1.1460
 6181TIP3   OH239957   4.766   3.029  10.712  0.4190  0.4207 -0.7043
 6181TIP3    H139958   4.773   3.122  10.735  0.2139 -0.1437  1.8029
 6181TIP3    H239959   4.777   3.027  10.617  0.3255  3.0157 -0.8115
 6182TIP3   OH239960   4.337   4.254  13.128  0.3102  0.7305 -0.5781
 6182TIP3    H139961   4.375   4.251  13.040  0.1565  1.3270 -0.6667
 6182TIP3    H239962   4.407   4.224  13.185  0.0651 -0.7084 -1.0151
 6183TIP3   OH239963   4.561   5.162  13.003  0.3383 -0.0753 -0.0926
 6183TIP3    H139964   4.466   5.151  12.997  0.5881 -1.1962 -2.1695
 6183TIP3    H239965   4.594   5.142  12.916  2.6201 -1.0736  0.9386
 6184TIP3   OH239966   4.458   5.738  11.419 -0.0369 -0.2379  0.1457
 6184TIP3    H139967   4.446   5.771  11.508 -0.0534 -1.1679  0.4922
 6184TIP3    H239968   4.511   5.805  11.375 -2.0104  1.3776  0.1472
 6185TIP3   OH239969   0.382   4.013  14.093 -0.0852  0.2198  0.5443
 6185TIP3    H139970   0.297   4.035  14.131 -0.6812  0.8557 -1.0949
 6185TIP3    H239971   0.392   4.075  14.020  0.0435 -2.3232 -1.6694
 6186TIP3   OH239972   6.500   2.962  13.310  0.1744 -0.1218  0.3995
 6186TIP3    H139973   6.531   2.925  13.392 -0.3650 -0.1354  0.5994
 6186TIP3    H239974   6.554   3.040  13.297  1.0143 -0.7346  0.1989
 6187TIP3   OH239975   3.828   4.937  13.375  0.6328 -0.9669 -0.1047
 6187TIP3    H139976   3.880   5.018  13.373 -1.8746  0.7084 -0.2154
 6187TIP3    H239977   3.817   4.914  13.282 -2.2431  1.0603 -0.3685
 6188TIP3   OH239978   4.895   2.417  10.927 -0.0643  0.0882 -0.5522
 6188TIP3    H139979   4.945   2.336  10.915 -0.8870 -0.4718 -0.2674
 6188TIP3    H239980   4.817   2.404  10.873 -1.9304 -0.8279  2.2415
 6189TIP3   OH239981   2.991   5.005   9.738  0.2559 -0.4813 -0.6461
 6189TIP3    H139982   2.931   5.079   9.750  1.3750  0.2084  0.9152
 6189TIP3    H239983   3.078   5.044   9.745  0.8892 -2.2176  2.3338
 6190TIP3   OH239984   6.608   3.028  15.171 -0.9903 -0.5083  0.5618
 6190TIP3    H139985   6.538   2.966  15.187 -1.7634  0.5327  1.2206
 6190TIP3    H239986   6.564   3.107  15.139 -0.1972  0.4057  1.6995
 6191TIP3   OH239987   7.205   2.850  13.357  0.4806  0.3757  0.6212
 6191TIP3    H139988   7.206   2.823  13.265  0.7892  0.6854  0.5288
 6191TIP3    H239989   7.128   2.808  13.394  1.8177 -1.9429  0.8729
 6192TIP3   OH239990   6.111   6.183  12.736 -0.4978  0.1844 -0.2447
 6192TIP3    H139991   6.108   6.137  12.652  1.7158 -0.2409 -0.1458
 6192TIP3    H239992   6.024   6.170  12.774 -1.0084 -1.0047 -1.7503
 6193TIP3   OH239993   4.769   4.531  12.322 -0.2482  0.5000 -0.4249
 6193TIP3    H139994   4.775   4.439  12.349  0.0647  0.9313  1.0399
 6193TIP3    H239995   4.849   4.571  12.355 -0.1731  1.2080 -1.4555
 6194TIP3   OH239996   5.188   7.065  13.995 -0.0143 -0.1897 -0.5201
 6194TIP3    H139997   5.204   7.146  14.044 -0.4000  0.5688 -1.6178
 6194TIP3    H239998   5.238   6.998  14.042 -2.3415 -0.0100  2.3945
 6195TIP3   OH239999   6.035   5.145  13.935  0.4074  0.5992  0.3932
 6195TIP3    H140000   5.978   5.119  14.007  2.2665 -1.9273  1.0201
 6195TIP3    H240001   6.016   5.081  13.865  1.7985  0.2715  0.2938
 6196TIP3   OH240002   2.154   1.545  13.466  0.4881  0.2246 -0.0471
 6196TIP3    H140003   2.153   1.637  13.442  2.0780  0.3852  0.4350
 6196TIP3    H240004   2.181   1.545  13.559 -1.6216 -0.5972  0.5802
 6197TIP3   OH240005   2.426   6.217  13.744  0.0103 -0.0239  0.2782
 6197TIP3    H140006   2.491   6.181  13.684 -0.4693  1.3265 -1.0828
 6197TIP3    H240007   2.366   6.145  13.761  1.6646 -1.1939  1.3100
 6198TIP3   OH240008   3.904   1.670  11.915 -0.0071  0.1186  0.4703
 6198TIP3    H140009   3.868   1.703  11.998 -2.0662  0.6765 -0.5904
 6198TIP3    H240010   3.831   1.623  11.875  0.6763  0.6163 -1.4185
 6199TIP3   OH240011   4.715   4.850  10.009  0.5589 -0.2346  0.3458
 6199TIP3    H140012   4.641   4.889  10.057 -1.4406 -0.4390 -2.4261
 6199TIP3    H240013   4.758   4.924   9.968  0.0725 -0.3830 -0.4488
 6200TIP3   OH240014   4.148   2.886  15.247 -0.0092  0.0965  0.0581
 6200TIP3    H140015   4.082   2.903  15.315 -1.3130  0.3015 -1.2299
 6200TIP3    H240016   4.230   2.920  15.284 -0.3973 -1.1642  2.1335
 6201TIP3   OH240017   4.025   3.115  10.769 -0.0055  0.0146 -0.2049
 6201TIP3    H140018   3.954   3.056  10.743  0.2987 -0.0370 -0.9171
 6201TIP3    H240019   3.994   3.202  10.745 -0.1575  0.0770  0.2068
 6202TIP3   OH240020   2.442   5.723  11.652  0.2146 -0.0934  0.8297
 6202TIP3    H140021   2.459   5.629  11.654  2.4689  0.2654  0.8413
 6202TIP3    H240022   2.430   5.743  11.559  0.4454 -0.2978  0.7528
 6203TIP3   OH240023   0.437   4.159  11.574  0.8284 -0.1832  0.6372
 6203TIP3    H140024   0.478   4.083  11.614  0.9313  0.3455  1.5626
 6203TIP3    H240025   0.405   4.210  11.648 -0.8569 -0.2286 -0.0519
 6204TIP3   OH240026   4.881   0.699  11.673 -0.2683  0.8802 -0.2486
 6204TIP3    H140027   4.807   0.749  11.639 -1.1077  0.8543  1.4861
 6204TIP3    H240028   4.862   0.689  11.766  0.0718 -2.3401 -0.4896
 6205TIP3   OH240029   4.002   6.713  14.516  0.1141  0.1872 -0.2792
 6205TIP3    H140030   4.022   6.619  14.509 -0.7682  0.0441 -1.0629
 6205TIP3    H240031   3.908   6.715  14.534  0.7837  0.8072  3.7085
 6206TIP3   OH240032   4.538   2.917  13.360  0.4139 -0.5986 -0.1912
 6206TIP3    H140033   4.546   3.011  13.375 -0.8597 -0.4639 -0.3030
 6206TIP3    H240034   4.478   2.910  13.286 -0.4271 -1.5332  0.5702
 6207TIP3   OH240035   1.970   1.423  12.893  0.0586  0.1720 -0.0568
 6207TIP3    H140036   1.922   1.352  12.850 -0.8870  1.0881 -0.5062
 6207TIP3    H240037   2.035   1.377  12.947 -0.0165 -1.0299 -0.9423
 6208TIP3   OH240038   1.579   6.985  11.332  0.1437 -0.1206 -0.2333
 6208TIP3    H140039   1.585   6.890  11.331  0.7408 -0.0929 -1.7809
 6208TIP3    H240040   1.655   7.014  11.281  0.3854  1.2043  0.8667
 6209TIP3   OH240041   1.449   5.623  10.505  0.0418 -0.0260 -0.3362
 6209TIP3    H140042   1.377   5.659  10.453 -0.7068 -1.8814 -0.5938
 6209TIP3    H240043   1.496   5.566  10.444 -2.1013 -3.9386  1.5207
 6210TIP3   OH240044   3.484   0.711  11.739 -0.0073 -0.4765  0.1624
 6210TIP3    H140045   3.487   0.630  11.790 -0.0666 -1.8862 -2.0096
 6210TIP3    H240046   3.576   0.733  11.724  0.0194  0.2578  1.3299
 6211TIP3   OH240047   1.008   6.710  13.804  0.2700 -0.5396  0.0680
 6211TIP3    H140048   0.988   6.758  13.884 -0.1819  0.7337 -0.7986
 6211TIP3    H240049   0.962   6.626  13.815 -1.7850  0.5619  0.0938
 6212TIP3   OH240050   0.014   6.210  11.436 -0.0073 -0.3822 -0.0229
 6212TIP3    H140051   0.067   6.266  11.493  1.8064 -0.9903 -1.0987
 6212TIP3    H240052  -0.005   6.265  11.360  0.3438 -0.6732 -0.3183
 6213TIP3   OH240053   6.890   4.664  15.642  0.0728 -0.0677 -0.3378
 6213TIP3    H140054   6.886   4.572  15.618  2.2241 -0.4083  0.4678
 6213TIP3    H240055   6.911   4.710  15.560 -1.6033 -0.2076 -0.8591
 6214TIP3   OH240056   4.999   4.776  12.173 -0.3402 -0.5012  0.1318
 6214TIP3    H140057   4.981   4.735  12.258 -1.0861 -1.0785 -0.2990
 6214TIP3    H240058   4.915   4.813  12.146 -0.7724 -2.6402 -1.5914
 6215TIP3   OH240059   5.677   6.802  12.977  0.5350 -0.1994 -0.2458
 6215TIP3    H140060   5.734   6.876  12.960  0.0016  0.5207  1.0793
 6215TIP3    H240061   5.605   6.838  13.028  0.0319 -1.5393  0.0111
 6216TIP3   OH240062   5.191   1.545  11.659 -0.1275 -0.3889  0.0341
 6216TIP3    H140063   5.242   1.597  11.597 -0.0495 -1.1405 -0.5416
 6216TIP3    H240064   5.123   1.605  11.691  0.0868  0.1236 -0.4659
 6217TIP3   OH240065   4.190   4.432  11.176  0.1543 -0.2853  0.3561
 6217TIP3    H140066   4.193   4.398  11.087 -0.7695  0.1140  0.1726
 6217TIP3    H240067   4.098   4.425  11.202  0.1355  1.1008  0.6936
 6218TIP3   OH240068   3.648   4.829  12.578  0.8549  0.2627  0.0280
 6218TIP3    H140069   3.658   4.778  12.497  0.7717  1.4195 -0.7225
 6218TIP3    H240070   3.708   4.903  12.568  0.4944  0.6752  0.8192
 6219TIP3   OH240071   5.460   3.627  11.905 -0.3431  0.7500  0.6005
 6219TIP3    H140072   5.425   3.575  11.977 -0.7185 -0.8575 -0.7212
 6219TIP3    H240073   5.390   3.688  11.882 -0.7616  0.2752  0.6251
 6220TIP3   OH240074   0.480   2.247  13.789 -0.3272  0.4378  0.3895
 6220TIP3    H140075   0.410   2.190  13.821  0.0144  0.0770  0.4893
 6220TIP3    H240076   0.557   2.223  13.840 -0.0196  0.5265 -0.0283
 6221TIP3   OH240077   5.647   0.006  13.924  0.2828  0.4006  0.7536
 6221TIP3    H140078   5.623  -0.054  13.854  2.0626 -0.3463  0.7499
 6221TIP3    H240079   5.740  -0.011  13.939  0.4159  2.0057  1.8810
 6222TIP3   OH240080   6.527   6.665  13.164  0.3476  0.1297  0.6963
 6222TIP3    H140081   6.511   6.678  13.258  1.4729 -0.4449  0.9773
 6222TIP3    H240082   6.604   6.608  13.161  1.7076  1.9872 -0.5876
 6223TIP3   OH240083   5.234   0.676  15.068 -0.0777  0.1592 -0.1849
 6223TIP3    H140084   5.262   0.601  15.016  1.7674  1.3798 -0.9690
 6223TIP3    H240085   5.299   0.683  15.138 -0.3339  0.9294 -0.0203
 6224TIP3   OH240086   5.935   5.358  15.652  0.0210 -0.4605  0.2439
 6224TIP3    H140087   5.917   5.427  15.715  1.5745  0.4672 -0.2855
 6224TIP3    H240088   6.023   5.377  15.620 -0.2533 -1.6202 -1.2938
 6225TIP3   OH240089   2.126   4.021  11.969 -0.0750  0.4707 -0.2842
 6225TIP3    H140090   2.214   3.983  11.964  0.4938  1.8854 -1.4316
 6225TIP3    H240091   2.079   3.966  12.032  1.1656 -1.2239 -0.8104
 6226TIP3   OH240092   4.258   5.485  12.326 -0.1288  0.5466  0.0893
 6226TIP3    H140093   4.335   5.537  12.306 -1.1925  2.1538  0.0893
 6226TIP3    H240094   4.208   5.483  12.244 -0.3044 -0.0905  0.2104
 6227TIP3   OH240095   3.577   0.047  10.169 -0.3352  0.2614  0.1446
 6227TIP3    H140096   3.635   0.034  10.094  0.2156  0.1493  0.5886
 6227TIP3    H240097   3.625   0.011  10.244 -2.1262 -2.4714  0.0687
 6228TIP3   OH240098   2.724   6.306  11.250 -0.4075 -0.0307 -0.0649
 6228TIP3    H140099   2.768   6.269  11.173 -0.1545  1.1076 -0.4908
 6228TIP3    H240100   2.639   6.335  11.217  0.3718  2.0216 -0.3251
 6229TIP3   OH240101   5.917   1.030  11.944 -0.4756  0.2133 -0.1231
 6229TIP3    H140102   5.988   0.987  11.896 -0.4705  1.2391 -1.0570
 6229TIP3    H240103   5.960   1.067  12.021 -0.0137  0.7327 -0.6257
 6230TIP3   OH240104   5.181   5.740  15.340  0.2774 -0.2000 -0.5541
 6230TIP3    H140105   5.227   5.662  15.371  1.2348  0.7930  0.6044
 6230TIP3    H240106   5.134   5.772  15.417  1.2992  1.3347 -0.5391
 6231TIP3   OH240107   5.398   0.520  13.018 -0.3389  0.6355  0.3687
 6231TIP3    H140108   5.462   0.553  13.082  0.5763 -0.3353 -0.0189
 6231TIP3    H240109   5.450   0.505  12.939 -1.0026 -0.4112  0.1229
 6232TIP3   OH240110   6.256   4.488  10.554  0.2787 -0.1489  1.0042
 6232TIP3    H140111   6.310   4.566  10.560  0.2200 -0.0326  0.0697
 6232TIP3    H240112   6.309   4.425  10.504  0.1698 -0.5627  1.4081
 6233TIP3   OH240113   1.284   5.075  11.756  0.8160 -0.0471 -0.3751
 6233TIP3    H140114   1.202   5.121  11.737  0.2083 -0.4710  1.1216
 6233TIP3    H240115   1.258   4.985  11.772  1.4663 -0.0320  0.8790
 6234TIP3   OH240116   0.294   6.938  11.620  0.1251  0.5685 -0.5789
 6234TIP3    H140117   0.240   6.981  11.687 -1.0475 -0.2375 -0.9924
 6234TIP3    H240118   0.300   7.003  11.550 -2.3331 -0.2094 -1.5575
 6235TIP3   OH240119   1.748   2.607   9.934 -0.1996  0.7828  0.5437
 6235TIP3    H140120   1.726   2.661  10.010  0.2631  0.8362  0.6383
 6235TIP3    H240121   1.819   2.653   9.890 -0.3302  0.6481  0.1896
 6236TIP3   OH240122   6.227   0.521  13.422  0.3899  0.3456 -0.0251
 6236TIP3    H140123   6.188   0.507  13.508 -0.4779 -1.4605 -0.6779
 6236TIP3    H240124   6.154   0.552  13.368  0.5584 -0.0243 -0.4734
 6237TIP3   OH240125   0.951   5.126   0.736  0.3312  1.0834 -0.5334
 6237TIP3    H140126   0.886   5.194   0.719 -0.4891  0.9174  1.7463
 6237TIP3    H240127   0.901   5.056   0.778  1.9998  1.0499  1.4769
 6238TIP3   OH240128   1.253   3.356  14.939 -0.2365  0.4178  0.4249
 6238TIP3    H140129   1.188   3.322  14.878 -0.3874 -0.0419  0.8321
 6238TIP3    H240130   1.203   3.377  15.018  0.4400 -2.3090  1.6538
 6239TIP3   OH240131   1.585   0.032  11.923  0.7366  0.0855  1.1616
 6239TIP3    H140132   1.659   0.018  11.864 -1.1014 -2.0238 -0.7700
 6239TIP3    H240133   1.614   0.100  11.983  2.5539  2.6823 -2.4760
 6240TIP3   OH240134   1.409   2.843  13.658  0.8352 -0.3040  0.1456
 6240TIP3    H140135   1.497   2.853  13.693  1.4479 -1.7680 -0.9294
 6240TIP3    H240136   1.422   2.804  13.572 -0.7289  1.7846 -1.0717
 6241TIP3   OH240137   0.111   1.098  10.903 -0.0510  0.0516 -0.3675
 6241TIP3    H140138   0.124   1.039  10.977 -1.8660 -0.4564 -0.4089
 6241TIP3    H240139   0.197   1.107  10.863  0.9101  0.1400  1.6530
 6242TIP3   OH240140   3.666   0.754  14.181 -0.1585 -0.1199  0.1255
 6242TIP3    H140141   3.618   0.677  14.150 -2.0986  0.9011  0.4927
 6242TIP3    H240142   3.598   0.812  14.215  1.3258  1.5176  0.3682
 6243TIP3   OH240143   5.813   5.948  10.523  0.4910 -0.2319 -0.3551
 6243TIP3    H140144   5.832   6.012  10.591 -1.3028 -0.7927  0.7029
 6243TIP3    H240145   5.741   5.986  10.473 -0.5207 -1.3817  0.2186
 6244TIP3   OH240146   6.407   6.733  12.743 -0.0583 -0.3168 -0.3899
 6244TIP3    H140147   6.323   6.779  12.750 -0.3970 -0.6281 -2.0513
 6244TIP3    H240148   6.473   6.800  12.762 -0.6506  0.1866 -0.0955
 6245TIP3   OH240149   0.806   4.317  11.062  0.5753 -0.2884 -1.0103
 6245TIP3    H140150   0.718   4.356  11.062 -0.5487 -2.6758 -3.1523
 6245TIP3    H240151   0.862   4.385  11.100 -2.0451  1.6141 -0.3792
 6246TIP3   OH240152   1.407   7.230  14.897 -0.1982 -0.7124 -0.2119
 6246TIP3    H140153   1.427   7.244  14.989  1.6194  0.7235 -0.7801
 6246TIP3    H240154   1.467   7.161  14.869 -1.7393 -2.1680  0.0026
 6247TIP3   OH240155   7.151   1.295  14.615  0.5632 -0.0324 -0.7988
 6247TIP3    H140156   7.071   1.288  14.563 -0.7543  0.8534  1.0487
 6247TIP3    H240157   7.211   1.344  14.559 -0.9431  1.1889 -1.3912
 6248TIP3   OH240158   2.502   0.994  15.791  0.4505 -0.0716 -0.2665
 6248TIP3    H140159   2.446   0.929  15.832  0.6150 -1.1248 -1.6784
 6248TIP3    H240160   2.575   1.005  15.852  0.5151 -1.3529 -0.1093
 6249TIP3   OH240161   3.910   1.235  14.043  0.0402  1.0642 -0.9799
 6249TIP3    H140162   3.952   1.321  14.034  2.3270 -0.0221 -0.8638
 6249TIP3    H240163   3.898   1.225  14.137  2.6162 -0.0550 -0.7425
 6250TIP3   OH240164   6.065   7.212  12.999 -0.1723 -0.4698 -0.0037
 6250TIP3    H140165   6.038   7.215  13.091  1.2857  0.8428  0.4037
 6250TIP3    H240166   6.134   7.278  12.992 -1.2477  0.4538 -2.3678
 6251TIP3   OH240167   1.488   6.371  13.287  0.2535 -0.4510  0.2497
 6251TIP3    H140168   1.458   6.461  13.294 -0.8522 -0.6545 -1.4647
 6251TIP3    H240169   1.414   6.318  13.316 -0.4419 -0.8908 -2.1743
 6252TIP3   OH240170   6.971   6.712  15.300  0.1591  0.2320 -0.3362
 6252TIP3    H140171   7.023   6.635  15.275 -0.6788 -0.3610 -0.2710
 6252TIP3    H240172   6.966   6.764  15.220 -1.1949 -0.8938 -0.9977
 6253TIP3   OH240173   2.402   5.565  10.737 -0.5658  0.4096 -0.6170
 6253TIP3    H140174   2.384   5.500  10.804  0.0795 -0.3035 -1.1201
 6253TIP3    H240175   2.332   5.554  10.673 -0.9443  0.8012 -0.2672
 6254TIP3   OH240176   6.205   7.229  14.254 -0.2516 -0.1010 -0.0044
 6254TIP3    H140177   6.233   7.138  14.250  1.9093  0.5189  0.8452
 6254TIP3    H240178   6.158   7.243  14.172  1.2182 -1.3865 -1.0792
 6255TIP3   OH240179   1.937   0.261  10.792 -0.5854  0.0187 -0.1746
 6255TIP3    H140180   1.949   0.234  10.883 -0.8730 -0.4973 -0.2935
 6255TIP3    H240181   1.844   0.251  10.776 -0.6742  0.9074 -0.2758
 6256TIP3   OH240182   2.371   1.403  12.749 -0.7844 -0.4461  0.5283
 6256TIP3    H140183   2.293   1.459  12.755 -0.2444  0.2933  0.8249
 6256TIP3    H240184   2.444   1.462  12.770  0.0015 -0.7514 -1.1979
 6257TIP3   OH240185   5.614   6.562  10.633 -0.9620  0.3818 -0.2164
 6257TIP3    H140186   5.525   6.537  10.654  0.1151 -3.3759  0.1949
 6257TIP3    H240187   5.643   6.499  10.567  1.4534  1.4125 -0.2318
 6258TIP3   OH240188   1.993   0.936  11.914  0.2652 -0.3826  0.1541
 6258TIP3    H140189   1.973   0.888  11.834  1.9238 -0.3044 -0.3351
 6258TIP3    H240190   1.921   0.999  11.924 -0.7687 -1.4760 -0.3978
 6259TIP3   OH240191   0.151   2.828  13.446  0.2494 -0.0089  0.4866
 6259TIP3    H140192   0.190   2.767  13.383  2.0766  0.5710  1.0260
 6259TIP3    H240193   0.061   2.841  13.415  0.8422 -0.4507 -1.4794
 6260TIP3   OH240194   1.546   5.980  13.317 -0.2807 -0.1313 -0.8444
 6260TIP3    H140195   1.580   6.055  13.267 -1.1845  0.3167 -0.7925
 6260TIP3    H240196   1.582   5.904  13.272  0.9980  0.3377 -0.6444
 6261TIP3   OH240197   5.977   2.997  13.347  0.3761 -0.4572  0.4950
 6261TIP3    H140198   5.948   2.926  13.289  0.8410 -0.7247  0.5825
 6261TIP3    H240199   5.897   3.033  13.384  0.1252 -0.8216  0.3040
 6262TIP3   OH240200   0.957   7.294  14.128 -0.1146 -0.4326  0.2934
 6262TIP3    H140201   1.014   7.217  14.122 -0.2275 -0.3849 -1.5598
 6262TIP3    H240202   1.011   7.361  14.170  0.7746 -0.7876 -0.2783
 6263TIP3   OH240203   4.739   4.167   1.244  0.1205 -0.3932 -0.5520
 6263TIP3    H140204   4.821   4.170   1.292  0.8212 -4.0249 -1.3880
 6263TIP3    H240205   4.748   4.235   1.177  1.7128  0.3635  0.3994
 6264TIP3   OH240206   5.461   6.391  12.941 -0.6660  0.0020  0.3719
 6264TIP3    H140207   5.406   6.466  12.965 -0.1768  0.6852 -0.6149
 6264TIP3    H240208   5.531   6.429  12.888  0.6558 -0.8759  1.4441
 6265TIP3   OH240209   3.238   5.711  12.277 -0.0234 -0.3263 -0.4324
 6265TIP3    H140210   3.332   5.714  12.258 -0.2039 -0.5907 -1.3811
 6265TIP3    H240211   3.218   5.798  12.309  0.1959  0.2979 -1.9472
 6266TIP3   OH240212   5.201   4.574  12.159  0.1286  0.4398 -0.2965
 6266TIP3    H140213   5.152   4.515  12.103 -0.1889 -0.5645  1.0247
 6266TIP3    H240214   5.137   4.641  12.186  0.0057  0.2969 -0.2353
 6267TIP3   OH240215   6.461   6.794  15.148  0.4140 -0.2299  0.1102
 6267TIP3    H140216   6.415   6.786  15.064  1.5262  1.0924 -0.6604
 6267TIP3    H240217   6.528   6.725  15.146 -1.4296 -2.0860  1.1884
 6268TIP3   OH240218   6.296   6.101  12.985  0.2484  0.1613  0.3392
 6268TIP3    H140219   6.214   6.088  12.937 -0.0484  0.8736  0.6381
 6268TIP3    H240220   6.271   6.093  13.077  0.5674  0.0952  0.4216
 6269TIP3   OH240221   6.134   5.784  11.976  0.2721  0.3980 -0.6158
 6269TIP3    H140222   6.070   5.847  12.010  1.1046  1.3387 -0.7637
 6269TIP3    H240223   6.219   5.820  12.003  0.6962 -1.4382  0.5979
 6270TIP3   OH240224   5.278   4.485  11.818 -0.0011 -0.1059 -0.2530
 6270TIP3    H140225   5.277   4.400  11.863  0.9319 -0.1465 -0.2878
 6270TIP3    H240226   5.299   4.463  11.727 -0.9157  0.0609 -0.5013
 6271TIP3   OH240227   4.848   6.512  15.509  0.2643 -1.0167  0.0879
 6271TIP3    H140228   4.914   6.554  15.564  0.4259 -0.9799 -0.1348
 6271TIP3    H240229   4.825   6.432  15.557 -0.6280 -0.2886  0.9081
 6272TIP3   OH240230   5.946   4.633  11.821 -0.1304 -0.1227 -0.2151
 6272TIP3    H140231   5.945   4.660  11.729  1.2762  0.8361  0.0353
 6272TIP3    H240232   5.861   4.662  11.855 -0.6602 -0.4870 -1.2053
 6273TIP3   OH240233   6.329   6.174  15.314  0.1457  0.2452 -0.2607
 6273TIP3    H140234   6.267   6.168  15.241  0.6315 -1.9661 -0.5290
 6273TIP3    H240235   6.411   6.201  15.273  0.4344 -1.0567 -0.5657
 6274TIP3   OH240236   5.335   0.985  12.658  0.1413 -0.0583 -0.3260
 6274TIP3    H140237   5.262   0.935  12.621  0.3285 -0.7260  0.2124
 6274TIP3    H240238   5.310   1.000  12.749  0.7842 -0.4880 -0.0804
 6275TIP3   OH240239   5.401   4.478  11.513 -0.2579  0.1442  0.6262
 6275TIP3    H140240   5.425   4.392  11.549 -0.3108  0.2193  0.8435
 6275TIP3    H240241   5.363   4.458  11.427 -0.2323 -0.0455  0.6595
 6276TIP3   OH240242   5.175   2.321  12.020  0.3725  0.0778  0.0959
 6276TIP3    H140243   5.233   2.245  12.018 -0.6162 -0.6896  0.2226
 6276TIP3    H240244   5.205   2.372  12.096 -1.0976 -1.9101  2.0747
 6277TIP3   OH240245   6.055   3.568  12.465 -0.8249 -0.6258 -0.6183
 6277TIP3    H140246   6.046   3.633  12.535  1.4200 -1.2578  0.2913
 6277TIP3    H240247   6.137   3.591  12.421  0.0943 -2.9068 -0.1848
 6278TIP3   OH240248   7.206   6.010  10.650 -0.3767 -0.1726 -0.1723
 6278TIP3    H140249   7.190   6.018  10.556 -1.8636 -0.8838  0.0114
 6278TIP3    H240250   7.128   5.967  10.684  0.4993 -0.6540  1.2737
 6279TIP3   OH240251   6.710   5.099  10.786  0.7091  0.0064 -0.2695
 6279TIP3    H140252   6.791   5.135  10.750  1.3575 -2.2339 -1.1046
 6279TIP3    H240253   6.666   5.060  10.711 -0.2259 -0.4849  0.5229
 6280TIP3   OH240254   6.844   6.899   9.907 -0.2266  0.2260 -0.2222
 6280TIP3    H140255   6.909   6.957   9.869  0.2279  1.7696  2.7576
 6280TIP3    H240256   6.772   6.899   9.845  1.0319  1.5686 -1.7077
 6281TIP3   OH240257   0.680   4.177  11.894 -0.0095  0.3154  0.1231
 6281TIP3    H140258   0.760   4.201  11.940 -0.0613  1.6209 -0.4314
 6281TIP3    H240259   0.708   4.155  11.805 -0.2449  0.6692 -0.0439
 6282TIP3   OH240260   0.240   0.254  12.699  0.3437 -0.6429  0.0686
 6282TIP3    H140261   0.147   0.254  12.722  0.6109  1.1575  1.2513
 6282TIP3    H240262   0.284   0.214  12.774  0.6084 -0.7257 -0.1263
 6283TIP3   OH240263   1.727   0.874  12.760 -0.4694  0.5427 -0.2512
 6283TIP3    H140264   1.701   0.965  12.778 -0.3631  0.3419  1.0109
 6283TIP3    H240265   1.737   0.835  12.847 -2.7774 -1.3313 -0.7661
 6284TIP3   OH240266   5.743   0.553  14.835 -0.3586  0.2697 -0.0801
 6284TIP3    H140267   5.665   0.561  14.780  1.2818 -0.3800 -2.6214
 6284TIP3    H240268   5.732   0.469  14.879 -1.8728  0.9609  0.9079
 6285TIP3   OH240269   5.143   7.226  11.017 -0.1067  0.2026  0.3372
 6285TIP3    H140270   5.131   7.286  11.091  0.3823  0.2465  0.3819
 6285TIP3    H240271   5.111   7.275  10.941 -1.5780 -0.2180  0.6603
 6286TIP3   OH240272   7.156   5.693  13.395 -0.2481 -0.4680  0.1181
 6286TIP3    H140273   7.229   5.636  13.373  0.0622  0.2050 -0.5878
 6286TIP3    H240274   7.182   5.780  13.365 -2.6115 -0.7598 -2.9682
 6287TIP3   OH240275   6.721   0.416  13.484  0.1949  0.3112 -0.5625
 6287TIP3    H140276   6.630   0.433  13.462  0.0725  0.9099  0.3354
 6287TIP3    H240277   6.718   0.382  13.574  0.5823 -2.9906 -1.7200
 6288TIP3   OH240278   6.715   2.732  14.978  0.1955 -0.4668  0.3920
 6288TIP3    H140279   6.757   2.659  15.023  1.0449  0.2397  0.7618
 6288TIP3    H240280   6.626   2.703  14.962  0.5660 -1.6278  0.4343
 6289TIP3   OH240281   0.530   6.153  11.157  0.1081  0.2493  0.9833
 6289TIP3    H140282   0.440   6.165  11.127 -0.4091 -2.1258  1.4361
 6289TIP3    H240283   0.539   6.213  11.231 -0.9068  0.9553  0.5368
 6290TIP3   OH240284   0.124   6.392  14.893 -0.7007 -0.5225  0.4262
 6290TIP3    H140285   0.075   6.318  14.927 -0.6630 -1.2449 -1.0665
 6290TIP3    H240286   0.162   6.361  14.811 -0.0939  0.9185  0.1381
 6291TIP3   OH240287   3.151   1.834  14.643  0.8528 -0.2145 -0.4602
 6291TIP3    H140288   3.094   1.809  14.570 -0.1585  1.6645 -0.3356
 6291TIP3    H240289   3.117   1.783  14.717 -0.7863  0.9785 -0.3545
 6292TIP3   OH240290   5.354   5.908  13.026  0.1661  0.0695  0.0382
 6292TIP3    H140291   5.416   5.972  12.989 -0.5639  1.7778  1.7015
 6292TIP3    H240292   5.382   5.897  13.117 -0.2459 -1.3586  0.0106
 6293TIP3   OH240293   6.726   5.430  10.661  0.3955 -0.1052  0.6802
 6293TIP3    H140294   6.788   5.357  10.656 -0.6839 -1.0027  0.0910
 6293TIP3    H240295   6.640   5.388  10.652 -0.1314  1.4958 -2.1217
 6294TIP3   OH240296   5.137   4.905   0.542  0.0290 -0.0779 -1.0596
 6294TIP3    H140297   5.229   4.922   0.563 -0.3230 -1.1188  1.5622
 6294TIP3    H240298   5.117   4.823   0.586 -2.4042  0.6102 -0.7823
 6295TIP3   OH240299   5.610   2.035  14.868 -0.2409  0.0885 -0.3357
 6295TIP3    H140300   5.550   2.058  14.939  0.4818 -0.0691  0.3314
 6295TIP3    H240301   5.611   2.112  14.812  0.0440  0.6465  0.4267
 6296TIP3   OH240302   7.110   1.092  11.552  0.1873  0.3245 -0.1302
 6296TIP3    H140303   7.021   1.097  11.518  0.9057  1.3764 -1.9648
 6296TIP3    H240304   7.101   1.102  11.646 -1.7109 -0.5112 -0.1999
 6297TIP3   OH240305   0.054   2.438  13.433 -0.2160 -0.3926 -0.1542
 6297TIP3    H140306  -0.016   2.422  13.369 -0.4266 -2.2388  0.5024
 6297TIP3    H240307   0.128   2.386  13.402 -0.0280 -0.5962  0.6253
 6298TIP3   OH240308   0.954   1.900  12.355  0.5647 -0.6745  0.0131
 6298TIP3    H140309   0.947   1.811  12.319  1.0344 -0.2748 -1.0852
 6298TIP3    H240310   1.001   1.949  12.288 -0.9636  0.7624 -0.0497
 6299TIP3   OH240311   5.115   5.798  10.556 -0.4931 -0.1370  0.0527
 6299TIP3    H140312   5.141   5.825  10.644  1.2350 -0.9553 -0.1746
 6299TIP3    H240313   5.121   5.878  10.504  0.0994  0.0079  0.3382
 6300TIP3   OH240314   0.371   6.309  15.943  0.6244  0.2962 -0.2888
 6300TIP3    H140315   0.433   6.358  15.888  1.6657  1.0587  1.5001
 6300TIP3    H240316   0.397   6.218  15.934  0.2933  0.3289 -1.6550
 6301TIP3   OH240317   7.169   3.277  10.225 -0.3508 -0.1778 -0.4461
 6301TIP3    H140318   7.255   3.314  10.201  0.0104 -0.6700  0.0713
 6301TIP3    H240319   7.112   3.354  10.233  0.9070  0.5193  2.7421
 6302TIP3   OH240320   5.388   3.196  13.293  0.2540  0.1881 -0.2173
 6302TIP3    H140321   5.297   3.227  13.285  0.2616  0.2096 -0.2196
 6302TIP3    H240322   5.381   3.111  13.336  0.0703 -0.8263 -2.1970
 6303TIP3   OH240323   2.473   6.423  13.430  0.1972 -0.4727 -0.3128
 6303TIP3    H140324   2.507   6.334  13.419 -1.3265 -1.1810  0.6812
 6303TIP3    H240325   2.418   6.419  13.508 -1.0731  0.9943 -1.1011
 6304TIP3   OH240326   6.317   0.480  11.690  0.3465  0.5618  0.7305
 6304TIP3    H140327   6.287   0.570  11.702  0.9153  0.7513  0.7859
 6304TIP3    H240328   6.272   0.449  11.612 -0.0648  0.8028  0.8743
 6305TIP3   OH240329   6.649   7.134  12.210  0.1884  0.5226  0.1082
 6305TIP3    H140330   6.721   7.106  12.154 -0.3862 -0.1283 -0.3136
 6305TIP3    H240331   6.585   7.063  12.203 -0.7177  1.3457  0.0666
 6306TIP3   OH240332   7.004   1.802  11.554  0.0920 -0.4065  0.5176
 6306TIP3    H140333   7.054   1.856  11.493 -1.8963 -0.1848 -0.9909
 6306TIP3    H240334   7.041   1.821  11.640  1.7788  0.6366 -0.4280
 6307TIP3   OH240335   3.410   5.178  10.523 -0.1751  0.3736 -0.1752
 6307TIP3    H140336   3.470   5.151  10.454 -0.2541  0.2965 -0.2136
 6307TIP3    H240337   3.460   5.167  10.604  0.5273  2.1651 -0.3580
 6308TIP3   OH240338   6.615   7.259  11.364 -0.0226  0.6460 -0.4979
 6308TIP3    H140339   6.630   7.182  11.418  2.6287  0.9617 -0.7537
 6308TIP3    H240340   6.531   7.242  11.321  1.5006 -3.0963 -2.2170
 6309TIP3   OH240341   0.213   7.147  13.374 -0.2520  0.3099 -0.4556
 6309TIP3    H140342   0.189   7.232  13.410  1.3636  0.6730 -0.1764
 6309TIP3    H240343   0.206   7.086  13.448  1.2760  0.7195  0.0430
 6310TIP3   OH240344   1.408   1.362  10.793 -0.0103  0.2230 -0.5358
 6310TIP3    H140345   1.404   1.411  10.875 -2.0907  0.8538 -0.9764
 6310TIP3    H240346   1.461   1.417  10.735  0.1589  0.5264 -0.0979
 6311TIP3   OH240347   6.045   6.127  10.369 -0.0069  0.0286  0.2333
 6311TIP3    H140348   5.954   6.115  10.398  0.7031  0.6502  2.7637
 6311TIP3    H240349   6.094   6.059  10.415  0.8482 -0.2624 -1.0798
 6312TIP3   OH240350   6.838   4.333  12.816 -0.7007 -0.3910 -0.0178
 6312TIP3    H140351   6.808   4.333  12.725 -0.3206  0.4619 -0.1453
 6312TIP3    H240352   6.846   4.425  12.839 -1.1813 -0.5926  1.0161
 6313TIP3   OH240353   4.036   6.442  14.519  0.2301  0.2066 -0.2588
 6313TIP3    H140354   3.946   6.409  14.525  0.1196  0.7721  1.5568
 6313TIP3    H240355   4.083   6.394  14.586  0.9648  0.9048 -0.2698
 6314TIP3   OH240356   3.143   3.681  13.520  0.0672 -0.0033  0.6689
 6314TIP3    H140357   3.125   3.741  13.592 -1.8673 -0.3713  0.5157
 6314TIP3    H240358   3.153   3.595  13.562 -3.4156 -0.6392  0.3337
 6315TIP3   OH240359   0.299   6.234  12.090  0.0628 -0.8025 -0.3302
 6315TIP3    H140360   0.333   6.147  12.107 -1.7629 -1.5676 -0.4358
 6315TIP3    H240361   0.251   6.225  12.007 -3.0929 -0.5798  1.3974
 6316TIP3   OH240362   0.102   6.521  13.041 -0.3498 -0.6534  0.2345
 6316TIP3    H140363   0.071   6.430  13.037 -0.6517 -0.6089  1.3697
 6316TIP3    H240364   0.047   6.561  13.109  1.0137 -0.1103  1.0296
 6317TIP3   OH240365   6.107   6.482  12.398 -0.0284 -0.1437 -0.1267
 6317TIP3    H140366   6.083   6.423  12.327 -0.4414  0.6654 -0.6763
 6317TIP3    H240367   6.193   6.452  12.427 -0.4648 -1.3317 -0.0498
 6318TIP3   OH240368   5.410   4.302  14.722 -0.7201  0.0046  0.8576
 6318TIP3    H140369   5.423   4.325  14.814  0.7000 -0.5015  0.8074
 6318TIP3    H240370   5.332   4.247  14.722 -1.0928  0.5220  1.6705
 6319TIP3   OH240371   5.837   5.549  11.054 -0.4005  0.9072  0.0330
 6319TIP3    H140372   5.854   5.637  11.088 -1.9066  0.4519  2.0300
 6319TIP3    H240373   5.873   5.490  11.119 -0.2773  0.0229 -0.8196
 6320TIP3   OH240374   2.246   4.145  12.889 -0.7465  0.2237 -0.1364
 6320TIP3    H140375   2.170   4.140  12.947 -0.7551 -0.9837 -0.2330
 6320TIP3    H240376   2.208   4.158  12.802 -0.6904  3.1084  0.2433
 6321TIP3   OH240377   7.230   7.215  12.444  0.1573  0.0703 -0.4471
 6321TIP3    H140378   7.158   7.152  12.439  0.3660 -0.3802  1.5248
 6321TIP3    H240379   7.186   7.300  12.444 -0.3406 -0.1777  0.0309
 6322TIP3   OH240380   5.589   5.884  15.212  0.0751 -0.2592 -0.2863
 6322TIP3    H140381   5.564   5.834  15.135 -0.7416 -1.2208  0.5880
 6322TIP3    H240382   5.645   5.825  15.262 -0.8254 -0.2923  0.7054
 6323TIP3   OH240383   4.583   0.194  12.783  0.2298  0.0073  0.1358
 6323TIP3    H140384   4.550   0.277  12.748  0.7345 -0.2881 -1.0347
 6323TIP3    H240385   4.632   0.220  12.862 -1.1941  0.6321  0.8392
 6324TIP3   OH240386   7.077   3.549  10.149 -0.3353  0.2540 -0.0776
 6324TIP3    H140387   7.030   3.582  10.073  0.2537  2.3942  0.4267
 6324TIP3    H240388   7.128   3.624  10.179  3.0150 -1.8200 -0.3206
 6325TIP3   OH240389   5.506   0.791  13.561 -0.5318 -0.4700 -0.5856
 6325TIP3    H140390   5.427   0.828  13.602 -0.2503 -0.8468  0.3064
 6325TIP3    H240391   5.574   0.801  13.627 -0.1922 -1.5849 -0.7622
 6326TIP3   OH240392   7.091   4.595  14.357  0.0206 -0.0452 -0.0300
 6326TIP3    H140393   7.153   4.564  14.423  1.7649  0.1024 -1.5432
 6326TIP3    H240394   7.054   4.516  14.319  1.4932 -0.2299 -1.1319
 6327TIP3   OH240395   4.396   0.923  14.101 -0.3298  0.1011 -0.1705
 6327TIP3    H140396   4.377   0.999  14.047  0.0060  1.0100  0.9560
 6327TIP3    H240397   4.371   0.848  14.047  0.0675  0.9722 -1.6023
 6328TIP3   OH240398   5.484   5.309  12.971  0.2582 -0.5768 -0.0004
 6328TIP3    H140399   5.575   5.278  12.970  0.7190  0.7694 -0.4131
 6328TIP3    H240400   5.439   5.246  13.027  1.6615 -0.6782  1.0534
 6329TIP3   OH240401   4.227   2.351  14.100 -0.8312 -0.1351 -0.5942
 6329TIP3    H140402   4.171   2.335  14.176  0.5063 -1.2719  0.1780
 6329TIP3    H240403   4.288   2.278  14.100  2.5233  2.5224  0.3106
 6330TIP3   OH240404   6.363   6.243  13.878  0.0587  0.4463  0.1972
 6330TIP3    H140405   6.443   6.218  13.832  0.3787  0.3109  0.8261
 6330TIP3    H240406   6.386   6.239  13.971 -0.4693  1.1143  0.3617
 6331TIP3   OH240407   6.953   5.728   2.653 -0.0057 -0.4348  0.1375
 6331TIP3    H140408   6.880   5.692   2.602  0.2380 -1.1425  0.2785
 6331TIP3    H240409   7.031   5.703   2.603  0.1304  0.5913 -0.1794
 6332TIP3   OH240410   6.695   5.956  14.317 -0.4350  0.0644 -0.0293
 6332TIP3    H140411   6.673   5.972  14.409 -0.3651 -0.0817  0.0127
 6332TIP3    H240412   6.671   6.037  14.272  0.5652  0.5546  0.2980
 6333TIP3   OH240413   5.391   1.876  14.699 -0.4263  0.4302  0.2903
 6333TIP3    H140414   5.426   1.837  14.619 -0.9632 -1.9775  1.1988
 6333TIP3    H240415   5.467   1.917  14.740 -0.0659  1.3335 -1.2244
 6334TIP3   OH240416   0.225   0.643  12.832 -0.0028 -0.3447 -0.6051
 6334TIP3    H140417   0.171   0.687  12.898  0.5665 -0.0950 -0.3009
 6334TIP3    H240418   0.163   0.601  12.774 -0.5174 -2.3293  1.2930
 6335TIP3   OH240419   1.004   0.156  13.452 -0.1856 -0.1448 -0.4566
 6335TIP3    H140420   1.044   0.111  13.526 -0.4827 -1.0101 -0.8163
 6335TIP3    H240421   0.911   0.159  13.474 -0.2795 -0.4342 -0.8079
 6336TIP3   OH240422   5.016   2.624  15.188 -0.1969  0.5895  0.1823
 6336TIP3    H140423   5.096   2.624  15.135 -0.1545 -1.6363  0.1937
 6336TIP3    H240424   5.034   2.561  15.258 -1.7469  0.4847  0.5105
 6337TIP3   OH240425   4.742   1.043  13.883 -0.1257 -0.0421  0.1079
 6337TIP3    H140426   4.648   1.036  13.867 -0.5089  1.8747  1.2642
 6337TIP3    H240427   4.771   1.115  13.825  0.4504 -0.0275  0.4095
 6338TIP3   OH240428   6.517   5.751  12.553  0.7033  0.5733 -0.0555
 6338TIP3    H140429   6.563   5.729  12.472  0.9901  0.6063  0.0979
 6338TIP3    H240430   6.561   5.829  12.585  0.2945  0.8220 -0.1027
 6339TIP3   OH240431   6.942   6.813  11.952  0.3684  0.9561  0.0647
 6339TIP3    H140432   6.986   6.873  12.012  0.1842  0.2663  0.9064
 6339TIP3    H240433   6.988   6.824  11.869  0.7282  1.8113  0.3716
 6340TIP3   OH240434   0.792   4.354  15.426 -0.4413  0.2892 -0.6450
 6340TIP3    H140435   0.740   4.406  15.488  1.0078  0.7365  0.2227
 6340TIP3    H240436   0.879   4.351  15.465 -0.0827 -1.3909 -1.5360
 6341TIP3   OH240437   6.774   6.404  10.257  0.1072 -0.2963  0.3229
 6341TIP3    H140438   6.744   6.317  10.230 -0.8752  0.2437 -0.3506
 6341TIP3    H240439   6.806   6.444  10.176  0.8043 -0.1176  0.6818
 6342TIP3   OH240440   2.814   5.195  14.481 -0.0099  0.7602  0.5310
 6342TIP3    H140441   2.728   5.229  14.456  0.3142  0.7549 -0.5746
 6342TIP3    H240442   2.814   5.202  14.577 -0.9080  1.5538  0.4882
 6343TIP3   OH240443   4.927   0.167  14.602 -0.3852 -0.2899 -0.1960
 6343TIP3    H140444   4.865   0.238  14.615  0.7970  1.4351 -3.2852
 6343TIP3    H240445   5.012   0.211  14.592  1.3800 -2.5535  3.7378
 6344TIP3   OH240446   0.267   5.389  13.175 -0.1829 -0.2882 -0.0984
 6344TIP3    H140447   0.278   5.421  13.085  1.2767 -0.1901  0.1089
 6344TIP3    H240448   0.219   5.307  13.165 -0.6549  0.0781 -0.9069
 6345TIP3   OH240449   6.677   4.257  12.559 -0.0879  0.2389  0.0661
 6345TIP3    H140450   6.587   4.263  12.527 -0.4795 -0.6556  0.9564
 6345TIP3    H240451   6.669   4.214  12.644  1.2589 -0.5717 -0.2032
 6346TIP3   OH240452   7.045   4.327  12.118 -0.2453  0.0523  0.7144
 6346TIP3    H140453   7.082   4.353  12.034  0.5734  0.8570  1.3078
 6346TIP3    H240454   7.111   4.353  12.182  0.2138 -2.7017  1.4140
 6347TIP3   OH240455   4.321   2.794  13.804  0.2993 -0.4844 -0.4030
 6347TIP3    H140456   4.338   2.886  13.785 -0.0213 -0.4297 -0.4229
 6347TIP3    H240457   4.350   2.782  13.894 -3.5506  0.6700  1.0954
 6348TIP3   OH240458   5.139   6.257  14.170  0.1071  0.5824  0.4578
 6348TIP3    H140459   5.187   6.337  14.192 -0.5763  0.5053  2.2622
 6348TIP3    H240460   5.051   6.270  14.204 -0.1176 -0.7980  0.4578
 6349TIP3   OH240461   3.850   2.980  12.256 -0.4819 -0.5114 -0.1131
 6349TIP3    H140462   3.830   3.027  12.174  0.4052  0.2194  0.0838
 6349TIP3    H240463   3.931   3.020  12.287 -0.2430 -1.5258  0.5694
 6350TIP3   OH240464   0.582   7.216  14.015  0.1795 -0.4169 -0.3827
 6350TIP3    H140465   0.504   7.168  14.042  0.7112 -1.4786 -0.7288
 6350TIP3    H240466   0.552   7.275  13.946 -0.0521 -1.8103 -1.4831
 6351TIP3   OH240467   1.692   6.149  12.921 -0.0826 -0.4188  0.1474
 6351TIP3    H140468   1.762   6.112  12.866  0.0671  0.7120 -0.4283
 6351TIP3    H240469   1.666   6.229  12.875 -1.4490 -0.6037  0.5999
 6352TIP3   OH240470   0.801   0.377  14.603  0.4606  0.4079 -0.3933
 6352TIP3    H140471   0.839   0.442  14.544 -0.9415  1.6774  0.0710
 6352TIP3    H240472   0.851   0.386  14.684  0.0901  1.0911 -0.2417
 6353TIP3   OH240473   4.396   5.709  10.750  0.7104 -0.1605 -0.1915
 6353TIP3    H140474   4.314   5.664  10.730  1.0193 -1.2046  0.8718
 6353TIP3    H240475   4.403   5.776  10.682 -0.5051 -0.7299 -0.9014
 6354TIP3   OH240476   0.946   4.606  12.126 -0.2155  0.2205  0.0200
 6354TIP3    H140477   0.998   4.650  12.060  1.7153  0.3584  1.5997
 6354TIP3    H240478   0.997   4.529  12.150 -2.1609 -1.2804 -0.5680
 6355TIP3   OH240479   3.890   7.006  12.146 -0.2912  0.7392 -0.2953
 6355TIP3    H140480   3.927   7.026  12.060  0.5328 -0.0820 -0.1394
 6355TIP3    H240481   3.964   6.974  12.198 -1.4000 -1.9183 -0.2864
 6356TIP3   OH240482   3.459   0.934  14.224 -0.2268  0.7345  0.4342
 6356TIP3    H140483   3.536   0.991  14.223  0.8137 -0.5864  2.4992
 6356TIP3    H240484   3.408   0.964  14.299 -0.1640 -0.3676  0.9303
 6357TIP3   OH240485   6.480   2.023  14.083  0.7823  0.1102 -0.1481
 6357TIP3    H140486   6.576   2.027  14.082  0.7610  1.7630  0.9472
 6357TIP3    H240487   6.457   2.038  14.175 -0.5015 -1.3431 -0.2233
 6358TIP3   OH240488   0.256   1.716  12.601  0.5250  0.4112 -0.0536
 6358TIP3    H140489   0.161   1.718  12.616  0.7108 -0.1557  1.2346
 6358TIP3    H240490   0.264   1.711  12.506 -0.7386  0.3144 -0.1735
 6359TIP3   OH240491   6.184   4.070  14.365 -0.7089 -0.5649 -0.5290
 6359TIP3    H140492   6.198   4.165  14.362 -0.4832 -0.5971 -0.5085
 6359TIP3    H240493   6.092   4.060  14.389 -0.3916 -0.3606  0.7652
 6360TIP3   OH240494   6.001   4.133  13.020 -0.2401 -0.4165  0.1731
 6360TIP3    H140495   6.095   4.115  13.013  0.0231  1.0997 -0.3737
 6360TIP3    H240496   5.985   4.140  13.114  0.1612 -0.7787  0.2729
 6361TIP3   OH240497   6.065   2.007  11.708  0.1386  0.1835 -0.3867
 6361TIP3    H140498   6.051   1.927  11.758  0.2698 -0.1346 -0.8516
 6361TIP3    H240499   5.977   2.034  11.682  0.1355 -0.1044 -0.6797
 6362TIP3   OH240500   0.686   0.564  11.720  0.4354 -0.0765  0.2608
 6362TIP3    H140501   0.711   0.484  11.765 -2.3601 -0.8027  0.6216
 6362TIP3    H240502   0.725   0.556  11.633  2.1603 -0.7048  1.0722
 6363TIP3   OH240503   7.285   0.493  12.167  0.4131 -0.0934  0.1296
 6363TIP3    H140504   7.334   0.440  12.230  0.1489 -1.2436 -0.6045
 6363TIP3    H240505   7.328   0.475  12.083 -0.7429 -0.4752 -0.3896
 6364TIP3   OH240506   2.030   2.754  10.848 -0.3824 -0.2806  0.1905
 6364TIP3    H140507   2.076   2.835  10.868 -1.4732  0.3908  0.0109
 6364TIP3    H240508   1.958   2.751  10.911 -0.2539 -1.1929  0.3024
 6365TIP3   OH240509   4.630   3.136  13.095 -0.7444  0.6270  0.1369
 6365TIP3    H140510   4.553   3.147  13.151 -1.2741  0.1430 -0.4893
 6365TIP3    H240511   4.703   3.128  13.157 -1.2351  0.7775  0.7412
 6366TIP3   OH240512   1.752   6.280  15.041  0.2597 -0.2117 -0.6792
 6366TIP3    H140513   1.676   6.310  15.091  0.9559 -0.0335  0.2780
 6366TIP3    H240514   1.822   6.272  15.105  1.6747  1.7811 -1.8900
 6367TIP3   OH240515   5.546   1.869   0.628  0.0989 -0.0933  0.2522
 6367TIP3    H140516   5.602   1.795   0.603  2.7559  1.6432  0.8952
 6367TIP3    H240517   5.501   1.893   0.547 -1.5788 -2.9738  0.2362
 6368TIP3   OH240518   6.160   6.473  12.671  0.1436 -0.3624 -0.1783
 6368TIP3    H140519   6.255   6.483  12.668  0.3208 -1.2964  1.3445
 6368TIP3    H240520   6.147   6.383  12.701 -1.1987  0.1661  0.9064
 6369TIP3   OH240521   7.227   5.247  13.745  0.5671 -0.6828 -0.0612
 6369TIP3    H140522   7.242   5.198  13.825 -2.5923  0.8648  1.6064
 6369TIP3    H240523   7.260   5.335  13.764 -0.9892 -0.0705 -0.0772
 6370TIP3   OH240524   0.312   7.175  15.044  0.3472 -0.1728  0.1892
 6370TIP3    H140525   0.282   7.231  14.974  0.7274 -0.8057 -0.4894
 6370TIP3    H240526   0.405   7.196  15.053  0.0937  0.5865  1.1514
 6371TIP3   OH240527   7.046   1.636  11.219  0.2067 -0.2714 -0.2395
 6371TIP3    H140528   7.022   1.582  11.143  0.3203 -0.6320 -0.0196
 6371TIP3    H240529   7.117   1.691  11.187 -0.2709  0.1346 -0.6255
 6372TIP3   OH240530   1.131   6.538   0.546  0.2342  0.1398 -0.2481
 6372TIP3    H140531   1.142   6.473   0.477 -0.1804  1.3580 -1.4881
 6372TIP3    H240532   1.209   6.594   0.540  1.3348 -1.1257  1.8059
 6373TIP3   OH240533   5.696   0.972  15.806 -0.1714  0.3876  0.1202
 6373TIP3    H140534   5.668   1.043  15.749  2.2060  0.9967 -0.3372
 6373TIP3    H240535   5.629   0.968  15.874 -0.7700  2.5049 -0.3129
 6374TIP3   OH240536   0.392   1.901  14.140  0.0808 -0.2013  0.0571
 6374TIP3    H140537   0.332   1.827  14.146  0.4585 -0.3604  2.1601
 6374TIP3    H240538   0.351   1.971  14.190 -0.1009  0.9289 -1.6139
 6375TIP3   OH240539   0.061   0.048  15.110  0.0461 -0.1705 -0.2376
 6375TIP3    H140540  -0.011   0.086  15.061  0.1949 -0.2299 -0.5043
 6375TIP3    H240541   0.076  -0.038  15.069  0.4764 -0.0237 -0.3922
 6376TIP3   OH240542   1.706   0.430  13.098  0.3239  0.2631 -0.0439
 6376TIP3    H140543   1.621   0.404  13.134 -0.1414  1.2211 -0.4321
 6376TIP3    H240544   1.738   0.351  13.054  0.0238 -0.3522  0.8087
 6377TIP3   OH240545   2.868   2.416  15.089 -0.1620 -0.0212  0.0234
 6377TIP3    H140546   2.947   2.470  15.094  0.2902 -0.4003 -2.2777
 6377TIP3    H240547   2.891   2.347  15.026 -2.4949  0.1593 -1.0544
 6378TIP3   OH240548   2.832   5.256  14.794  0.4415  0.4379  0.2451
 6378TIP3    H140549   2.903   5.318  14.779 -0.3382  1.4688  0.7252
 6378TIP3    H240550   2.759   5.291  14.741  0.4699 -0.9331 -0.7284
 6379TIP3   OH240551   4.878   0.944  15.678 -0.5945  0.1620 -0.2041
 6379TIP3    H140552   4.819   0.917  15.608 -0.4316 -0.7190 -0.0080
 6379TIP3    H240553   4.964   0.954  15.636 -1.0509  2.3535 -0.6769
 6380TIP3   OH240554   6.642   6.095  14.680  0.4480  0.0160 -0.5409
 6380TIP3    H140555   6.731   6.084  14.647  0.9763  3.2360 -0.3264
 6380TIP3    H240556   6.653   6.106  14.775 -0.0803  1.0685 -0.5895
 6381TIP3   OH240557   1.854   3.578   0.517 -0.5741  0.2635  0.2796
 6381TIP3    H140558   1.803   3.515   0.569 -2.8221  1.8624  0.0670
 6381TIP3    H240559   1.814   3.663   0.536  0.4753  1.2533 -1.7731
 6382TIP3   OH240560   0.761   2.183  14.232  0.3155  0.2398  0.5033
 6382TIP3    H140561   0.785   2.096  14.200  1.5331  0.5176  0.6510
 6382TIP3    H240562   0.764   2.175  14.328  0.1252  0.3584  0.5183
 6383TIP3   OH240563   0.112   3.986  13.518 -0.1258  0.4586  0.2660
 6383TIP3    H140564   0.049   4.035  13.465  1.2280 -0.1884 -1.9830
 6383TIP3    H240565   0.100   3.895  13.491 -0.4948 -0.1039  2.2169
 6384TIP3   OH240566   5.421   1.648  12.170  0.3892 -0.0257  0.2675
 6384TIP3    H140567   5.357   1.616  12.234  0.1694  0.3930  0.2620
 6384TIP3    H240568   5.369   1.704  12.111  1.0473  1.5373  1.1603
 6385TIP3   OH240569   0.611   2.155   2.840  0.3826  0.3194 -0.4583
 6385TIP3    H140570   0.517   2.165   2.854  0.2547 -1.8164  0.3884
 6385TIP3    H240571   0.644   2.123   2.924  1.3298 -2.1239 -1.7030
 6386TIP3   OH240572   6.520   2.062  15.079  0.6088  0.5250  0.5849
 6386TIP3    H140573   6.425   2.057  15.068  0.6336 -0.5140  0.7703
 6386TIP3    H240574   6.555   2.061  14.990  0.4619  0.6468  0.5253
 6387TIP3   OH240575   4.608   2.614  14.046 -0.0154 -0.5534 -0.5119
 6387TIP3    H140576   4.512   2.605  14.046 -0.1930  1.2459 -0.7549
 6387TIP3    H240577   4.638   2.542  14.101 -1.5977 -0.3693  0.6397
 6388TIP3   OH240578   6.729   3.935   1.696  0.2764  0.3706 -0.3540
 6388TIP3    H140579   6.773   4.020   1.694  1.0026 -0.0102 -0.5679
 6388TIP3    H240580   6.797   3.873   1.723  0.1560 -0.3816 -1.6904
 6389TIP3   OH240581   3.594   2.431   1.074 -0.7113 -0.7909  0.2841
 6389TIP3    H140582   3.583   2.520   1.039 -2.4650 -1.1220 -0.0573
 6389TIP3    H240583   3.584   2.374   0.998 -1.7852 -1.3796  0.8538
 6390TIP3   OH240584   1.554   0.706   1.746 -0.1321 -0.0298 -0.2327
 6390TIP3    H140585   1.520   0.748   1.667  0.0494  0.7346  0.0876
 6390TIP3    H240586   1.592   0.778   1.797  1.3945 -0.7637 -0.3025
 6391TIP3   OH240587   7.201   2.890  11.531  0.4459 -0.1069 -0.4147
 6391TIP3    H140588   7.215   2.884  11.436 -2.1505  1.0461 -0.9221
 6391TIP3    H240589   7.247   2.970  11.556  0.3881  0.0765 -0.8762
 6392TIP3   OH240590   7.224   0.451  14.132 -0.5090  0.0402  0.1845
 6392TIP3    H140591   7.250   0.406  14.212  0.4238 -1.5851 -0.9932
 6392TIP3    H240592   7.189   0.381  14.076  2.0040  0.5512 -2.1376
 6393TIP3   OH240593   2.796   4.686   3.804 -0.8422 -0.0527 -0.3411
 6393TIP3    H140594   2.874   4.650   3.846 -0.7207  0.1935 -0.3545
 6393TIP3    H240595   2.797   4.779   3.827 -1.2931 -0.1040 -0.0880
 6394TIP3   OH240596   4.635   3.170  13.551 -0.7219  0.0226  0.1462
 6394TIP3    H140597   4.708   3.111  13.566 -1.5914 -0.9483  0.6150
 6394TIP3    H240598   4.628   3.222  13.631 -2.5891 -2.1349  1.4279
 6395TIP3   OH240599   1.108   1.830   0.834 -0.0160  0.1442  0.5611
 6395TIP3    H140600   1.161   1.752   0.815  0.0722  0.0606  1.1409
 6395TIP3    H240601   1.136   1.857   0.921  0.8244  1.5353 -0.1145
 6396TIP3   OH240602   1.158   1.710  15.797  0.3450 -0.1339 -0.1809
 6396TIP3    H140603   1.095   1.763  15.749 -2.4048 -0.6232  2.7095
 6396TIP3    H240604   1.219   1.773  15.835 -0.1872  0.5965 -0.5404
 6397TIP3   OH240605   3.298   3.825  13.753 -0.2983  0.3975 -0.1724
 6397TIP3    H140606   3.323   3.909  13.715 -0.7313  0.8479  0.5120
 6397TIP3    H240607   3.203   3.833  13.767 -0.4606 -0.4633 -0.7389
 6398TIP3   OH240608   1.137   2.522  14.748 -0.5649  0.0353  0.4459
 6398TIP3    H140609   1.225   2.560  14.746 -0.2769 -0.6555 -0.3516
 6398TIP3    H240610   1.079   2.596  14.768  0.1261  0.6209  0.2992
 6399TIP3   OH240611   6.283   1.805  14.866 -0.5443 -0.3186 -0.5183
 6399TIP3    H140612   6.364   1.754  14.861 -0.2302  0.2293 -1.0815
 6399TIP3    H240613   6.224   1.762  14.804 -0.6778 -0.6946 -0.1364
 6400TIP3   OH240614   5.273   2.218  14.731 -0.0518  0.0417 -0.3291
 6400TIP3    H140615   5.299   2.300  14.689 -2.5872  0.7141 -0.6474
 6400TIP3    H240616   5.288   2.232  14.824 -1.6085  1.3196 -0.2577
 6401TIP3   OH240617   3.678   3.806  14.519  0.1767 -0.0042  0.4951
 6401TIP3    H140618   3.714   3.879  14.468  1.4262 -0.6822  0.3935
 6401TIP3    H240619   3.679   3.732  14.459 -3.5084  0.4279 -0.2500
 6402TIP3   OH240620   0.362   4.221  15.258  0.2645 -0.6122 -0.7592
 6402TIP3    H140621   0.383   4.310  15.233  0.7923 -1.0289 -1.8046
 6402TIP3    H240622   0.440   4.190  15.304 -0.4534 -0.0705  0.8775
 6403TIP3   OH240623   4.397   4.338   0.285  0.4070  0.5629 -0.4617
 6403TIP3    H140624   4.343   4.268   0.249 -0.3613  1.3130 -0.8013
 6403TIP3    H240625   4.487   4.315   0.262  0.3816 -1.3523  1.1984
 6404TIP3   OH240626   0.824   0.405  15.673  0.4199  0.5157 -0.4272
 6404TIP3    H140627   0.768   0.342  15.719 -1.4651  2.0514 -0.5916
 6404TIP3    H240628   0.865   0.456  15.743  0.5999  0.2659 -0.3496
 6405TIP3   OH240629   2.040   1.621  14.719  0.1989  0.2091  0.1613
 6405TIP3    H140630   2.082   1.642  14.635 -0.5222  1.4118  0.0863
 6405TIP3    H240631   2.099   1.658  14.785 -0.4899  1.4926  0.0745
 6406TIP3   OH240632   1.542   2.602  14.716  0.6063 -0.0678  0.0982
 6406TIP3    H140633   1.635   2.600  14.739  1.0896 -3.2476 -1.7469
 6406TIP3    H240634   1.535   2.669  14.648  1.6541 -0.2257 -0.1719
 6407TIP3   OH240635   6.972   3.325  14.121 -0.5461  0.0874 -0.1586
 6407TIP3    H140636   7.008   3.356  14.038 -0.7301  0.1869 -0.2008
 6407TIP3    H240637   7.030   3.253  14.147  1.2826  1.9461  1.0949
 6408TIP3   OH240638   2.038   1.001  13.537 -0.1041  0.3061 -0.1363
 6408TIP3    H140639   2.127   0.969  13.520  0.2254  1.5123 -0.6998
 6408TIP3    H240640   2.050   1.076  13.595 -0.8206 -0.1140  0.5540
 6409TIP3   OH240641   0.224   2.381  15.996 -0.4705  0.0599  0.0937
 6409TIP3    H140642   0.204   2.312  15.932  2.3707  0.6016 -1.4713
 6409TIP3    H240643   0.303   2.350  16.040 -0.9365  0.9105  1.5541
 6410TIP3   OH240644   0.374   2.331  13.535  0.2984 -0.2906 -0.1608
 6410TIP3    H140645   0.427   2.334  13.614 -1.7744 -1.8858  1.3656
 6410TIP3    H240646   0.342   2.421  13.524  1.1832  0.0932  0.4119
 6411TIP3   OH240647   1.430   3.832  13.843 -0.0523 -0.3855  0.6246
 6411TIP3    H140648   1.377   3.868  13.913  0.2051 -0.0649  0.6547
 6411TIP3    H240649   1.368   3.785  13.787 -0.4316  0.3846  0.3967
 6412TIP3   OH240650   3.104   3.825   0.638  0.1091 -0.4158  0.0034
 6412TIP3    H140651   3.089   3.765   0.712  0.3573 -0.1418  0.2749
 6412TIP3    H240652   3.110   3.767   0.562  0.0766 -0.7183  0.2284
 6413TIP3   OH240653   4.687   3.248   1.369 -0.3515 -0.4246  0.3382
 6413TIP3    H140654   4.766   3.218   1.414  0.3139 -0.0360 -0.5504
 6413TIP3    H240655   4.633   3.170   1.360 -0.3417 -0.5695  1.4994
 6414TIP3   OH240656   0.568   0.381  14.147 -0.6747 -0.4571  0.0989
 6414TIP3    H140657   0.636   0.324  14.113 -1.5618 -1.7015  0.3654
 6414TIP3    H240658   0.595   0.469  14.122  0.2461 -1.0742 -1.1067
 6415TIP3   OH240659   0.366   0.438  15.140  0.3652  0.3258 -0.0432
 6415TIP3    H140660   0.340   0.346  15.149 -3.4851  1.4850  1.7550
 6415TIP3    H240661   0.351   0.459  15.048 -1.5271 -0.0649  0.1717
 6416TIP3   OH240662   1.961   0.272  15.560  0.0840 -0.0493 -0.6259
 6416TIP3    H140663   1.970   0.338  15.629 -0.3310 -1.8239  1.1451
 6416TIP3    H240664   2.021   0.302  15.491  1.0124  1.3886  0.7640
 6417TIP3   OH240665   5.250   1.770  13.566  0.0001  0.3420  0.1524
 6417TIP3    H140666   5.260   1.857  13.527  0.4209 -0.0855 -0.6994
 6417TIP3    H240667   5.334   1.754  13.609 -0.3544  0.6816  1.0039
 6418TIP3   OH240668   0.796   2.450  13.863 -0.5929  0.1187  0.0733
 6418TIP3    H140669   0.732   2.379  13.874  0.6656 -0.9015  1.0170
 6418TIP3    H240670   0.775   2.511  13.934  0.5163 -1.0392  1.4256
 6419TIP3   OH240671   0.837   3.514  15.917 -0.2958 -0.0112 -0.0903
 6419TIP3    H140672   0.844   3.500  16.011  0.3266  0.6853 -0.0280
 6419TIP3    H240673   0.920   3.482  15.881 -1.0130 -1.4075 -0.5485
 6420TIP3   OH240674   6.721   2.468   1.746 -0.4982  0.0168 -0.2161
 6420TIP3    H140675   6.654   2.482   1.814 -1.4872  2.4075 -1.6095
 6420TIP3    H240676   6.678   2.411   1.682 -0.6646  0.3072 -0.3636
 6421TIP3   OH240677   2.885   0.798  15.053  0.3462  0.7418 -0.5205
 6421TIP3    H140678   2.897   0.886  15.089 -0.4557  0.9378 -0.7323
 6421TIP3    H240679   2.926   0.740  15.118  1.0513  1.2821 -0.4755
 6422TIP3   OH240680   0.651   0.970  11.967 -0.7552 -0.3768 -0.1696
 6422TIP3    H140681   0.638   0.877  11.952  0.7198 -0.3921 -1.5231
 6422TIP3    H240682   0.685   0.975  12.057  5.5355 -1.8576 -2.1842
 6423TIP3   OH240683   0.072   2.704  14.885  0.4188  0.1791 -0.1686
 6423TIP3    H140684  -0.013   2.740  14.860 -0.4317 -0.5263  1.5888
 6423TIP3    H240685   0.118   2.779  14.925  0.0278  0.2065  0.2428
 6424TIP3   OH240686   3.802   1.081  15.845  0.0416 -0.4300  0.4529
 6424TIP3    H140687   3.827   1.150  15.783  0.8011 -1.0898  0.0244
 6424TIP3    H240688   3.741   1.026  15.797  0.7170 -1.0070  0.2531
 6425TIP3   OH240689   2.157   1.588  12.758 -0.1626  0.1699 -0.0356
 6425TIP3    H140690   2.095   1.530  12.803  0.6188  0.3233  1.2821
 6425TIP3    H240691   2.180   1.654  12.824  0.5115  0.7891 -0.8755
 6426TIP3   OH240692   0.578   3.366   1.259 -0.0013  0.1816 -0.1132
 6426TIP3    H140693   0.516   3.363   1.332  1.4254 -0.9781  1.0860
 6426TIP3    H240694   0.632   3.443   1.277 -0.0697  0.2750 -0.3068
 6427TIP3   OH240695   7.288   0.457  15.329  0.1836 -0.8345  0.3702
 6427TIP3    H140696   7.210   0.429  15.282 -0.8046 -0.7735  1.9286
 6427TIP3    H240697   7.261   0.535  15.377  1.4700 -0.2449  0.1665
 6428TIP3   OH240698   0.483   0.435  15.400 -0.3637  0.0170 -0.3940
 6428TIP3    H140699   0.440   0.449  15.315  2.9408 -1.2101 -2.3719
 6428TIP3    H240700   0.444   0.354  15.433 -1.7983  0.5921 -0.6712
 6429TIP3   OH240701   6.933   1.174   0.191  0.2855  0.4529 -0.3009
 6429TIP3    H140702   6.929   1.113   0.117  1.2977 -0.9292  0.7661
 6429TIP3    H240703   6.844   1.206   0.200 -0.7107 -2.3364  0.3278
 6430TIP3   OH240704   2.128   1.921  13.605 -0.2540 -0.1782 -0.1983
 6430TIP3    H140705   2.217   1.953  13.619 -0.4070 -0.3729  1.2864
 6430TIP3    H240706   2.072   1.986  13.648 -0.9001  0.4276 -1.9002
 6431TIP3   OH240707   0.486   4.716  15.068 -0.7005  0.1672 -0.1321
 6431TIP3    H140708   0.412   4.656  15.058  0.8957 -1.8097 -0.1909
 6431TIP3    H240709   0.499   4.722  15.163 -1.0221  0.6470 -0.1137
 6432TIP3   OH240710   1.996   0.170  14.421 -0.3075  0.4035 -0.3587
 6432TIP3    H140711   1.913   0.187  14.466 -0.0154  1.3400 -0.1774
 6432TIP3    H240712   2.002   0.238  14.354 -1.0549 -1.3797 -2.2949
 6433TIP3   OH240713   1.296   0.912   0.319 -0.3508 -0.6110 -0.1844
 6433TIP3    H140714   1.256   0.937   0.403 -1.3646 -0.9127 -0.5683
 6433TIP3    H240715   1.246   0.835   0.292 -1.3376  0.6475 -2.0216
 6434TIP3   OH240716   5.682   2.175  10.573  0.0327  0.2225  0.3376
 6434TIP3    H140717   5.681   2.080  10.573  1.6767  0.1930  0.2319
 6434TIP3    H240718   5.697   2.199  10.482 -0.4064  0.5926  0.3563
 6435TIP3   OH240719   0.632   6.377  15.125  0.9292  0.3716 -0.4351
 6435TIP3    H140720   0.687   6.444  15.085  0.0720  0.3830 -1.6122
 6435TIP3    H240721   0.548   6.384  15.079  0.5280 -0.8637  0.0865
 6436TIP3   OH240722   0.238   0.076   0.906 -0.3156  0.2175  0.0172
 6436TIP3    H140723   0.165   0.074   0.844  2.0537 -0.7260 -2.8889
 6436TIP3    H240724   0.290   0.151   0.878  0.4449  0.1688  1.2906
 6437TIP3   OH240725   4.809   2.025  13.574 -0.1518  0.2062  0.7329
 6437TIP3    H140726   4.735   2.079  13.602  0.6414  1.5744  0.1816
 6437TIP3    H240727   4.874   2.087  13.541  0.2142 -1.1454 -1.1850
 6438TIP3   OH240728   0.669   1.199  12.560 -0.1276 -0.3407 -0.0190
 6438TIP3    H140729   0.696   1.134  12.495 -0.5507 -0.1682 -0.3722
 6438TIP3    H240730   0.580   1.224  12.534  1.0765  2.5895 -1.7063
 6439TIP3   OH240731   5.093   0.159  12.602  0.4164  0.0885 -0.1729
 6439TIP3    H140732   5.059   0.225  12.663 -0.4471 -0.1084 -0.4267
 6439TIP3    H240733   5.188   0.168  12.607  0.3162  1.1097  0.0684
 6440TIP3   OH240734   6.256   2.077  15.101 -0.0637  0.0749  0.0431
 6440TIP3    H140735   6.166   2.075  15.069 -0.5561  1.0042  1.3536
 6440TIP3    H240736   6.267   2.164  15.139  1.3508 -0.0681  0.0006
 6441TIP3   OH240737   6.452   6.915  12.226  0.4974 -0.5136  0.4266
 6441TIP3    H140738   6.392   6.923  12.152  1.8073 -0.9296 -0.7040
 6441TIP3    H240739   6.448   6.823  12.250  0.4134 -0.4707  0.5757
 6442TIP3   OH240740   6.424   2.666  13.976 -0.1813 -0.1372 -0.2998
 6442TIP3    H140741   6.463   2.605  13.913 -0.2355  1.8537 -2.3259
 6442TIP3    H240742   6.331   2.643  13.976 -0.1015 -0.4705 -0.5677
 6443TIP3   OH240743   6.836   5.774  14.215  0.3377 -0.6825 -0.2345
 6443TIP3    H140744   6.780   5.847  14.242  1.2466 -0.1845  0.3311
 6443TIP3    H240745   6.782   5.697  14.231 -0.1101 -0.2291  0.5467
 6444TIP3   OH240746   4.228   1.392  15.217 -0.1118 -0.2996 -0.8210
 6444TIP3    H140747   4.274   1.356  15.141 -0.5535  0.5780 -1.5127
 6444TIP3    H240748   4.157   1.444  15.179 -0.3621  0.1027  0.1979
 6445TIP3   OH240749   2.194   4.173  15.573 -0.0449 -0.5458  0.1026
 6445TIP3    H140750   2.201   4.260  15.611  0.6254 -0.8008  0.5735
 6445TIP3    H240751   2.141   4.124  15.636  0.4309 -0.7549  0.3470
 6446TIP3   OH240752   6.842   2.895  15.153 -0.5610 -0.1599  0.6131
 6446TIP3    H140753   6.762   2.946  15.164 -0.3209  0.3466  0.0523
 6446TIP3    H240754   6.824   2.837  15.079  0.7083  2.2346 -1.6627
 6447TIP3   OH240755   2.424   1.331  15.797  0.1998 -0.0872 -0.1354
 6447TIP3    H140756   2.416   1.315  15.703 -1.7500  0.4096 -0.0693
 6447TIP3    H240757   2.370   1.264  15.838  1.1311 -0.3720  0.6577
 6448TIP3   OH240758   0.212   6.063  13.455  0.6035  0.1404  0.1497
 6448TIP3    H140759   0.248   6.050  13.368  0.0921  4.0664 -0.7403
 6448TIP3    H240760   0.288   6.064  13.513  1.2210  0.6769 -0.6709
 6449TIP3   OH240761   2.642   2.638  14.157 -0.4645  0.3144  0.2223
 6449TIP3    H140762   2.699   2.575  14.112 -0.8838 -0.1229  0.3095
 6449TIP3    H240763   2.661   2.625  14.250 -1.1116 -0.2083  0.2778
 6450TIP3   OH240764   1.304   2.958  12.309 -0.4693  0.1659 -0.3889
 6450TIP3    H140765   1.213   2.927  12.309 -1.0343  1.6759  1.7166
 6450TIP3    H240766   1.306   3.027  12.243 -0.2156 -1.4767 -2.1570
 6451TIP3   OH240767   0.258   5.369   0.278 -0.3311 -0.2525 -0.0269
 6451TIP3    H140768   0.294   5.295   0.327  0.4593  1.4247  2.0016
 6451TIP3    H240769   0.327   5.435   0.279 -1.5331  1.0528 -0.5624
 6452TIP3   OH240770   7.035   3.607  12.554 -0.4036 -0.3436  0.3742
 6452TIP3    H140771   7.041   3.684  12.611 -0.9582 -0.9596  1.2675
 6452TIP3    H240772   6.966   3.629  12.492  0.6046  0.5711 -0.4441
 6453TIP3   OH240773   1.307   2.587  13.847  0.1739 -0.4135 -0.1306
 6453TIP3    H140774   1.394   2.549  13.838  0.3496 -0.1492  0.4037
 6453TIP3    H240775   1.287   2.624  13.761  0.3537 -0.9773 -0.4103
 6454TIP3   OH240776   1.101   2.741  15.734  0.2750 -0.4498 -0.2514
 6454TIP3    H140777   1.114   2.650  15.759  0.1973 -0.2903  0.3984
 6454TIP3    H240778   1.103   2.789  15.817  0.4678  0.1566 -0.6008
 6455TIP3   OH240779   3.707   2.909   0.263 -0.0769 -0.5083 -0.2967
 6455TIP3    H140780   3.681   2.819   0.283 -0.5154  0.2215  2.7305
 6455TIP3    H240781   3.798   2.914   0.289  0.2001 -0.2863 -1.2781
 6456TIP3   OH240782   4.676   1.513   1.774  0.1686 -0.2260 -0.0649
 6456TIP3    H140783   4.621   1.548   1.844  0.4885  0.0448  0.0560
 6456TIP3    H240784   4.624   1.442   1.736  0.2223 -0.7377  0.7973
 6457TIP3   OH240785   6.220   3.344   1.097 -0.2933  0.5419 -0.3285
 6457TIP3    H140786   6.217   3.439   1.106  0.1160  0.4303  1.0440
 6457TIP3    H240787   6.311   3.320   1.113 -0.2447 -0.0284 -1.3625
 6458TIP3   OH240788   1.114   2.267  13.645  0.2832  0.0463  0.1273
 6458TIP3    H140789   1.093   2.181  13.608  0.7967  0.2447 -0.6438
 6458TIP3    H240790   1.037   2.320  13.627  0.5277  0.1391 -0.6509
 6459TIP3   OH240791   6.865   2.535  15.123  0.2248  0.3013 -0.5387
 6459TIP3    H140792   6.957   2.514  15.107 -0.0994  0.5511 -3.0336
 6459TIP3    H240793   6.822   2.450  15.130  0.6996  0.1849  1.0213
 6460TIP3   OH240794   1.611   1.170   1.096 -0.5341 -0.2980  1.3408
 6460TIP3    H140795   1.543   1.211   1.043 -0.8943 -2.1027  0.3579
 6460TIP3    H240796   1.604   1.213   1.182 -1.6567  0.8419  0.6868
 6461TIP3   OH240797   2.484   2.853  14.206 -0.3127 -0.0777  0.0283
 6461TIP3    H140798   2.523   2.767  14.189  0.8854  0.7625 -1.6367
 6461TIP3    H240799   2.530   2.886  14.283  1.3960  0.3378 -1.1299
 6462TIP3   OH240800   1.055   2.008  14.362 -0.1347 -0.3095 -0.1942
 6462TIP3    H140801   1.079   2.025  14.270 -2.4044  0.6888 -0.6194
 6462TIP3    H240802   1.057   2.094  14.403 -1.6433 -0.3975  0.0789
 6463TIP3   OH240803   6.976   4.092  12.840 -0.0649 -0.8222 -0.1126
 6463TIP3    H140804   6.978   4.091  12.936  0.5833 -2.5421 -0.1289
 6463TIP3    H240805   6.928   4.172  12.818 -0.6304 -0.6515  1.6477
 6464TIP3   OH240806   0.120   4.554  12.158  0.0850  0.0594  0.5775
 6464TIP3    H140807   0.206   4.549  12.199 -0.0417  0.1637  0.8616
 6464TIP3    H240808   0.115   4.641  12.121 -0.0036  0.1511  0.8025
 6465TIP3   OH240809   1.912   0.871  11.644  0.3513 -0.6510 -0.0615
 6465TIP3    H140810   1.874   0.802  11.697  1.0861  0.0073  1.3578
 6465TIP3    H240811   1.984   0.829  11.597  2.0394 -0.4762  2.2654
 6466TIP3   OH240812   0.294   2.389  15.057  0.0596 -0.0986  0.1868
 6466TIP3    H140813   0.293   2.345  14.973  1.0727 -0.4831  0.3721
 6466TIP3    H240814   0.366   2.348  15.106 -1.3747 -0.8127  1.7449
 6467TIP3   OH240815   6.922   6.362  13.570  0.2788 -0.8828 -0.0780
 6467TIP3    H140816   6.880   6.433  13.521  2.1802  0.6775  0.5055
 6467TIP3    H240817   6.913   6.387  13.661  2.7921 -0.3279  0.0414
 6468TIP3   OH240818   2.714   3.073  15.967  1.2261 -0.0383 -0.1467
 6468TIP3    H140819   2.669   3.015  16.028  1.5331 -0.7190 -0.5609
 6468TIP3    H240820   2.734   3.018  15.892  0.4376  0.9158 -1.0633
 6469TIP3   OH240821   6.179   2.309  14.869  0.0013 -0.2708 -0.1037
 6469TIP3    H140822   6.139   2.391  14.840  0.2282  0.7727  2.3645
 6469TIP3    H240823   6.269   2.313  14.837 -0.1114  0.2708 -0.3532
 6470TIP3   OH240824   0.130   1.294  14.165  0.1812  0.6292  0.1806
 6470TIP3    H140825   0.187   1.311  14.090  0.2643  1.6859  0.4713
 6470TIP3    H240826   0.041   1.298  14.129  0.0743  4.0956  0.6386
 6471TIP3   OH240827   5.850   1.214   1.743 -0.4705  0.1315  0.0200
 6471TIP3    H140828   5.790   1.142   1.763  0.0485  0.1483  1.7193
 6471TIP3    H240829   5.801   1.270   1.684 -1.5093 -0.7490  0.0252
 6472TIP3   OH240830   7.143   4.888  15.594  0.7122  0.7253 -0.0112
 6472TIP3    H140831   7.082   4.860  15.526 -0.1030  0.0078  1.0139
 6472TIP3    H240832   7.218   4.828  15.584 -0.1175 -0.4706  0.7881
 6473TIP3   OH240833   1.966   2.222   0.327 -0.5067  0.2592 -0.5103
 6473TIP3    H140834   1.987   2.245   0.236  2.3500 -0.7593 -0.1663
 6473TIP3    H240835   1.952   2.128   0.325  0.0086  0.1676  0.1671
 6474TIP3   OH240836   3.000   4.060  14.916 -0.0372  0.3159  0.3841
 6474TIP3    H140837   3.074   4.111  14.885  0.3061  0.6256  1.6496
 6474TIP3    H240838   2.923   4.110  14.890  0.0829 -1.0683 -2.8075
 6475TIP3   OH240839   3.855   6.443   0.143  0.6328 -0.4769  0.2532
 6475TIP3    H140840   3.905   6.366   0.115  0.4709 -0.3290 -0.4532
 6475TIP3    H240841   3.776   6.441   0.089 -0.0840 -0.6495  1.2966
 6476TIP3   OH240842   0.670   0.382  13.176 -0.5413 -0.1014  0.2511
 6476TIP3    H140843   0.664   0.442  13.251 -0.3458 -1.4907  1.4018
 6476TIP3    H240844   0.747   0.411  13.128 -1.5953  1.8083 -0.3184
 6477TIP3   OH240845   1.272   3.605  14.684  0.3154  0.4626  0.3498
 6477TIP3    H140846   1.305   3.693  14.664  0.3626  0.7375  1.5962
 6477TIP3    H240847   1.317   3.580  14.765  2.4337 -1.8850 -1.4706
 6478TIP3   OH240848   2.456   1.373  11.985  0.1459  0.6527 -0.1593
 6478TIP3    H140849   2.534   1.426  11.971  0.3635  0.5211  0.5421
 6478TIP3    H240850   2.384   1.427  11.951  0.2593  1.7650  1.3440
 6479TIP3   OH240851   5.524   2.565   0.171 -0.1647  0.2536 -0.2282
 6479TIP3    H140852   5.616   2.579   0.196  0.0540 -0.7107 -0.4600
 6479TIP3    H240853   5.529   2.511   0.092 -0.9539 -1.0474  0.5972
 6480TIP3   OH240854   6.666   1.831  15.655 -0.0321  0.2849  0.2012
 6480TIP3    H140855   6.708   1.900  15.706 -1.3826  2.1974 -1.2097
 6480TIP3    H240856   6.575   1.834  15.682  0.0118 -1.4295  0.6043
 6481TIP3   OH240857   5.742   6.624  11.316  0.3121 -0.1573  0.0146
 6481TIP3    H140858   5.651   6.602  11.335 -0.0500  0.2490 -1.1496
 6481TIP3    H240859   5.736   6.689  11.245  1.4713  0.6598  0.6507
 6482TIP3   OH240860   0.236   6.701  10.270  0.0106 -0.2609 -0.1610
 6482TIP3    H140861   0.304   6.639  10.295  0.5914  0.6326  0.4729
 6482TIP3    H240862   0.195   6.728  10.352 -0.0652  0.4045 -0.4122
 6483TIP3   OH240863   2.344   1.570  14.254 -0.7180 -0.1462  0.0504
 6483TIP3    H140864   2.282   1.526  14.313  0.3809 -1.0352  0.5591
 6483TIP3    H240865   2.418   1.594  14.310 -0.6972  1.1214 -0.5135
 6484TIP3   OH240866   5.805   7.260  15.942 -0.1169  0.1942  0.2415
 6484TIP3    H140867   5.877   7.296  15.891  0.1668 -1.3595 -0.4914
 6484TIP3    H240868   5.737   7.327  15.939 -0.1851  0.0521 -2.3844
 6485TIP3   OH240869   0.159   3.739  15.190  0.3519 -0.2102  0.1379
 6485TIP3    H140870   0.126   3.692  15.267 -0.5776  1.2924  0.6744
 6485TIP3    H240871   0.230   3.794  15.224 -1.0164  1.5431  0.2142
 6486TIP3   OH240872   1.027   1.612  14.159  0.2145  0.1516  0.0062
 6486TIP3    H140873   1.110   1.594  14.114  0.2970 -0.2969  0.3426
 6486TIP3    H240874   1.027   1.554  14.235 -0.5563 -0.0809 -0.1631
 6487TIP3   OH240875   2.521   2.593  15.502  0.3170  0.0172 -0.5192
 6487TIP3    H140876   2.495   2.623  15.414  0.7528 -0.7321 -0.9055
 6487TIP3    H240877   2.554   2.672  15.545 -1.3795  0.7117 -0.4739
 6488TIP3   OH240878   1.027   6.158  12.800  0.6856  0.3908 -0.8981
 6488TIP3    H140879   0.976   6.123  12.873 -0.4000 -1.5638 -2.5486
 6488TIP3    H240880   0.968   6.221  12.758  0.6494  0.1644 -1.1831
 6489TIP3   OH240881   0.644   6.543  13.905  0.3623  0.6465 -0.6169
 6489TIP3    H140882   0.733   6.522  13.876  0.2186  0.1190 -0.6764
 6489TIP3    H240883   0.637   6.506  13.993 -1.1978 -3.1346 -2.2167
 6490TIP3   OH240884   0.096   6.275  14.456  0.5369 -0.0473  0.3141
 6490TIP3    H140885   0.180   6.244  14.421 -0.2795 -1.5447 -0.3843
 6490TIP3    H240886   0.114   6.364  14.487  2.4530 -0.4665  0.4602
 6491TIP3   OH240887   2.237   1.968  15.681  0.4736  0.0477  0.5493
 6491TIP3    H140888   2.300   1.908  15.641  1.3955  1.8624 -0.7743
 6491TIP3    H240889   2.173   1.910  15.722  0.3795 -1.8852 -2.1666
 6492TIP3   OH240890   7.101   0.047   0.126 -0.6548 -0.2471 -0.1789
 6492TIP3    H140891   7.168   0.046   0.058  0.1741 -0.4251  0.6360
 6492TIP3    H240892   7.052  -0.034   0.112 -0.3517 -0.3866 -0.4304
 6493TIP3   OH240893   7.088   3.739   0.848  0.1189  0.7433  0.4541
 6493TIP3    H140894   7.071   3.833   0.844 -0.8452  0.5706  0.1011
 6493TIP3    H240895   7.018   3.700   0.795  0.9381 -0.1246 -0.0147
 6494TIP3   OH240896   4.645   6.831  13.772 -0.5299  0.1942 -0.1115
 6494TIP3    H140897   4.649   6.806  13.679  2.2025 -1.2072  0.3467
 6494TIP3    H240898   4.555   6.813  13.797 -1.1927  0.1425 -2.3666
 6495TIP3   OH240899   2.859   2.696   1.038 -0.1553 -0.2851  0.2186
 6495TIP3    H140900   2.825   2.694   0.949 -3.2841 -0.0311  1.3540
 6495TIP3    H240901   2.875   2.604   1.059  0.5768 -0.3464 -0.5860
 6496TIP3   OH240902   7.098   1.322   0.887 -0.0850  0.2122 -0.3686
 6496TIP3    H140903   7.020   1.367   0.853 -0.3232 -0.6917 -1.0658
 6496TIP3    H240904   7.170   1.354   0.834  0.1078  1.4297  0.6112
 6497TIP3   OH240905   0.622   5.295  14.335 -0.4558 -0.1328  0.6841
 6497TIP3    H140906   0.664   5.369  14.379 -1.0975  0.7745 -0.1977
 6497TIP3    H240907   0.669   5.218  14.367  1.5456  0.8097  0.1219
 6498TIP3   OH240908   0.194   1.281  13.140 -0.1217 -0.4076 -0.3131
 6498TIP3    H140909   0.207   1.208  13.201 -1.5982 -1.3645 -1.1339
 6498TIP3    H240910   0.117   1.326  13.173  1.1600  1.2138  0.5755
 6499TIP3   OH240911   0.575   7.045   0.141 -0.3644 -0.4191  0.1782
 6499TIP3    H140912   0.504   7.109   0.142  0.0521  0.0848 -1.0382
 6499TIP3    H240913   0.535   6.964   0.109 -0.3126 -0.0151 -0.9527
 6500TIP3   OH240914   2.710   1.536   0.863 -0.1633 -0.3307 -0.2543
 6500TIP3    H140915   2.766   1.458   0.854 -0.5100 -0.5099 -0.8767
 6500TIP3    H240916   2.672   1.548   0.777 -1.6833 -0.6562  0.3547
 6501TIP3   OH240917   4.909   3.130  14.807 -0.0211 -0.0978  0.2419
 6501TIP3    H140918   4.993   3.175  14.803 -0.9572  1.8157  1.6864
 6501TIP3    H240919   4.916   3.075  14.886 -0.1609  0.1239  0.4080
 6502TIP3   OH240920   0.720   4.404  13.602 -0.0414 -0.2925  0.1052
 6502TIP3    H140921   0.737   4.377  13.512  0.7961 -0.9184  0.4417
 6502TIP3    H240922   0.694   4.323  13.646  1.3481 -0.3462  0.8519
 6503TIP3   OH240923   6.174   3.868   0.523  0.5757  0.1046  0.2044
 6503TIP3    H140924   6.153   3.960   0.505 -0.1911 -0.4052 -1.6438
 6503TIP3    H240925   6.179   3.828   0.436  0.9488 -1.5912  0.9995
 6504TIP3   OH240926   5.655   5.548  15.772  0.3330  0.6134  0.0964
 6504TIP3    H140927   5.610   5.495  15.707 -1.0334 -0.1482  1.6336
 6504TIP3    H240928   5.739   5.571  15.731  0.3345 -1.5047 -1.1276
 6505TIP3   OH240929   2.535   0.079   3.604 -0.1323 -0.6471 -0.1982
 6505TIP3    H140930   2.621   0.091   3.565 -0.9851  2.6857 -1.2337
 6505TIP3    H240931   2.521   0.158   3.657 -2.5400 -1.1025 -0.0993
 6506TIP3   OH240932   6.564   7.174  12.698 -0.2461  0.0757  0.0025
 6506TIP3    H140933   6.566   7.156  12.604 -1.3980 -1.1098  0.1914
 6506TIP3    H240934   6.479   7.139  12.727  1.7621 -3.2752  2.2033
 6507TIP3   OH240935   2.861   4.792  15.609 -0.4668 -0.0100  0.0089
 6507TIP3    H140936   2.881   4.868  15.664 -0.0775  0.4685 -0.7831
 6507TIP3    H240937   2.864   4.717  15.669 -1.4876  0.6612  0.9246
 6508TIP3   OH240938   2.552   2.160  14.892  0.3230  0.2577  0.3397
 6508TIP3    H140939   2.643   2.158  14.922  0.7409  3.3486 -0.4787
 6508TIP3    H240940   2.501   2.181  14.971  0.7428  2.0188  0.1782
 6509TIP3   OH240941   1.410   2.243  12.961 -0.1634 -0.1303 -0.0830
 6509TIP3    H140942   1.388   2.161  12.918 -2.4319 -0.1391  0.9652
 6509TIP3    H240943   1.440   2.301  12.891 -2.1367 -0.6831 -1.4354
 6510TIP3   OH240944   2.990   7.097   0.924 -0.6276  0.1532  0.2432
 6510TIP3    H140945   3.085   7.093   0.926 -0.6567 -1.9487 -0.7695
 6510TIP3    H240946   2.969   7.150   0.847 -0.2716 -0.4136 -0.2483
 6511TIP3   OH240947   6.508   6.528  14.297  0.4158 -0.0615  0.0845
 6511TIP3    H140948   6.535   6.549  14.386  1.0975  3.2638 -0.8313
 6511TIP3    H240949   6.586   6.491  14.256  0.0626 -1.7184  0.8913
 6512TIP3   OH240950   5.236   7.276  14.162  0.1118  0.0136  0.3807
 6512TIP3    H140951   5.274   7.221  14.230  1.0866  1.6591  1.1908
 6512TIP3    H240952   5.302   7.343  14.145 -0.8220  0.6195 -0.9687
 6513TIP3   OH240953   6.216   3.653  14.630  0.3654 -0.1684  0.3712
 6513TIP3    H140954   6.288   3.710  14.604  0.8110 -0.7298  0.3738
 6513TIP3    H240955   6.175   3.627  14.548 -0.5396  1.0522  0.4185
 6514TIP3   OH240956   0.788   2.087  12.495 -0.2724 -0.0247  0.3491
 6514TIP3    H140957   0.831   2.103  12.580  1.6586  0.3803 -0.6773
 6514TIP3    H240958   0.833   2.010  12.459 -1.1174 -0.2257 -0.2995
 6515TIP3   OH240959   7.001   1.372  15.976 -0.0834 -0.0122  0.1635
 6515TIP3    H140960   6.969   1.313  16.044 -0.3572 -1.2280 -0.9963
 6515TIP3    H240961   6.935   1.441  15.970 -0.1575 -0.0092  0.9749
 6516TIP3   OH240962   1.461   5.948  15.271 -0.1610  0.0053 -0.1104
 6516TIP3    H140963   1.476   5.876  15.333  1.0244 -0.0829 -0.5044
 6516TIP3    H240964   1.459   6.026  15.326 -0.2136 -0.1871  0.1655
 6517TIP3   OH240965   0.369   2.667   0.266  0.6059  0.2693 -0.2995
 6517TIP3    H140966   0.438   2.728   0.290  0.0744  0.7997 -0.0869
 6517TIP3    H240967   0.396   2.583   0.304  0.1371  0.9352  1.5368
 6518TIP3   OH240968   5.988   3.422   0.619 -0.3151 -0.2135  0.3167
 6518TIP3    H140969   5.957   3.401   0.707 -0.6110 -0.1271  0.2341
 6518TIP3    H240970   5.955   3.510   0.602 -1.2059 -0.6587 -0.3105
 6519TIP3   OH240971   0.625   1.185   2.402 -0.5030 -0.6784 -0.1140
 6519TIP3    H140972   0.607   1.189   2.308  0.3493  1.0668 -0.2401
 6519TIP3    H240973   0.713   1.148   2.408 -0.4264 -0.4828 -0.0261
 6520TIP3   OH240974   2.260   3.307   0.788 -0.2207 -0.4391  0.0893
 6520TIP3    H140975   2.335   3.366   0.798  1.4459 -2.3140 -1.0067
 6520TIP3    H240976   2.221   3.302   0.875 -0.8751  2.8611  0.0530
 6521TIP3   OH240977   0.794   1.710   1.921 -0.6359  0.5250  0.3852
 6521TIP3    H140978   0.816   1.699   1.828 -0.0934  0.4998  0.5171
 6521TIP3    H240979   0.878   1.720   1.965 -0.8887  0.4689  0.8881
 6522TIP3   OH240980   6.290   0.281  15.673 -0.2103  0.3013 -0.5835
 6522TIP3    H140981   6.217   0.343  15.686 -1.1022 -1.0351  0.8966
 6522TIP3    H240982   6.248   0.195  15.671  0.9975 -0.2676 -2.9202
 6523TIP3   OH240983   4.823   2.648   0.760  0.3013  0.2510  0.1656
 6523TIP3    H140984   4.789   2.736   0.748 -0.1191 -0.0535 -1.0390
 6523TIP3    H240985   4.751   2.591   0.734  0.8579 -0.4308  0.0898
 6524TIP3   OH240986   0.652   1.543  15.826 -0.3225 -0.4913  0.1703
 6524TIP3    H140987   0.561   1.562  15.803 -1.2085 -3.9321  0.5072
 6524TIP3    H240988   0.651   1.530  15.921  0.2600 -1.7063  0.0247
 6525TIP3   OH240989   2.306   7.266  15.330  0.1424  0.3221  0.5584
 6525TIP3    H140990   2.330   7.178  15.360  0.7016 -0.0685 -0.9993
 6525TIP3    H240991   2.254   7.252  15.251 -3.6874  1.2470  2.7858
 6526TIP3   OH240992   0.807   0.370   0.702 -0.3687  0.0383  0.5445
 6526TIP3    H140993   0.767   0.294   0.659 -2.5100 -0.1653  2.7557
 6526TIP3    H240994   0.890   0.338   0.737  0.1224 -0.4912 -1.0952
 6527TIP3   OH240995   6.214   5.285  14.124  0.2117 -0.5695 -0.4942
 6527TIP3    H140996   6.255   5.214  14.075  1.3571 -2.2370  2.6708
 6527TIP3    H240997   6.135   5.246  14.161 -0.6713  0.6612 -1.0585
 6528TIP3   OH240998   1.142   6.946  13.194 -0.4018 -0.0479  0.0028
 6528TIP3    H140999   1.150   6.971  13.102 -0.3891  0.6279  0.1895
 6528TIP3    H241000   1.110   7.024  13.238 -0.0042 -0.2392  0.6435
 6529TIP3   OH241001   0.700   3.004  14.114  0.0362  0.0375 -0.5795
 6529TIP3    H141002   0.673   3.084  14.070 -2.5718 -0.7396 -0.4695
 6529TIP3    H241003   0.712   2.940  14.044  0.4969  0.0605 -0.5269
 6530TIP3   OH241004   1.153   4.823  13.813 -0.5140 -0.3075  0.0574
 6530TIP3    H141005   1.104   4.855  13.889  0.1327 -1.5262  1.0029
 6530TIP3    H241006   1.101   4.749  13.780  0.2603 -1.0867  0.5682
 6531TIP3   OH241007   6.623   2.012   0.349 -0.0220 -0.7919 -0.5238
 6531TIP3    H141008   6.652   1.980   0.264  0.7452  0.9033 -0.9292
 6531TIP3    H241009   6.617   2.107   0.338 -3.4915 -0.8604  0.2683
 6532TIP3   OH241010   0.067   1.852  10.798  0.5097  0.3195  0.7288
 6532TIP3    H141011   0.033   1.937  10.770 -0.8593 -1.0831 -2.0695
 6532TIP3    H241012   0.002   1.789  10.766  3.2725 -2.0684 -0.3758
 6533TIP3   OH241013   2.616   6.700  13.499 -0.0109 -0.0691 -0.0034
 6533TIP3    H141014   2.529   6.662  13.485 -0.1607 -0.9811  2.8917
 6533TIP3    H241015   2.599   6.792  13.518 -0.1628  0.1991 -1.4344
 6534TIP3   OH241016   0.632   0.782  13.045 -0.3795 -0.0861  0.1014
 6534TIP3    H141017   0.583   0.739  13.115 -2.4886 -0.1911 -1.4272
 6534TIP3    H241018   0.628   0.722  12.971  0.0118  0.9836 -0.8019
 6535TIP3   OH241019   2.370   3.646  14.971  0.1092  0.6798  0.3259
 6535TIP3    H141020   2.440   3.592  14.935 -0.8468 -2.6460  3.0897
 6535TIP3    H241021   2.303   3.648  14.903  0.5998 -0.8369 -0.2206
 6536TIP3   OH241022   1.667   2.378  12.464 -0.3677  0.5267 -0.2637
 6536TIP3    H141023   1.669   2.356  12.371 -0.2479  2.8322 -0.8532
 6536TIP3    H241024   1.733   2.322  12.505  1.9070  1.7571 -2.1214
 6537TIP3   OH241025   2.203   6.195  11.415  0.7997 -0.3250  0.2313
 6537TIP3    H141026   2.145   6.261  11.454  1.6871  0.4258  0.3073
 6537TIP3    H241027   2.151   6.155  11.346 -0.1078 -0.2687  0.8752
 6538TIP3   OH241028   3.960   1.467   0.249 -0.6662  0.4835  0.0471
 6538TIP3    H141029   4.035   1.483   0.193 -0.0943  0.3047  0.7566
 6538TIP3    H241030   3.904   1.544   0.237 -0.3608  0.6264 -0.4583
 6539TIP3   OH241031   5.978   1.306  15.643 -0.3218 -0.4584  0.1088
 6539TIP3    H141032   6.030   1.385  15.653 -1.9067  0.6125 -0.0229
 6539TIP3    H241033   5.909   1.313  15.708 -0.6986 -1.5548 -0.1468
 6540TIP3   OH241034   7.215   3.111  14.106  0.6117 -0.4128 -0.2819
 6540TIP3    H141035   7.266   3.183  14.068  3.3450 -0.1743  3.5197
 6540TIP3    H241036   7.265   3.032  14.084  0.8097 -0.5177  0.5065
 6541TIP3   OH241037   4.468   0.395  12.631  0.3868  0.2802 -0.0167
 6541TIP3    H141038   4.477   0.419  12.538  1.5524 -1.1264 -0.3058
 6541TIP3    H241039   4.376   0.374  12.642 -0.0682  1.9575 -0.4667
 6542TIP3   OH241040   2.083   1.863  15.475  0.0911 -0.0511 -0.0364
 6542TIP3    H141041   2.145   1.912  15.528 -0.4541  1.6961 -0.9522
 6542TIP3    H241042   2.130   1.844  15.394 -0.2775  0.5247 -0.3881
 6543TIP3   OH241043   2.303   5.255  15.144  0.0032 -0.3482  0.0543
 6543TIP3    H141044   2.317   5.289  15.232  0.6073 -0.6622  0.0806
 6543TIP3    H241045   2.208   5.248  15.135 -0.0839  0.3447  0.4275
 6544TIP3   OH241046   7.254   3.324  14.794 -0.1656  0.1666 -0.5279
 6544TIP3    H141047   7.195   3.389  14.833  0.0349 -1.3935  2.4560
 6544TIP3    H241048   7.252   3.250  14.854  2.8421 -0.9635 -1.7212
 6545TIP3   OH241049   2.445   2.003   0.754 -0.0563  0.1463 -0.5008
 6545TIP3    H141050   2.392   2.022   0.832  0.4044  1.7355 -0.5687
 6545TIP3    H241051   2.406   2.056   0.685  0.4593 -0.1292 -1.0032
 6546TIP3   OH241052   6.012   0.436  14.740 -0.3723 -0.0884  0.7551
 6546TIP3    H141053   5.939   0.492  14.767  0.1426 -0.0654  2.1802
 6546TIP3    H241054   5.983   0.396  14.658 -0.6555  2.4345 -0.4192
 6547TIP3   OH241055   7.143   6.498  15.241 -0.1328 -0.2837 -0.1307
 6547TIP3    H141056   7.114   6.412  15.270 -0.3086  0.3831  1.7566
 6547TIP3    H241057   7.228   6.510  15.284  0.0488  0.3411 -0.6579
 6548TIP3   OH241058   4.241   2.252  14.802  0.2099 -0.5568  0.2718
 6548TIP3    H141059   4.153   2.288  14.814  0.7906  1.3018 -0.9150
 6548TIP3    H241060   4.272   2.234  14.891 -0.8272  0.1127  0.7761
 6549TIP3   OH241061   1.786   3.385  14.519  0.1321  0.1067  0.2563
 6549TIP3    H141062   1.800   3.479  14.514  1.4647 -0.0396  1.0109
 6549TIP3    H241063   1.760   3.370  14.611 -1.3687 -0.1028 -0.1843
 6550TIP3   OH241064   1.602   0.679   2.577 -0.6099 -0.3416 -0.6312
 6550TIP3    H141065   1.614   0.614   2.507  2.1403 -0.1652 -0.3791
 6550TIP3    H241066   1.624   0.763   2.537 -2.3944  0.2287 -0.4597
 6551TIP3   OH241067   1.776   4.610   0.601  0.4480 -0.8775 -0.5584
 6551TIP3    H141068   1.836   4.580   0.669  0.9480  4.1608  1.4614
 6551TIP3    H241069   1.690   4.605   0.641  0.3621 -0.9763 -0.7549
 6552TIP3   OH241070   5.084   6.502  12.580 -0.0922 -0.5478 -0.3323
 6552TIP3    H141071   5.144   6.518  12.507 -0.6057  2.0054 -0.2481
 6552TIP3    H241072   5.076   6.587  12.623 -1.6183 -1.4924  1.3102
 6553TIP3   OH241073   5.839   0.613  11.667  0.6043 -0.0265  0.5303
 6553TIP3    H141074   5.857   0.706  11.656  0.1214  0.3041  2.2987
 6553TIP3    H241075   5.855   0.575  11.581  2.1790  1.4586  0.1425
 6554TIP3   OH241076   0.380   4.325  13.582 -0.0865  0.1654  0.0947
 6554TIP3    H141077   0.395   4.273  13.503 -1.7517  0.1534 -0.2317
 6554TIP3    H241078   0.408   4.269  13.654  1.5287  0.2105 -0.4848
 6555TIP3   OH241079   2.040   6.763  15.482 -0.5269 -0.4131  0.0523
 6555TIP3    H141080   1.991   6.704  15.424  0.2614 -1.0965  0.0845
 6555TIP3    H241081   2.030   6.725  15.569  2.9650 -2.5447 -0.3852
 6556TIP3   OH241082   4.701   3.412   0.802 -0.4001 -0.2976 -0.7934
 6556TIP3    H141083   4.744   3.348   0.859  0.6648 -0.1231 -1.3771
 6556TIP3    H241084   4.770   3.476   0.781 -1.7844  1.7847  0.8532
 6557TIP3   OH241085   7.180   1.236  14.051  0.0694 -0.2545  0.4128
 6557TIP3    H141086   7.218   1.174  13.989 -0.0355  1.3155 -1.2656
 6557TIP3    H241087   7.157   1.312  13.997 -1.5328  0.4895  2.1088
 6558TIP3   OH241088   5.596   2.165   0.455  0.0309 -0.0157 -0.0166
 6558TIP3    H141089   5.624   2.125   0.537 -2.1076 -0.7616  0.4032
 6558TIP3    H241090   5.541   2.098   0.414 -3.3830  2.2602  0.5473
 6559TIP3   OH241091   4.236   2.391  10.982  0.2427 -0.0531  0.4704
 6559TIP3    H141092   4.221   2.442  10.903  1.1189  0.8954  0.9042
 6559TIP3    H241093   4.291   2.318  10.952 -1.2427 -0.9174 -0.1998
 6560TIP3   OH241094   5.690   1.285   0.401 -0.1020 -0.4691  0.4676
 6560TIP3    H141095   5.744   1.268   0.323  0.3923  0.2538  0.6512
 6560TIP3    H241096   5.753   1.304   0.470 -0.6534  2.8196  0.1168
 6561TIP3   OH241097   5.179   4.391   0.411 -0.2762 -0.0190  0.1474
 6561TIP3    H141098   5.234   4.415   0.485 -1.0787  0.4961  0.5813
 6561TIP3    H241099   5.239   4.352   0.348  0.7041  1.1363  0.3413
 6562TIP3   OH241100   3.465   1.846  15.891 -0.0613  0.6609 -0.3002
 6562TIP3    H141101   3.512   1.763  15.895  1.0860  1.2993 -0.5526
 6562TIP3    H241102   3.513   1.899  15.827 -2.0110  0.7648 -1.7323
 6563TIP3   OH241103   1.291   2.115  11.852 -0.5128 -0.0193 -0.4389
 6563TIP3    H141104   1.248   2.081  11.931 -1.5999  1.1940 -0.4822
 6563TIP3    H241105   1.221   2.161  11.806  0.4573  0.5055 -1.3930
 6564TIP3   OH241106   5.664   1.714  13.303  0.7884  0.0287  0.0637
 6564TIP3    H141107   5.694   1.636  13.351  0.1969 -0.4057 -0.2593
 6564TIP3    H241108   5.645   1.681  13.214 -0.6150  0.2833  0.2535
 6565TIP3   OH241109   0.425   2.869  14.580  0.4288  0.0213  0.8017
 6565TIP3    H141110   0.484   2.813  14.531 -0.2601 -0.1606  0.1722
 6565TIP3    H241111   0.427   2.833  14.669  1.8434  0.4903  0.9739
 6566TIP3   OH241112   6.393   7.067  14.579 -0.0552 -0.0218  0.8061
 6566TIP3    H141113   6.311   7.054  14.626 -0.4029 -0.9314 -0.0228
 6566TIP3    H241114   6.377   7.027  14.493  0.8570  0.8398  0.2344
 6567TIP3   OH241115   0.526   1.102  14.599  0.1344 -0.4059 -0.0999
 6567TIP3    H141116   0.486   1.073  14.517  1.4698  1.2298 -1.3672
 6567TIP3    H241117   0.469   1.171  14.631  0.9491  0.7005 -0.9873
 6568TIP3   OH241118   0.700   2.182  13.920 -0.8861  0.0522 -0.2355
 6568TIP3    H141119   0.709   2.181  14.015 -0.7294 -2.2652 -0.2622
 6568TIP3    H241120   0.774   2.130  13.888 -1.2951  0.2789 -1.5955
 6569TIP3   OH241121   0.268   1.113  10.542  0.0955  0.1540 -0.1766
 6569TIP3    H141122   0.256   1.039  10.483  1.0609  1.3001 -1.8451
 6569TIP3    H241123   0.180   1.152  10.549 -0.0833 -0.1608 -0.6252
 6570TIP3   OH241124   5.629   0.823  14.934  0.1876  0.2592  0.2118
 6570TIP3    H141125   5.698   0.863  14.987  1.5592  2.1512 -2.9192
 6570TIP3    H241126   5.668   0.742  14.902  0.9094  1.1844 -1.3154
 6571TIP3   OH241127   3.770   6.586  15.692  0.1361  0.2192 -0.4089
 6571TIP3    H141128   3.863   6.605  15.701  0.1996 -0.7170  1.1218
 6571TIP3    H241129   3.739   6.645  15.623  2.0141 -0.0155 -1.4893
 6572TIP3   OH241130   0.097   6.756  15.067 -0.2723 -0.5576  0.0410
 6572TIP3    H141131   0.087   6.850  15.050 -1.6774 -0.1621  2.8115
 6572TIP3    H241132   0.034   6.714  15.009  0.3063  0.1950 -1.1513
 6573TIP3   OH241133   6.191   1.211   1.663  0.1211  0.1135 -0.0733
 6573TIP3    H141134   6.151   1.158   1.732 -0.4730  0.2513 -0.3135
 6573TIP3    H241135   6.254   1.152   1.621  2.5981  0.8459  2.4391
 6574TIP3   OH241136   1.119   0.263  12.939 -0.6551 -0.7605  0.1540
 6574TIP3    H141137   1.130   0.265  13.034  0.5988  0.3900  0.0112
 6574TIP3    H241138   1.025   0.255  12.926 -0.9887  0.5612  1.5125
 6575TIP3   OH241139   2.644   1.577   1.718 -0.1212  0.5501  0.4542
 6575TIP3    H141140   2.687   1.621   1.792 -1.4930  1.0250  0.9667
 6575TIP3    H241141   2.698   1.600   1.642  1.0108  0.4705  1.2077
 6576TIP3   OH241142   3.195   1.713  12.812  0.3251  0.3599 -0.5730
 6576TIP3    H141143   3.229   1.746  12.729  0.0733  0.8131 -0.4978
 6576TIP3    H241144   3.184   1.792  12.866 -0.5949  0.1843 -0.5055
 6577TIP3   OH241145   0.068   2.903   0.220 -0.2677  0.3344 -1.3638
 6577TIP3    H141146   0.103   2.853   0.146  0.6360  0.5728 -1.1104
 6577TIP3    H241147   0.056   2.838   0.289 -1.0988  0.1141 -1.7208
 6578TIP3   OH241148   2.979   5.805  14.975  0.7252 -0.3415 -0.1930
 6578TIP3    H141149   2.957   5.815  15.068 -1.0406  1.1003 -0.7516
 6578TIP3    H241150   3.036   5.880  14.956 -1.8444  1.4331 -1.1321
 6579TIP3   OH241151   1.405   7.035   0.481  0.3589 -0.5626  0.3869
 6579TIP3    H141152   1.364   7.105   0.431  0.6239  0.1917  1.2210
 6579TIP3    H241153   1.459   6.988   0.417 -2.2571 -1.9546 -0.8622
 6580TIP3   OH241154   0.849   0.147  12.408 -0.7398 -0.7049 -0.4209
 6580TIP3    H141155   0.888   0.065  12.375 -0.7334 -0.6823 -0.4694
 6580TIP3    H241156   0.758   0.144  12.378 -0.3558 -0.0053 -1.6749
 6581TIP3   OH241157   7.152   1.052  13.438 -0.0831 -0.7691  0.1215
 6581TIP3    H141158   7.076   1.099  13.405  0.2967  0.3497  0.8226
 6581TIP3    H241159   7.175   0.992  13.367 -0.5290  0.1584 -0.8239
 6582TIP3   OH241160   1.803   5.859   3.416 -0.0725  0.1690  0.0253
 6582TIP3    H141161   1.764   5.943   3.393  2.7521  1.0243 -1.9129
 6582TIP3    H241162   1.779   5.801   3.344  1.1894  0.3813 -0.5776
 6583TIP3   OH241163   5.881   5.143  14.517 -0.3119 -0.6821 -0.6964
 6583TIP3    H141164   5.849   5.218  14.566  1.4877 -1.1134  1.1887
 6583TIP3    H241165   5.822   5.071  14.541  1.0401 -1.0857  1.4910
 6584TIP3   OH241166   0.010   1.436  13.465 -0.4273 -0.4330 -0.2396
 6584TIP3    H141167  -0.070   1.447  13.515 -0.4287  3.1654 -0.9265
 6584TIP3    H241168  -0.017   1.446  13.373  0.8111  1.0753 -0.4657
 6585TIP3   OH241169   0.967   1.657   0.485 -0.2208  0.0987  0.1671
 6585TIP3    H141170   0.940   1.741   0.524  0.1917  0.0042  0.6605
 6585TIP3    H241171   0.914   1.592   0.530 -1.3712  0.2042 -1.0374
 6586TIP3   OH241172   4.188   1.521   1.173  0.1184  0.7313  0.1147
 6586TIP3    H141173   4.176   1.521   1.079  0.4050 -0.8438  0.0634
 6586TIP3    H241174   4.281   1.502   1.186  0.0067  0.5564  0.7132
 6587TIP3   OH241175   0.617   1.101  15.312  0.9487  0.4103 -0.5151
 6587TIP3    H141176   0.548   1.113  15.377  0.9746 -0.2006 -0.3751
 6587TIP3    H241177   0.682   1.168  15.333  0.9991  0.1526  0.1355
 6588TIP3   OH241178   1.728   6.812  14.996 -0.2210 -0.2045 -0.6095
 6588TIP3    H141179   1.694   6.754  14.928  0.3137  0.4614 -1.4579
 6588TIP3    H241180   1.821   6.820  14.976  0.0287 -0.3702  0.4741
 6589TIP3   OH241181   5.742   1.187  14.907 -0.4509 -0.3812  0.6682
 6589TIP3    H141182   5.781   1.232  14.981 -0.5994 -1.0295  1.1456
 6589TIP3    H241183   5.777   1.098  14.912 -0.7233 -0.5182  0.1625
 6590TIP3   OH241184   5.085   1.515  12.781  0.4440 -0.1013  0.0652
 6590TIP3    H141185   5.162   1.459  12.783 -2.1486 -3.7912  0.8077
 6590TIP3    H241186   5.033   1.481  12.708 -2.1154 -0.0339  1.7857
 6591TIP3   OH241187   2.161   2.411  13.498 -0.2442 -0.7789  0.4732
 6591TIP3    H141188   2.173   2.350  13.425 -0.6743  0.9791 -1.1032
 6591TIP3    H241189   2.125   2.357  13.569 -0.9219 -2.2931 -0.9871
 6592TIP3   OH241190   0.678   1.984  14.716 -0.2032  0.3625 -0.5838
 6592TIP3    H141191   0.671   1.897  14.755 -0.2655  0.3802 -0.5550
 6592TIP3    H241192   0.670   1.969  14.622 -2.1346  0.5329 -0.4760
 6593TIP3   OH241193   1.001   6.450   0.071 -0.4291 -0.0737 -0.3405
 6593TIP3    H141194   0.912   6.464   0.036 -0.4427 -1.9387 -1.1321
 6593TIP3    H241195   1.057   6.450  -0.007 -0.0138 -0.9119 -0.0467
 6594TIP3   OH241196   2.745   4.681  13.217  0.4343 -0.1071  0.2882
 6594TIP3    H141197   2.747   4.623  13.293  1.2237  0.2991  0.5768
 6594TIP3    H241198   2.821   4.655  13.165 -1.2521 -1.7935 -1.4220
 6595TIP3   OH241199   3.493   0.799  14.953  0.4635  0.3705 -0.3773
 6595TIP3    H141200   3.418   0.759  14.996  0.0917  1.1233 -0.3054
 6595TIP3    H241201   3.562   0.800  15.020  0.6163 -0.5300 -0.5160
 6596TIP3   OH241202   1.744   7.246  15.727 -0.3678 -0.8659 -0.4008
 6596TIP3    H141203   1.787   7.161  15.721  2.4705  0.5756 -1.4078
 6596TIP3    H241204   1.777   7.284  15.808 -1.7271 -0.7262  0.1160
 6597TIP3   OH241205   1.680   0.425  15.562  0.4956 -0.0555 -0.0285
 6597TIP3    H141206   1.724   0.352  15.519 -3.1392 -1.7365 -1.0103
 6597TIP3    H241207   1.684   0.496  15.498 -1.8463 -1.4879 -1.8368
 6598TIP3   OH241208   0.963   6.880  14.011  0.0832 -0.1091 -0.1966
 6598TIP3    H141209   0.895   6.894  14.078 -0.8453 -0.9591 -0.9528
 6598TIP3    H241210   1.045   6.892  14.058 -0.5810  2.8488  0.3285
 6599TIP3   OH241211   4.849   6.800  15.287 -0.0339  0.2434 -0.0801
 6599TIP3    H141212   4.794   6.813  15.210 -1.3957 -0.1489  0.8052
 6599TIP3    H241213   4.796   6.831  15.360  1.3313  0.8347  0.6861
 6600TIP3   OH241214   3.438   1.550  14.040  0.5590 -0.3342  0.2395
 6600TIP3    H141215   3.352   1.529  14.003  1.0436 -1.1082 -0.4885
 6600TIP3    H241216   3.428   1.539  14.134 -0.5899  1.2471  0.3061
 6601TIP3   OH241217   2.306   5.268   0.202 -0.6231  0.0632  0.2583
 6601TIP3    H141218   2.306   5.217   0.283 -2.6888 -0.5056 -0.0677
 6601TIP3    H241219   2.382   5.325   0.210 -0.6849 -0.1097  2.5256
 6602TIP3   OH241220   4.891   7.063  15.744  0.2795  0.1175  0.1829
 6602TIP3    H141221   4.807   7.097  15.712  0.6246 -0.8217 -1.7952
 6602TIP3    H241222   4.892   6.972  15.715  2.3602  0.3676 -0.5940
 6603TIP3   OH241223   5.678   5.443  13.343 -0.2048  0.3602  0.7006
 6603TIP3    H141224   5.708   5.369  13.395 -1.1800 -1.5299 -1.3299
 6603TIP3    H241225   5.758   5.478  13.304 -0.1120 -2.4108 -1.8211
 6604TIP3   OH241226   1.523   2.155  14.033  0.0846  0.4792 -0.1543
 6604TIP3    H141227   1.490   2.147  13.944  2.0843  2.1962 -1.0938
 6604TIP3    H241228   1.603   2.102  14.034 -1.3330 -1.7404  1.4323
 6605TIP3   OH241229   0.024   1.840  14.318  0.6817  0.1044  0.4137
 6605TIP3    H141230   0.013   1.840  14.413  0.5169 -1.0478  0.4068
 6605TIP3    H241231  -0.032   1.769  14.288 -0.4627  1.4707 -0.7018
 6606TIP3   OH241232   5.024   3.809  15.372  0.1437  0.5496  0.0921
 6606TIP3    H141233   5.113   3.828  15.401 -0.5487  0.7277  2.1705
 6606TIP3    H241234   4.969   3.839  15.444 -1.6937  1.6320 -1.7075
 6607TIP3   OH241235   6.866   3.229   0.198  0.3611  0.6201 -0.3375
 6607TIP3    H141236   6.823   3.143   0.192 -0.1204  0.8663 -0.4234
 6607TIP3    H241237   6.879   3.243   0.292  1.0834  0.1393 -0.3573
 6608TIP3   OH241238   1.125   1.152  11.752  0.0455 -0.0477 -0.5093
 6608TIP3    H141239   1.206   1.186  11.789 -0.2723  0.1796 -0.0079
 6608TIP3    H241240   1.062   1.157  11.824 -0.1560 -1.1763 -0.5918
 6609TIP3   OH241241   3.787   2.242   2.199  0.7912 -0.1174  0.0708
 6609TIP3    H141242   3.838   2.179   2.149 -0.5170 -1.0251 -0.1272
 6609TIP3    H241243   3.853   2.295   2.244  1.9087 -1.8088  0.4722
 6610TIP3   OH241244   4.451   2.325  15.854  0.0393  0.2500 -1.4741
 6610TIP3    H141245   4.547   2.325  15.859 -0.0528  1.0610  0.7184
 6610TIP3    H241246   4.426   2.234  15.866  0.4833  0.2509 -0.4815
 6611TIP3   OH241247   6.086   3.758  13.280  0.0664 -1.2488  0.2356
 6611TIP3    H141248   6.111   3.671  13.312  0.3477 -0.0425  3.3950
 6611TIP3    H241249   6.163   3.789  13.233  0.4636 -2.1326  0.2813
 6612TIP3   OH241250   5.514   4.853  15.803  0.4522  0.0938  0.5483
 6612TIP3    H141251   5.512   4.865  15.898 -1.0447  0.2822  0.5129
 6612TIP3    H241252   5.596   4.807  15.786 -0.5460 -2.4193  2.2325
 6613TIP3   OH241253   1.161   6.444  15.824  0.8801 -0.3398 -0.3402
 6613TIP3    H141254   1.218   6.368  15.832  1.8376  0.1404 -2.4374
 6613TIP3    H241255   1.135   6.446  15.732 -0.6565  0.7963  0.0887
 6614TIP3   OH241256   0.515   2.410  13.316 -0.4842 -0.5319 -0.3214
 6614TIP3    H141257   0.524   2.386  13.408  0.7824 -1.1103 -0.5964
 6614TIP3    H241258   0.524   2.328  13.268  0.4471 -0.0057 -1.0607
 6615TIP3   OH241259   3.831   5.943   0.460 -0.4725 -0.3990  0.1540
 6615TIP3    H141260   3.845   5.849   0.455  1.2059 -0.1456  0.0369
 6615TIP3    H241261   3.913   5.982   0.430 -0.3256  1.0844  2.3231
 6616TIP3   OH241262   2.598   1.204   0.195 -0.0029 -0.8721 -0.4284
 6616TIP3    H141263   2.623   1.296   0.187 -1.2452 -0.5354 -0.5231
 6616TIP3    H241264   2.628   1.179   0.282  0.0974 -0.2998 -0.2921
 6617TIP3   OH241265   3.621   7.239  11.855  0.3343 -0.0950 -0.2355
 6617TIP3    H141266   3.692   7.176  11.842 -0.3725 -1.5359  2.4110
 6617TIP3    H241267   3.543   7.195  11.820 -0.0585 -0.4987  1.1017
 6618TIP3   OH241268   5.720   3.083  13.452 -0.3954  0.0794  0.1303
 6618TIP3    H141269   5.651   3.036  13.498 -1.4022  0.3902 -1.0329
 6618TIP3    H241270   5.678   3.162  13.418  0.6713  0.5755 -0.0748
 6619TIP3   OH241271   6.883   6.075  14.524 -0.4278 -0.3644 -0.5467
 6619TIP3    H141272   6.868   6.081  14.429 -1.4368 -1.9621 -0.5169
 6619TIP3    H241273   6.959   6.131  14.540 -0.7561  0.5938 -2.1698
 6620TIP3   OH241274   0.660   2.242   1.041  0.0791  0.6343 -0.6816
 6620TIP3    H141275   0.580   2.204   1.076 -0.1967 -0.6104 -2.5888
 6620TIP3    H241276   0.631   2.307   0.978  0.5420 -0.2078 -1.7851
 6621TIP3   OH241277   3.916   7.232  13.978 -0.7217 -0.2501  0.2760
 6621TIP3    H141278   3.896   7.296  14.045 -1.5767  0.1028 -0.3036
 6621TIP3    H241279   3.960   7.161  14.025 -0.5860  0.3525  1.0666
 6622TIP3   OH241280   3.295   2.435  13.936  0.0033 -0.9060 -1.0386
 6622TIP3    H141281   3.390   2.437  13.950 -0.1317 -0.4055 -0.1671
 6622TIP3    H241282   3.276   2.516  13.889  0.2888 -2.0050 -3.0832
 6623TIP3   OH241283   2.795   3.844  14.943  0.1172  0.1063  0.3093
 6623TIP3    H141284   2.714   3.879  14.980  0.6139 -1.2027  2.7566
 6623TIP3    H241285   2.860   3.913  14.955 -0.7453  1.4256 -2.2828
 6624TIP3   OH241286   4.760   6.185   1.769 -0.1707 -0.2253  0.0783
 6624TIP3    H141287   4.792   6.173   1.858  1.7225 -0.7890 -0.6508
 6624TIP3    H241288   4.669   6.155   1.772  0.7302 -2.9579  1.1765
 6625TIP3   OH241289   1.829   6.966  14.711 -0.4573  0.4145  0.2944
 6625TIP3    H141290   1.839   6.871  14.711 -2.4531  0.1834 -0.9051
 6625TIP3    H241291   1.818   6.989  14.619  3.3812  2.2287  0.1947
 6626TIP3   OH241292   2.345   6.053  11.587  0.6724  0.4849  1.0862
 6626TIP3    H141293   2.280   6.106  11.541  0.5725  0.2356  0.9415
 6626TIP3    H241294   2.428   6.098  11.570  0.7681 -0.1282 -0.1371
 6627TIP3   OH241295   6.184   6.951  14.335 -0.1123  0.5422  0.0814
 6627TIP3    H141296   6.099   6.914  14.312  0.0016  1.6805 -2.3414
 6627TIP3    H241297   6.247   6.884  14.310 -0.1017  1.0711 -1.3473
 6628TIP3   OH241298   3.601   1.591  15.848  0.0450  0.2687 -0.3322
 6628TIP3    H141299   3.555   1.550  15.921  1.4101  0.3843  0.6269
 6628TIP3    H241300   3.556   1.560  15.769 -0.8189 -0.6504  0.5163
 6629TIP3   OH241301   2.243   0.056  13.747  0.5837  0.8797  0.1958
 6629TIP3    H141302   2.221   0.110  13.672 -4.4468 -1.5055 -0.2224
 6629TIP3    H241303   2.228   0.112  13.823 -2.5930  0.7920 -0.3113
 6630TIP3   OH241304   2.380   2.264  14.493 -1.0382  0.0327  0.4541
 6630TIP3    H141305   2.381   2.213  14.574 -1.9952  0.5344  0.7940
 6630TIP3    H241306   2.302   2.319  14.501 -0.0722  1.4971  0.0729
 6631TIP3   OH241307   3.511   6.818  12.498  0.4201  0.4490  0.1063
 6631TIP3    H141308   3.589   6.775  12.533 -1.0700 -2.6085 -0.2365
 6631TIP3    H241309   3.455   6.832  12.575  0.8005  1.5820  0.1837
 6632TIP3   OH241310   3.009   6.438  13.314  0.9115 -0.2344 -0.0230
 6632TIP3    H141311   2.917   6.458  13.328  1.0283  0.0695  0.3455
 6632TIP3    H241312   3.047   6.521  13.282  1.0000 -0.4335 -0.4412
 6633TIP3   OH241313   3.757   1.801   0.016  0.2078  0.5321 -0.1588
 6633TIP3    H141314   3.691   1.769  -0.045  1.7071 -3.2692  0.0792
 6633TIP3    H241315   3.831   1.826  -0.039  0.1735  0.6817 -0.1376
 6634TIP3   OH241316   6.237   0.339  14.842  0.3840  0.5106  0.1009
 6634TIP3    H141317   6.177   0.398  14.797  0.6833  1.6727  1.1845
 6634TIP3    H241318   6.180   0.280  14.892  0.1144  0.9873  0.3612
 6635TIP3   OH241319   0.993   0.382   0.244 -0.1624  0.0899  0.6314
 6635TIP3    H141320   0.977   0.414   0.333  3.0630  0.9254  0.9619
 6635TIP3    H241321   0.977   0.458   0.188  0.3108  0.2646  0.7332
 6636TIP3   OH241322   6.913   4.602  12.190 -0.9215  0.1307  0.3747
 6636TIP3    H141323   6.966   4.643  12.258 -0.1654 -0.4422  0.1319
 6636TIP3    H241324   6.884   4.519  12.228  0.2751 -0.6243 -0.3302
 6637TIP3   OH241325   5.913   4.025  14.401 -0.2191  0.2614  0.0454
 6637TIP3    H141326   5.893   3.945  14.354  0.5498 -0.3529  0.7593
 6637TIP3    H241327   5.898   4.095  14.337 -0.4157 -0.4769 -0.7220
 6638TIP3   OH241328   0.754   3.890  10.653  0.0056  0.4895 -0.3252
 6638TIP3    H141329   0.724   3.821  10.713 -1.7215  0.9837 -0.6074
 6638TIP3    H241330   0.811   3.844  10.591 -1.4104 -0.7818 -0.7281
 6639TIP3   OH241331   5.971   7.273  11.417  0.1835  0.3345  0.0650
 6639TIP3    H141332   5.995   7.186  11.449  1.3286  1.0259  1.1739
 6639TIP3    H241333   5.911   7.307  11.483  0.2755  0.6445 -0.0104
 6640TIP3   OH241334   1.084   1.467  14.936 -0.1522  0.0505 -0.4337
 6640TIP3    H141335   1.080   1.484  15.030 -0.4477  0.0872 -0.4525
 6640TIP3    H241336   1.017   1.523  14.899 -0.4665 -0.4343 -0.5995
 6641TIP3   OH241337   6.897   7.248   0.969 -0.9746  0.0131  0.1996
 6641TIP3    H141338   6.968   7.312   0.964  0.1196 -1.0746  1.3549
 6641TIP3    H241339   6.820   7.299   0.996 -0.1487  0.8676  0.9701
 6642TIP3   OH241340   2.249   3.151  13.791  0.4097 -0.6868 -0.6373
 6642TIP3    H141341   2.266   3.122  13.702  0.8544  1.5793 -1.3268
 6642TIP3    H241342   2.333   3.186  13.822 -0.1339  0.0010  0.0880
 6643TIP3   OH241343   5.336   5.344  14.490  0.1357  0.0798  0.4843
 6643TIP3    H141344   5.358   5.432  14.459 -1.0665 -0.1338 -1.0225
 6643TIP3    H241345   5.331   5.353  14.585 -2.2032  2.1987  0.2260
 6644TIP3   OH241346   5.332   5.245  12.573  0.0403  0.1009  0.5841
 6644TIP3    H141347   5.405   5.251  12.512 -0.8518 -2.0245 -0.7689
 6644TIP3    H241348   5.356   5.303  12.646  1.4964  2.0261 -1.3783
 6645TIP3   OH241349   4.850   0.774  12.544  0.2493 -0.3767 -0.1954
 6645TIP3    H141350   4.784   0.736  12.487  0.4919 -0.6573 -0.2960
 6645TIP3    H241351   4.852   0.715  12.620  0.1979 -0.2218 -0.0740
 6646TIP3   OH241352   2.792   5.716  13.045  0.1981  0.4239  0.0628
 6646TIP3    H141353   2.763   5.650  12.981 -1.8332  0.1317  1.2446
 6646TIP3    H241354   2.764   5.799  13.008  0.0261  0.3536  0.0352
 6647TIP3   OH241355   2.395   4.633  11.376  0.2829  0.3668  0.3824
 6647TIP3    H141356   2.319   4.592  11.336  0.1874  2.5751 -1.8214
 6647TIP3    H241357   2.470   4.593  11.331  0.3226  0.1307  0.6584
 6648TIP3   OH241358   2.397   3.467   2.798 -0.5494 -0.6002 -0.2072
 6648TIP3    H141359   2.346   3.548   2.792 -1.0393 -0.8008  1.1876
 6648TIP3    H241360   2.438   3.469   2.884 -0.6828 -1.8967 -0.0930
 6649TIP3   OH241361   0.462   4.096  15.932  0.0400  0.5878 -0.0905
 6649TIP3    H141362   0.399   4.034  15.894  0.0464 -0.0903  0.9853
 6649TIP3    H241363   0.429   4.114  16.019  2.0655 -0.9156  1.0527
 6650TIP3   OH241364   4.739   2.872  11.834 -0.0307  0.0206  0.6383
 6650TIP3    H141365   4.687   2.865  11.914 -1.8794  1.0693 -0.4156
 6650TIP3    H241366   4.727   2.788  11.790 -1.3073  0.4429  0.1495
 6651TIP3   OH241367   3.993   3.660  15.980  0.3475  0.1982  0.8123
 6651TIP3    H141368   3.926   3.607  16.023  1.2398 -0.7438  1.0548
 6651TIP3    H241369   3.972   3.655  15.887 -0.1500  0.2357  0.9212
 6652TIP3   OH241370   1.834   6.700  15.249 -0.4056 -0.0315  0.2693
 6652TIP3    H141371   1.903   6.720  15.186 -0.6253 -2.2736 -0.7403
 6652TIP3    H241372   1.758   6.749  15.216  0.3859  1.6169  0.8113
 6653TIP3   OH241373   6.301   6.525  13.574  0.1674  0.0589 -0.7854
 6653TIP3    H141374   6.268   6.579  13.502  0.6287  0.2363 -0.8666
 6653TIP3    H241375   6.271   6.437  13.552 -2.3576  0.5796  0.4142
 6654TIP3   OH241376   6.675   0.975  15.783 -0.1926  0.7320  0.1936
 6654TIP3    H141377   6.590   1.015  15.768  0.5135  2.5734  0.9203
 6654TIP3    H241378   6.666   0.885  15.751 -2.4261  0.8659  0.3893
 6655TIP3   OH241379   1.258   4.609  14.259 -0.4949 -0.2236  0.4280
 6655TIP3    H141380   1.262   4.687  14.313  1.3447  0.4544 -0.6627
 6655TIP3    H241381   1.347   4.575  14.259 -1.0239 -1.6456 -0.1067
 6656TIP3   OH241382   0.405   2.674  14.189 -0.1469  0.3604  0.3506
 6656TIP3    H141383   0.389   2.763  14.157  2.1511  0.6440 -0.0944
 6656TIP3    H241384   0.462   2.635  14.123 -1.6671 -1.6966  0.2038
 6657TIP3   OH241385   4.239   1.883  15.144 -0.2444 -0.1628  0.2892
 6657TIP3    H141386   4.270   1.799  15.178  0.3740 -0.5887 -1.3172
 6657TIP3    H241387   4.158   1.899  15.192 -0.0470 -1.3733  1.0556
 6658TIP3   OH241388   6.225   6.744   0.330 -0.6088  0.4226 -0.1938
 6658TIP3    H141389   6.151   6.774   0.384 -0.7888  2.1288 -1.3776
 6658TIP3    H241390   6.299   6.744   0.390 -1.4158 -0.6711  0.8438
 6659TIP3   OH241391   3.318   2.090  14.757  0.0238 -0.1765 -0.3572
 6659TIP3    H141392   3.337   2.024  14.824  1.9769 -0.0826 -0.8027
 6659TIP3    H241393   3.318   2.173  14.803  0.6576 -0.1831 -0.3471
 6660TIP3   OH241394   3.771   1.114  13.844 -0.1144  0.0210  0.1923
 6660TIP3    H141395   3.776   1.167  13.766 -0.1152  0.4681  0.4959
 6660TIP3    H241396   3.783   1.175  13.917  1.2265 -0.5713  0.5038
 6661TIP3   OH241397   6.800   6.642  14.037  0.0630  0.4636  0.5157
 6661TIP3    H141398   6.858   6.685  14.100  1.2126 -0.7047  0.2686
 6661TIP3    H241399   6.762   6.569  14.085 -0.1782  0.4338  0.2782
 6662TIP3   OH241400   3.359   1.580  15.438  0.1985 -0.4653  0.3782
 6662TIP3    H141401   3.269   1.570  15.408 -0.0507 -0.5226  1.1392
 6662TIP3    H241402   3.370   1.675  15.448 -0.3915 -0.5782  2.1469
 6663TIP3   OH241403   3.352   2.590  14.535  0.1528 -0.0044 -0.0835
 6663TIP3    H141404   3.347   2.686  14.528 -1.3295 -0.0004  0.7987
 6663TIP3    H241405   3.440   2.569  14.504  1.6907  1.9656  2.6074
 6664TIP3   OH241406   6.467   3.143   2.173 -0.0096  0.3098 -0.5305
 6664TIP3    H141407   6.376   3.120   2.157  0.2539 -1.8148  0.8691
 6664TIP3    H241408   6.473   3.235   2.147 -2.8338  0.8345  0.4732
 6665TIP3   OH241409   3.237   6.863  15.261 -0.3497  0.0159 -0.0217
 6665TIP3    H141410   3.183   6.926  15.215 -0.4400  1.5038  2.0254
 6665TIP3    H241411   3.175   6.802  15.301 -0.4759  0.7978  1.0121
 6666TIP3   OH241412   2.913   1.048  15.153  0.4858  0.6809  0.0556
 6666TIP3    H141413   2.927   1.075  15.244  1.2984 -0.2789  0.2194
 6666TIP3    H241414   2.980   1.097  15.104  0.4609  0.7142  0.0537
 6667TIP3   OH241415   1.054   3.902  15.578 -0.1164 -0.2749 -0.4350
 6667TIP3    H141416   1.060   3.978  15.637 -1.6001 -0.8303  0.4638
 6667TIP3    H241417   0.976   3.919  15.525  0.5739 -0.3202 -1.4821
 6668TIP3   OH241418   2.442   1.464  13.769  0.1071 -0.1799  0.1305
 6668TIP3    H141419   2.393   1.523  13.712  1.8265  0.1808 -1.0084
 6668TIP3    H241420   2.440   1.380  13.724 -0.5645 -0.4963  0.7333
 6669TIP3   OH241421   6.398   2.283   0.837  0.4331  0.7272 -0.2319
 6669TIP3    H141422   6.483   2.249   0.810  0.3087  1.6724 -1.8181
 6669TIP3    H241423   6.345   2.205   0.853  1.9521  0.1018  1.9989
 6670TIP3   OH241424   2.232   1.261  12.182  0.4271  0.2876 -0.1788
 6670TIP3    H141425   2.273   1.277  12.267 -0.1606  0.2320  0.1167
 6670TIP3    H241426   2.298   1.286  12.118 -0.4862  4.0767  0.2427
 6671TIP3   OH241427   3.239   1.304  14.885  0.0955  0.2751  0.1773
 6671TIP3    H141428   3.321   1.302  14.835 -0.7229 -3.8399 -1.1862
 6671TIP3    H241429   3.239   1.222  14.934 -2.3965  1.0469  1.5571
 6672TIP3   OH241430   1.536   2.887  12.105 -0.0682 -0.2332 -0.2235
 6672TIP3    H141431   1.479   2.958  12.134 -0.0391 -0.0721 -0.5669
 6672TIP3    H241432   1.476   2.814  12.089  0.0393 -0.7273  1.4859
 6673TIP3   OH241433   0.255   3.398  13.848 -0.2910  0.3994  0.2562
 6673TIP3    H141434   0.255   3.403  13.944  0.8592  1.8651  0.2094
 6673TIP3    H241435   0.273   3.306  13.829  2.1854  0.5924  1.4778
 6674TIP3   OH241436   1.326   2.860  13.094  0.6256 -0.4276 -0.4516
 6674TIP3    H141437   1.405   2.901  13.129 -0.1521  0.7724 -0.0717
 6674TIP3    H241438   1.278   2.831  13.172  0.9362 -1.6220 -0.6980
 6675TIP3   OH241439   0.395   1.584  15.716 -0.4197  0.0756  0.1868
 6675TIP3    H141440   0.397   1.508  15.657  2.7038 -0.2337  0.6306
 6675TIP3    H241441   0.355   1.654  15.664  2.3885 -0.1536 -2.3600
 6676TIP3   OH241442   2.532   7.003   1.146 -0.0047  0.2661 -0.6388
 6676TIP3    H141443   2.549   6.987   1.239  1.5076  0.6086 -0.8450
 6676TIP3    H241444   2.482   7.085   1.145 -1.0195 -0.3241 -0.0759
 6677TIP3   OH241445   1.603   3.734  15.294 -0.1846 -0.2310  0.0766
 6677TIP3    H141446   1.539   3.801  15.316 -0.9227 -0.4248 -1.4240
 6677TIP3    H241447   1.552   3.653  15.288  0.2649 -0.4681 -0.6691
 6678TIP3   OH241448   1.754   6.972  13.352  0.4923 -0.7917  0.5132
 6678TIP3    H141449   1.821   6.906  13.373  3.2076  1.2317 -1.4504
 6678TIP3    H241450   1.802   7.055  13.350 -2.2354  0.8364 -0.2953
 6679TIP3   OH241451   3.513   2.195  14.081 -0.0480 -0.5763 -0.3101
 6679TIP3    H141452   3.583   2.236  14.029 -0.6657 -0.9827 -1.4931
 6679TIP3    H241453   3.484   2.263  14.141 -0.0899  0.2675 -1.2777
 6680TIP3   OH241454   3.633   0.060  13.128 -0.4176  0.2726 -0.7912
 6680TIP3    H141455   3.619   0.005  13.205  0.9233  0.1551 -0.6098
 6680TIP3    H241456   3.551   0.108  13.117 -1.2423 -1.0176 -0.3446
 6681TIP3   OH241457   2.624   3.504  15.270  0.3729  0.6862 -0.0212
 6681TIP3    H141458   2.615   3.420  15.225  0.6164  1.1475 -0.9505
 6681TIP3    H241459   2.696   3.548  15.225 -0.2888  1.7313 -0.0880
 6682TIP3   OH241460   3.695   4.280  14.361  0.3334 -0.5214 -0.3409
 6682TIP3    H141461   3.605   4.310  14.354  0.7514  0.5446 -1.4343
 6682TIP3    H241462   3.709   4.263  14.454 -1.0518 -0.9112 -0.1988
 6683TIP3   OH241463   3.425   1.680  10.919  0.9387 -0.0918 -0.0962
 6683TIP3    H141464   3.495   1.736  10.952  1.0076 -1.0716  1.5418
 6683TIP3    H241465   3.443   1.670  10.826  1.7891  1.3512 -0.0931
 6684TIP3   OH241466   2.489   6.760  10.614 -0.2028  0.4110 -0.1820
 6684TIP3    H141467   2.567   6.735  10.564 -0.2286  1.1649 -0.5991
 6684TIP3    H241468   2.493   6.707  10.693 -0.6214 -1.4814 -1.3868
 6685TIP3   OH241469   0.870   1.831  14.499  0.3279  0.1343 -0.1220
 6685TIP3    H141470   0.937   1.886  14.458 -0.1199  0.7098 -0.0899
 6685TIP3    H241471   0.808   1.812  14.429  0.3026 -0.0410 -0.0515
 6686TIP3   OH241472   4.116   4.648  12.061 -0.5862 -0.9147  0.3174
 6686TIP3    H141473   4.139   4.686  12.146  1.3104  0.8058 -0.8865
 6686TIP3    H241474   4.180   4.578  12.048 -0.6941 -0.9934  0.2201
 6687TIP3   OH241475   5.120   2.294  14.073  0.4914  0.2078 -0.0943
 6687TIP3    H141476   5.199   2.254  14.035  0.5799 -0.8468  1.1448
 6687TIP3    H241477   5.081   2.223  14.125 -0.7056  1.0361  0.1389
 6688TIP3   OH241478   1.593   2.794  11.662  0.4321  0.3914  0.0085
 6688TIP3    H141479   1.553   2.822  11.579 -1.7373 -1.1867  0.4876
 6688TIP3    H241480   1.649   2.720  11.638 -0.6630 -0.4514  0.0285
 6689TIP3   OH241481   2.750   7.084  15.505  0.2006  0.2001 -0.0526
 6689TIP3    H141482   2.771   7.080  15.598 -1.5452 -0.9664  0.3082
 6689TIP3    H241483   2.829   7.120  15.464  1.0351  0.5749  1.8467
 6690TIP3   OH241484   2.572   5.457  13.355  0.1042  0.6225  0.2467
 6690TIP3    H141485   2.636   5.528  13.349  0.1548  0.4567 -1.3416
 6690TIP3    H241486   2.617   5.388  13.403  1.1237  0.5221 -0.8286
 6691TIP3   OH241487   6.796   0.355   0.616  0.7011 -0.6341  0.0213
 6691TIP3    H141488   6.825   0.283   0.673  0.7323 -0.3755  0.3330
 6691TIP3    H241489   6.701   0.347   0.615  0.6894 -0.5376  0.2454
 6692TIP3   OH241490   2.852   1.009  10.907  0.0739  0.0253 -0.4477
 6692TIP3    H141491   2.906   1.070  10.857 -0.1029  1.2818  0.8628
 6692TIP3    H241492   2.913   0.963  10.963 -0.3593  3.1490  2.8133
 6693TIP3   OH241493   3.097   4.621   0.104  0.4183 -0.1417 -0.1131
 6693TIP3    H141494   3.175   4.608   0.050  0.4924  1.1067 -0.3116
 6693TIP3    H241495   3.128   4.670   0.180 -0.2605  0.7666 -0.4181
 6694TIP3   OH241496   5.457   1.342  11.041 -0.5141 -0.0357  0.0454
 6694TIP3    H141497   5.400   1.267  11.025 -0.2749 -0.2076  0.0001
 6694TIP3    H241498   5.457   1.390  10.958 -1.1454  0.3426  0.2554
 6695TIP3   OH241499   2.477   1.605  13.302 -0.4361  0.5856  0.1377
 6695TIP3    H141500   2.553   1.648  13.263 -0.9771  0.5761 -0.9523
 6695TIP3    H241501   2.428   1.570  13.227 -1.3622  0.3578  0.8396
 6696TIP3   OH241502   0.737   0.204  14.002 -0.2162 -0.7233  0.2587
 6696TIP3    H141503   0.816   0.226  13.953  0.9399 -4.2092  0.3934
 6696TIP3    H241504   0.668   0.195  13.936 -0.7260  2.8824  0.1950
 6697TIP3   OH241505   1.928   5.563  14.030  0.4114  0.1778  0.1475
 6697TIP3    H141506   1.843   5.521  14.046  0.3559  0.4994  0.7118
 6697TIP3    H241507   1.907   5.643  13.982  0.2742  0.9040  1.3969
 6698TIP3   OH241508   3.526   3.078  14.777  0.2816  0.6541 -0.3418
 6698TIP3    H141509   3.444   3.078  14.729 -0.4796 -0.8161  0.8957
 6698TIP3    H241510   3.554   2.986  14.777  2.0257  1.1585 -0.9049
 6699TIP3   OH241511   4.359   2.049  13.785  0.1903 -0.1736 -0.3395
 6699TIP3    H141512   4.265   2.034  13.774  0.2238 -0.5946 -0.0609
 6699TIP3    H241513   4.396   2.033  13.698  0.1258 -0.9726 -0.2247
 6700TIP3   OH241514   1.491   2.071  13.784  0.7001  0.7816 -0.5610
 6700TIP3    H141515   1.468   1.987  13.746  1.3990  0.2015  0.2757
 6700TIP3    H241516   1.454   2.136  13.724 -2.1134 -0.0922  0.1523
 6701TIP3   OH241517   2.612   2.287   0.140 -0.1584  0.0124  0.2737
 6701TIP3    H141518   2.630   2.377   0.167  0.1874  0.2559 -0.7453
 6701TIP3    H241519   2.643   2.233   0.213 -1.7182  0.7761  1.5316
 6702TIP3   OH241520   1.899   4.182  12.082 -0.0745  0.2320 -0.0553
 6702TIP3    H141521   1.915   4.275  12.098 -2.6897  0.8624 -0.8369
 6702TIP3    H241522   1.975   4.153  12.031  1.3762  1.6073  1.2850
 6703TIP3   OH241523   1.172   5.783  11.676 -0.9171 -0.2172 -0.1025
 6703TIP3    H141524   1.193   5.808  11.766 -3.9602 -0.2204  0.6902
 6703TIP3    H241525   1.228   5.708  11.658  0.7870  0.6835  1.2400
 6704TIP3   OH241526   1.435   0.364  13.163  0.2906 -0.1467 -0.2771
 6704TIP3    H141527   1.369   0.433  13.168  0.5699  0.1090 -0.0893
 6704TIP3    H241528   1.405   0.298  13.225 -1.4131 -1.4439 -2.4115
 6705TIP3   OH241529   4.372   3.754  14.172  0.0663 -0.3259 -0.1215
 6705TIP3    H141530   4.285   3.738  14.210  0.5652 -0.8089  0.8433
 6705TIP3    H241531   4.432   3.717  14.235  0.9980  0.2788 -0.6444
 6706TIP3   OH241532   3.492   0.272  12.970  0.0407 -0.2537 -0.0770
 6706TIP3    H141533   3.473   0.180  12.948  0.8072 -0.5353  0.4060
 6706TIP3    H241534   3.418   0.321  12.934 -0.1223 -1.0051 -0.7879
 6707TIP3   OH241535   3.641   2.293  13.854  0.3049 -0.0497 -0.0983
 6707TIP3    H141536   3.681   2.230  13.795  1.3263  1.2225 -0.7828
 6707TIP3    H241537   3.652   2.378  13.811 -2.4517  0.4401  0.0623
 6708TIP3   OH241538   4.506   1.057  12.836  0.3754 -0.3913  0.2510
 6708TIP3    H141539   4.457   1.075  12.915 -0.8718  1.9732 -0.9970
 6708TIP3    H241540   4.470   0.974  12.803 -1.0726  0.0564  0.6682
 6709TIP3   OH241541   2.834   4.267  10.187  0.3152  0.1407 -0.0194
 6709TIP3    H141542   2.926   4.280  10.211  0.2973 -0.1697  0.2283
 6709TIP3    H241543   2.835   4.250  10.093  0.4264  1.0145 -0.1744
 6710TIP3   OH241544   2.175   5.922  15.267 -0.0658  0.3660  0.2381
 6710TIP3    H141545   2.246   5.885  15.319  1.1916  1.4515 -0.6779
 6710TIP3    H241546   2.100   5.924  15.326  0.3620 -1.7785  0.9001
 6711TIP3   OH241547   6.277   3.291  13.404 -0.3137 -0.3794 -0.2079
 6711TIP3    H141548   6.242   3.253  13.485  2.7120  1.4619  2.0502
 6711TIP3    H241549   6.289   3.216  13.346  0.6214 -2.2391  2.2735
 6712TIP3   OH241550   0.290   4.690   0.777 -1.0877  0.4348  0.0590
 6712TIP3    H141551   0.221   4.659   0.836 -0.4094  0.0652  0.6656
 6712TIP3    H241552   0.243   4.731   0.705 -1.9233  0.8713  0.8462
 6713TIP3   OH241553   4.439   1.853  14.963 -0.3568 -0.0191 -0.4572
 6713TIP3    H141554   4.404   1.802  14.890 -2.0525  0.5774 -0.1020
 6713TIP3    H241555   4.363   1.868  15.020  0.5873  0.9483  0.5849
 6714TIP3   OH241556   4.325   6.483  13.882  0.5804 -0.6561 -0.4013
 6714TIP3    H141557   4.373   6.414  13.835 -0.7884 -0.9435 -1.4130
 6714TIP3    H241558   4.382   6.560  13.876  2.0628 -1.6513  0.6181
 6715TIP3   OH241559   1.978   1.472  15.671 -0.2826  0.0477  0.6600
 6715TIP3    H141560   2.010   1.418  15.599 -0.6174  1.1012 -0.2820
 6715TIP3    H241561   1.882   1.463  15.667 -0.3383  0.7663  0.4691
 6716TIP3   OH241562   4.297   1.294   0.228 -0.6682  0.0452  0.0398
 6716TIP3    H141563   4.295   1.380   0.188  0.3465 -0.5904 -1.4287
 6716TIP3    H241564   4.329   1.309   0.317 -2.3469  1.3951  0.4536
 6717TIP3   OH241565   5.279   7.071  12.969 -0.0232 -0.0347  0.2249
 6717TIP3    H141566   5.273   7.123  13.049  1.0400 -0.7991  0.8146
 6717TIP3    H241567   5.320   7.130  12.906 -2.2592  1.0765 -0.2233
 6718TIP3   OH241568   7.030   3.563  15.558 -0.2959 -0.0654 -0.2821
 6718TIP3    H141569   6.959   3.611  15.601 -0.0658 -0.3303  0.3991
 6718TIP3    H241570   6.994   3.537  15.473 -1.0127 -0.1991  0.0615
 6719TIP3   OH241571   7.291   6.619  13.902 -0.1093 -0.5776 -0.2471
 6719TIP3    H141572   7.265   6.539  13.856  0.2577  0.3168 -2.0269
 6719TIP3    H241573   7.385   6.627  13.885  0.0771 -0.3472  0.8479
 6720TIP3   OH241574   3.194   3.889  14.562 -0.6714 -0.2485 -0.2835
 6720TIP3    H141575   3.151   3.804  14.553  1.5620 -1.4951  0.1542
 6720TIP3    H241576   3.261   3.874  14.629 -0.7631  2.0951  0.3712
 6721TIP3   OH241577   1.513   1.816  14.308 -0.4157 -0.1575 -0.4745
 6721TIP3    H141578   1.591   1.865  14.281 -0.5805  0.6310  0.4619
 6721TIP3    H241579   1.443   1.881  14.309 -0.8453 -0.6249 -0.1900
 6722TIP3   OH241580   1.773   4.611  14.094 -0.6746  0.5333  0.2808
 6722TIP3    H141581   1.839   4.568  14.149 -0.5880  1.8034  1.2173
 6722TIP3    H241582   1.765   4.555  14.018  0.5441 -0.3317  0.7596
 6723TIP3   OH241583   6.381   0.907  13.375  0.1197  0.3696 -0.9691
 6723TIP3    H141584   6.343   0.854  13.446 -0.0481  0.0045 -1.3339
 6723TIP3    H241585   6.474   0.886  13.377  0.3890  1.5858  0.2085
 6724TIP3   OH241586   1.382   1.692   1.184 -0.1045 -0.5261  0.4635
 6724TIP3    H141587   1.453   1.720   1.241  0.0638  1.5540 -0.7192
 6724TIP3    H241588   1.420   1.690   1.096 -0.9120 -1.6295  0.1162
 6725TIP3   OH241589   4.359   6.164  11.527  0.4297 -0.1413  0.4505
 6725TIP3    H141590   4.438   6.111  11.535  1.1073  1.0692  2.0066
 6725TIP3    H241591   4.315   6.156  11.612 -0.9806 -0.5852 -0.3076
 6726TIP3   OH241592   2.487   0.132   1.744  0.1322  0.1011  0.7371
 6726TIP3    H141593   2.536   0.172   1.816  0.7530  1.6729 -0.5083
 6726TIP3    H241594   2.497   0.038   1.757  1.0758  0.3715  2.1235
 6727TIP3   OH241595   5.653   0.254   0.938 -0.0554 -0.3350  0.0238
 6727TIP3    H141596   5.593   0.189   0.901 -1.2770  0.4252  0.6346
 6727TIP3    H241597   5.740   0.220   0.918 -0.6789 -0.4472 -2.6399
 6728TIP3   OH241598   3.690   4.439  14.053 -0.0068 -0.4546 -0.0435
 6728TIP3    H141599   3.708   4.424  13.960 -0.2539 -0.6632 -0.0574
 6728TIP3    H241600   3.755   4.387  14.099 -0.7981 -1.4869 -0.0912
 6729TIP3   OH241601   6.123   1.724  13.545 -0.1267  0.4484 -0.1605
 6729TIP3    H141602   6.160   1.637  13.541 -1.0209  0.0845 -0.6115
 6729TIP3    H241603   6.135   1.760  13.457 -0.5501  0.4525 -0.2150
 6730TIP3   OH241604   2.324   2.433   0.436 -0.1825 -0.7407 -0.4578
 6730TIP3    H141605   2.328   2.432   0.340 -0.4275 -1.1131 -0.4645
 6730TIP3    H241606   2.407   2.471   0.463 -1.5333  2.7546 -0.9161
 6731TIP3   OH241607   4.647   0.411  15.531  0.0077  0.2305  0.4932
 6731TIP3    H141608   4.605   0.481  15.581  1.8846  0.5242  1.7332
 6731TIP3    H241609   4.652   0.445  15.442 -2.0418  0.3191  0.4036
 6732TIP3   OH241610   3.932   6.123  13.291 -0.7011 -0.4566 -0.6952
 6732TIP3    H141611   3.991   6.198  13.294  0.8540 -1.6888  0.9617
 6732TIP3    H241612   3.859   6.148  13.348 -0.8217  0.3065 -1.1870
 6733TIP3   OH241613   5.063   6.801   0.226 -0.5528  0.0599  0.3228
 6733TIP3    H141614   5.007   6.870   0.192 -1.3445 -0.7960 -0.1405
 6733TIP3    H241615   5.048   6.802   0.321  1.1220  1.9783  0.5961
 6734TIP3   OH241616   1.267   7.268  14.292  0.0187  0.3227 -0.6694
 6734TIP3    H141617   1.261   7.243  14.200 -0.2721  0.0145 -0.5678
 6734TIP3    H241618   1.205   7.340  14.301  1.3616  1.5754 -1.1185
 6735TIP3   OH241619   3.385   4.934   1.420  0.2824  0.3105  0.2542
 6735TIP3    H141620   3.352   4.903   1.504 -2.6440 -1.4732 -1.4910
 6735TIP3    H241621   3.385   5.030   1.428  0.7803  0.1553  2.4975
 6736TIP3   OH241622   4.653   6.770  14.084  0.2851 -0.6036  0.3462
 6736TIP3    H141623   4.637   6.802  13.995 -0.0608 -2.6033 -0.3188
 6736TIP3    H241624   4.569   6.779  14.128  0.0095 -1.2554 -0.0454
 6737TIP3   OH241625   4.718   1.810  15.178  0.1095 -0.1777 -0.0672
 6737TIP3    H141626   4.672   1.744  15.231  0.4325 -1.0678 -0.8899
 6737TIP3    H241627   4.808   1.778  15.173  1.0705  1.9944  2.2624
 6738TIP3   OH241628   3.655   7.038  14.995  0.4950 -0.6177 -0.3062
 6738TIP3    H141629   3.605   7.111  14.958  1.4717  0.2945  0.1726
 6738TIP3    H241630   3.723   7.020  14.931  1.6579  0.4022  0.6153
 6739TIP3   OH241631   0.641   6.072  13.289  0.0063  0.4052  0.4470
 6739TIP3    H141632   0.600   6.000  13.336  1.1219 -0.7946 -0.3855
 6739TIP3    H241633   0.585   6.085  13.212  1.6920 -1.9482 -1.2566
 6740TIP3   OH241634   3.193   5.167   2.262 -0.1614 -0.0746  0.0787
 6740TIP3    H141635   3.164   5.114   2.188  1.5733 -0.1917 -0.5409
 6740TIP3    H241636   3.282   5.193   2.239  0.0084  0.7864  1.6516
 6741TIP3   OH241637   0.064   5.268  15.581 -0.1136  0.1965  0.3951
 6741TIP3    H141638   0.108   5.187  15.609  0.6291  0.5284  0.2199
 6741TIP3    H241639   0.007   5.241  15.509 -0.7180 -0.3638  1.0852
 6742TIP3   OH241640   2.133   2.073  12.739 -0.2046 -0.2190  0.2920
 6742TIP3    H141641   2.145   2.068  12.834 -1.3835  0.3571  0.4798
 6742TIP3    H241642   2.194   2.140  12.710  0.8749 -1.1034  0.5092
 6743TIP3   OH241643   2.400   5.975  13.448 -0.0288  0.1727 -0.3473
 6743TIP3    H141644   2.395   5.880  13.462  0.3469  0.2969  0.7100
 6743TIP3    H241645   2.492   5.996  13.464 -0.1684  0.7614 -0.3027
 6744TIP3   OH241646   1.100   7.048   1.382 -0.1818  0.1337  0.1295
 6744TIP3    H141647   1.170   6.984   1.369 -1.1051 -0.7238 -0.6847
 6744TIP3    H241648   1.075   7.038   1.474  0.4874  0.1633  0.3164
 6745TIP3   OH241649   4.044   2.483  12.655  0.1646  0.5080 -0.2324
 6745TIP3    H141650   4.030   2.543  12.728  0.1312 -1.7066  1.6130
 6745TIP3    H241651   4.139   2.484  12.642  0.3615 -0.4459  1.0361
 6746TIP3   OH241652   4.419   4.233   2.060 -0.7384  0.5031  0.3281
 6746TIP3    H141653   4.357   4.167   2.092 -0.2063  0.1550  0.6598
 6746TIP3    H241654   4.431   4.292   2.134  0.5564 -0.3461  0.8291
 6747TIP3   OH241655   1.690   6.494  15.357 -0.1342 -0.3225  0.5038
 6747TIP3    H141656   1.748   6.553  15.309 -1.0843 -1.6105 -2.3091
 6747TIP3    H241657   1.743   6.415  15.373 -0.4909 -0.7447 -0.3686
 6748TIP3   OH241658   1.458   2.569   1.326 -0.2393  0.7524  0.4783
 6748TIP3    H141659   1.488   2.609   1.245 -0.8738 -0.1760 -0.2213
 6748TIP3    H241660   1.415   2.640   1.374  0.5303  1.4020  0.2033
 6749TIP3   OH241661   0.413   0.690  13.576  0.1525 -0.8284 -0.4248
 6749TIP3    H141662   0.432   0.596  13.574 -0.2543 -0.9971  1.7731
 6749TIP3    H241663   0.322   0.696  13.548 -0.7272 -1.4263  2.1292
 6750TIP3   OH241664   3.461   1.336  10.478 -0.4348  0.1160 -0.2268
 6750TIP3    H141665   3.495   1.404  10.420  1.1669 -1.7083 -1.5143
 6750TIP3    H241666   3.380   1.306  10.436 -0.2420  0.0624 -0.5593
 6751TIP3   OH241667   2.217   1.150  15.345 -0.4815 -0.2855 -0.2509
 6751TIP3    H141668   2.176   1.065  15.331 -2.1355  0.4285  0.1113
 6751TIP3    H241669   2.288   1.133  15.407 -0.4974 -1.4762 -0.5614
 6752TIP3   OH241670   1.105   7.254   1.769 -0.4185  0.1659 -0.5874
 6752TIP3    H141671   1.112   7.281   1.861  1.9574  2.3755 -1.3241
 6752TIP3    H241672   1.030   7.304   1.736 -1.0267 -0.3180  0.0480
 6753TIP3   OH241673   4.278   4.850  10.828 -0.4346 -0.3950  0.7694
 6753TIP3    H141674   4.370   4.877  10.827 -0.0061 -1.8269 -2.3331
 6753TIP3    H241675   4.232   4.922  10.784 -0.6501 -0.2354  1.2515
 6754TIP3   OH241676   0.829   2.053  15.731  0.0175 -0.4671  0.4413
 6754TIP3    H141677   0.774   2.031  15.806  0.2534  1.6969  1.2887
 6754TIP3    H241678   0.781   2.122  15.685  0.8963 -0.2512 -0.1715
 6755TIP3   OH241679   0.632   0.403  12.613 -0.2693 -0.0543 -1.1333
 6755TIP3    H141680   0.685   0.460  12.556  1.2636  0.0992  0.4242
 6755TIP3    H241681   0.544   0.440  12.608  0.1129  0.7169 -2.4171
 6756TIP3   OH241682   4.063   2.768   2.054  0.4029 -0.1031 -0.2657
 6756TIP3    H141683   4.026   2.680   2.044  0.4004 -0.1269 -0.0433
 6756TIP3    H241684   4.142   2.767   2.000 -0.6379  0.3713 -1.8452
 6757TIP3   OH241685   5.555   6.977  12.711  0.0189  0.8453  0.3407
 6757TIP3    H141686   5.605   6.980  12.630  1.1580 -0.5352  0.9694
 6757TIP3    H241687   5.597   7.042  12.768  0.3382  0.5638  0.4312
 6758TIP3   OH241688   2.480   1.302  15.495 -0.3747 -0.4448 -0.0949
 6758TIP3    H141689   2.530   1.249  15.433  1.8570  0.0861  1.1987
 6758TIP3    H241690   2.455   1.380  15.446  2.3049  0.4812 -0.0584
 6759TIP3   OH241691   3.965   2.600  14.828  0.5762 -0.1513  0.0166
 6759TIP3    H141692   3.980   2.612  14.922 -0.3475  1.1442  0.0029
 6759TIP3    H241693   3.878   2.635  14.813  0.3776 -1.1437 -1.1864
 6760TIP3   OH241694   4.855   0.347   2.513 -0.2057 -0.6630 -0.2077
 6760TIP3    H141695   4.806   0.324   2.592 -1.9842  1.3411 -0.6800
 6760TIP3    H241696   4.789   0.383   2.454  1.5980  0.7064 -1.4417
 6761TIP3   OH241697   7.100   5.841  14.173  0.2072 -0.7440 -0.4819
 6761TIP3    H141698   7.137   5.826  14.260 -1.2615 -0.2050  0.2346
 6761TIP3    H241699   7.007   5.822  14.182 -0.5035  2.1223 -1.2213
 6762TIP3   OH241700   4.922   3.076   2.860  0.4852 -0.8264 -0.1262
 6762TIP3    H141701   4.897   2.992   2.820  1.3017  0.0060 -2.4562
 6762TIP3    H241702   5.016   3.082   2.846  0.6957 -0.2596  1.4949
 6763TIP3   OH241703   3.333   4.883  13.452  0.2954 -0.0398  0.4196
 6763TIP3    H141704   3.332   4.968  13.409 -0.5820 -1.2128 -1.9661
 6763TIP3    H241705   3.240   4.860  13.461  0.5327 -0.8402  0.8599
 6764TIP3   OH241706   0.733   1.433  13.084  0.3890  0.4707 -0.0520
 6764TIP3    H141707   0.728   1.383  13.003  3.4750  3.1100 -1.9964
 6764TIP3    H241708   0.674   1.507  13.070  0.7179  0.7856  0.2249
 6765TIP3   OH241709   0.720   2.818  15.087 -0.0619  0.7621 -0.1475
 6765TIP3    H141710   0.664   2.848  15.158  1.3210 -0.5013  1.5186
 6765TIP3    H241711   0.809   2.835  15.118  0.6093 -1.2435 -0.9161
 6766TIP3   OH241712   5.660   0.169  15.900  0.6276 -0.1447 -0.1267
 6766TIP3    H141713   5.583   0.218  15.870  0.0700 -0.5363  0.6557
 6766TIP3    H241714   5.735   0.222  15.872  0.0413  0.8732  0.2328
 6767TIP3   OH241715   5.540   1.297  13.288  0.2285 -0.3326 -0.3677
 6767TIP3    H141716   5.636   1.297  13.294  0.2034 -0.5105  0.0527
 6767TIP3    H241717   5.518   1.208  13.261  0.1718 -0.3462 -0.2766
 6768TIP3   OH241718   2.522   2.369  12.394  0.1860  0.5184  0.6553
 6768TIP3    H141719   2.608   2.370  12.351  0.0424  0.9566  0.3724
 6768TIP3    H241720   2.484   2.285  12.370  0.2779  0.5874  0.2562
 6769TIP3   OH241721   0.002   0.533  12.686 -0.5775  0.0558 -0.1663
 6769TIP3    H141722   0.007   0.484  12.768 -1.6753 -3.4880 -2.1136
 6769TIP3    H241723  -0.085   0.512  12.651 -0.7910  2.8556 -1.4596
 6770TIP3   OH241724   6.777   3.056   1.184 -0.1143 -0.1018  0.4910
 6770TIP3    H141725   6.715   3.058   1.257  0.2528  1.4558  0.7780
 6770TIP3    H241726   6.863   3.059   1.224  0.0873  1.0613 -0.0028
 6771TIP3   OH241727   0.988   6.749  14.917  0.4000  0.6383 -0.4076
 6771TIP3    H141728   0.979   6.675  14.977  2.7904  0.6432 -0.0006
 6771TIP3    H241729   0.985   6.826  14.974 -1.2493  0.8543 -0.7467
 6772TIP3   OH241730   4.675   3.601  15.926  0.1633 -0.0944  0.1278
 6772TIP3    H141731   4.583   3.628  15.934 -0.5482 -2.0647 -1.0883
 6772TIP3    H241732   4.689   3.541  15.999  0.8765  1.1584  1.0483
 6773TIP3   OH241733   3.319   7.277   0.707  0.0217 -0.4106  0.1680
 6773TIP3    H141734   3.258   7.328   0.759  3.2531  1.6210  2.1440
 6773TIP3    H241735   3.381   7.241   0.771  0.5285 -2.9699 -1.6729
 6774TIP3   OH241736   4.150   2.166   1.249 -0.2066 -0.0979  0.2051
 6774TIP3    H141737   4.104   2.111   1.186 -0.9343  0.5633  0.1493
 6774TIP3    H241738   4.143   2.120   1.333  2.1149 -1.7546 -0.4750
 6775TIP3   OH241739   5.078   2.451  13.768 -0.6964 -0.0393  0.0737
 6775TIP3    H141740   5.156   2.458  13.714 -0.0309 -2.1507  0.6880
 6775TIP3    H241741   5.100   2.383  13.833 -3.7886 -2.3218 -1.1425
 6776TIP3   OH241742   4.813   0.514   0.672 -0.2506  0.2559 -0.2976
 6776TIP3    H141743   4.768   0.434   0.698 -1.3351  1.1819  0.7038
 6776TIP3    H241744   4.815   0.510   0.576 -0.8548 -0.6437 -0.2835
 6777TIP3   OH241745   4.516   3.946   1.827  0.7806 -0.3217  0.1583
 6777TIP3    H141746   4.559   3.984   1.903  0.4340  0.0881  0.1489
 6777TIP3    H241747   4.551   3.996   1.753 -2.1846  2.2489  0.4289
 6778TIP3   OH241748   3.286   3.627  14.125  0.1902 -0.1014  0.1668
 6778TIP3    H141749   3.249   3.578  14.052 -1.2272  1.9779 -0.5153
 6778TIP3    H241750   3.335   3.561  14.174  1.2760 -1.5126 -2.6869
 6779TIP3   OH241751   1.470   0.511  12.751  0.4358 -0.3091  0.7826
 6779TIP3    H141752   1.473   0.584  12.690 -0.6309  0.2979  1.4352
 6779TIP3    H241753   1.486   0.550  12.837  2.7975 -1.2789  0.8173
 6780TIP3   OH241754   5.449   0.151  14.098  0.4084  0.4640 -0.0306
 6780TIP3    H141755   5.429   0.213  14.029 -0.3320 -1.4472 -1.5892
 6780TIP3    H241756   5.526   0.103  14.067  0.0369 -0.4541  0.4221
 6781TIP3   OH241757   1.540   1.181  11.752 -0.4820 -0.4255  0.2570
 6781TIP3    H141758   1.586   1.129  11.686  0.2176  0.8348 -0.2748
 6781TIP3    H241759   1.543   1.128  11.831  0.5398 -1.0362 -0.1816
 6782TIP3   OH241760   3.558   7.022   0.632  0.4708  0.3972 -0.0677
 6782TIP3    H141761   3.574   6.949   0.691  0.0162  0.6387  0.3662
 6782TIP3    H241762   3.469   7.008   0.600  0.8839  0.0189 -1.0619
 6783TIP3   OH241763   1.805   4.624  13.765  0.3867  0.2131 -0.2544
 6783TIP3    H141764   1.711   4.642  13.765  0.4854  0.7329  0.2445
 6783TIP3    H241765   1.811   4.533  13.736 -0.2266  0.4022 -0.9902
 6784TIP3   OH241766   1.895   3.626  12.052 -0.1713 -0.3748  0.1050
 6784TIP3    H141767   1.863   3.574  12.125  1.9861  0.4193  1.6470
 6784TIP3    H241768   1.937   3.702  12.092  1.3907 -0.1136 -1.9103
 6785TIP3   OH241769   3.212   5.497  14.498  0.6725  0.5730  0.2480
 6785TIP3    H141770   3.289   5.441  14.507 -1.0648 -1.9002  0.2620
 6785TIP3    H241771   3.186   5.488  14.406 -0.6310 -0.0351  0.6596
 6786TIP3   OH241772   5.176   5.996  15.217 -0.5561  0.3728  0.1781
 6786TIP3    H141773   5.192   5.910  15.256 -1.4356  0.5888  1.0341
 6786TIP3    H241774   5.144   6.050  15.289  1.4027  1.8602 -0.0184
 6787TIP3   OH241775   4.875   6.708  12.660 -0.5800  0.9100  0.2122
 6787TIP3    H141776   4.828   6.651  12.599  0.5425  0.5926 -0.3714
 6787TIP3    H241777   4.845   6.680  12.746 -1.3752  0.6363 -0.1494
 6788TIP3   OH241778   3.005   0.627  15.214  0.2778  0.0031 -0.5078
 6788TIP3    H141779   2.964   0.546  15.245  0.8777 -0.0483  0.1628
 6788TIP3    H241780   3.059   0.656  15.288  1.8722 -0.2246 -1.5659
 6789TIP3   OH241781   0.091   0.674  14.308 -0.2315  0.1104  0.1404
 6789TIP3    H141782   0.172   0.623  14.302 -0.5391 -0.4262  0.4697
 6789TIP3    H241783   0.022   0.608  14.321 -0.6711  0.5897  0.2718
 6790TIP3   OH241784   2.295   4.964   0.858  0.2372 -0.1583  0.3974
 6790TIP3    H141785   2.340   5.046   0.840  1.4381 -0.9223 -0.1762
 6790TIP3    H241786   2.321   4.906   0.786 -0.5650 -1.0477  0.8097
 6791TIP3   OH241787   3.894   7.017  11.542  0.0086 -0.7612 -0.6729
 6791TIP3    H141788   3.938   6.955  11.484  0.1976 -0.0280 -1.3228
 6791TIP3    H241789   3.801   7.012  11.517 -0.1829 -1.8062  0.2315
 6792TIP3   OH241790   6.158   6.957  14.687 -0.4163 -0.0633 -0.8374
 6792TIP3    H141791   6.172   6.863  14.679  1.6260  0.1399 -0.0239
 6792TIP3    H241792   6.071   6.965  14.726 -0.2843 -1.6496 -0.1744
 6793TIP3   OH241793   1.647   2.612  10.713  0.0484  0.1984  0.1042
 6793TIP3    H141794   1.628   2.694  10.759 -2.6036  1.2063 -2.6265
 6793TIP3    H241795   1.724   2.632  10.659  0.8488  0.1599  1.2203
 6794TIP3   OH241796   2.340   5.195  14.813  0.1886 -0.1337  0.1525
 6794TIP3    H141797   2.316   5.288  14.815 -0.4002 -0.2675 -0.4978
 6794TIP3    H241798   2.309   5.160  14.896  0.8776  0.3589  0.6274
 6795TIP3   OH241799   0.702   3.899  12.853  0.3904 -0.3644  0.4178
 6795TIP3    H141800   0.765   3.847  12.803  1.4578  0.1670  1.1965
 6795TIP3    H241801   0.617   3.865  12.826  1.0479 -2.1210  0.4762
 6796TIP3   OH241802   3.055   4.728  14.514 -0.5389  0.0115 -0.0896
 6796TIP3    H141803   3.030   4.799  14.454  2.4294 -0.7653 -2.3316
 6796TIP3    H241804   3.104   4.772  14.583 -0.1033  0.3433 -0.6094
 6797TIP3   OH241805   3.693   0.629   0.339  0.0423 -0.1021  1.0999
 6797TIP3    H141806   3.737   0.705   0.301  0.9943 -1.3272 -0.3206
 6797TIP3    H241807   3.741   0.554   0.303 -1.6495 -1.4016  1.5250
 6798TIP3   OH241808   1.446   1.782   0.937  0.1675  0.2241 -0.3321
 6798TIP3    H141809   1.540   1.784   0.919  0.3861 -1.0545  0.6581
 6798TIP3    H241810   1.420   1.875   0.934  2.3908  1.1312  4.1129
 6799TIP3   OH241811   1.990   1.360   0.460  0.5456  0.2981 -0.1209
 6799TIP3    H141812   2.015   1.313   0.380 -0.6700  0.2986 -0.5242
 6799TIP3    H241813   2.030   1.311   0.531  0.0987 -0.8032 -0.6143
 6800TIP3   OH241814   1.678   0.992  15.210 -0.0468  0.1672  0.2500
 6800TIP3    H141815   1.757   1.039  15.185 -0.4128 -0.0864 -1.4140
 6800TIP3    H241816   1.660   1.021  15.300  0.5695  2.0692 -0.2244
 6801TIP3   OH241817   3.258   0.073  14.893  0.1397 -0.3383 -0.1191
 6801TIP3    H141818   3.203  -0.002  14.918  0.7643 -0.3864  1.1452
 6801TIP3    H241819   3.334   0.034  14.851  0.4481 -0.4258  0.5079
 6802TIP3   OH241820   4.604   2.457  15.061 -0.1179  0.7206  0.6481
 6802TIP3    H141821   4.525   2.412  15.089 -0.6551  1.3238  0.0926
 6802TIP3    H241822   4.589   2.480  14.970  0.9908  0.1977  0.3143
 6803TIP3   OH241823   5.089   0.895  12.507  0.5834  0.1034 -0.1763
 6803TIP3    H141824   5.066   0.988  12.506  1.6054  0.4243  2.5113
 6803TIP3    H241825   5.006   0.850  12.497  0.3212  1.2749 -4.0060
 6804TIP3   OH241826   6.568   2.254  13.425  0.1733 -0.5522  0.1933
 6804TIP3    H141827   6.630   2.285  13.360  0.4483  0.2838  0.8363
 6804TIP3    H241828   6.492   2.224  13.375  0.7086 -0.6737 -0.5439
 6805TIP3   OH241829   7.025   5.614  14.444  0.1287  0.2288  0.3407
 6805TIP3    H141830   7.034   5.564  14.363 -1.1351 -0.1834  0.4372
 6805TIP3    H241831   7.049   5.704  14.419  1.6182 -0.2557 -0.0162
 6806TIP3   OH241832   3.647   0.160  14.878  0.2456  0.3568  0.3557
 6806TIP3    H141833   3.709   0.197  14.941  0.9289  1.5457 -0.9849
 6806TIP3    H241834   3.640   0.226  14.809  0.8841 -1.6650 -1.7037
 6807TIP3   OH241835   4.336   2.049  15.553 -0.0851  0.4658 -0.0665
 6807TIP3    H141836   4.394   1.982  15.517  0.9804  1.2422  0.2033
 6807TIP3    H241837   4.384   2.131  15.544 -1.1516  1.1330  0.1203
 6808TIP3   OH241838   2.417   1.486  11.588 -0.0361 -0.3584 -0.1867
 6808TIP3    H141839   2.352   1.439  11.639 -2.6071  1.0276 -2.0463
 6808TIP3    H241840   2.451   1.421  11.526  0.8121 -1.2271  1.1586
 6809TIP3   OH241841   5.791   4.829  13.524 -0.6958 -0.3137 -0.7057
 6809TIP3    H141842   5.705   4.843  13.564 -1.3310 -1.7258 -1.5083
 6809TIP3    H241843   5.812   4.738  13.546  0.8608  0.2037 -0.0319
 6810TIP3   OH241844   0.826   1.310  10.136  0.7353  0.4300  0.0288
 6810TIP3    H141845   0.821   1.228  10.186 -1.0654  1.5969  1.9021
 6810TIP3    H241846   0.737   1.322  10.102  0.6399  2.1664  0.8092
 6811TIP3   OH241847   4.351   2.932   0.494 -0.1539  0.8768  0.9404
 6811TIP3    H141848   4.356   2.898   0.405  0.5747  0.0954  1.2693
 6811TIP3    H241849   4.371   3.025   0.485 -1.2138  1.0373  0.1513
 6812TIP3   OH241850   4.782   1.487  15.834  0.3808 -0.0183 -0.6198
 6812TIP3    H141851   4.756   1.552  15.768  0.3736 -0.1002 -0.6973
 6812TIP3    H241852   4.700   1.461  15.876  0.3185 -0.3886 -0.9688
 6813TIP3   OH241853   4.077   0.927   0.097  0.2006 -0.3519  0.3272
 6813TIP3    H141854   4.054   1.010   0.138  1.7377 -0.6726  1.9487
 6813TIP3    H241855   4.132   0.951   0.022 -2.9897  0.2625 -1.9140
 6814TIP3   OH241856   4.684   6.225  13.711 -0.0425 -0.1463  0.6004
 6814TIP3    H141857   4.757   6.234  13.773 -0.5045  1.1301  0.9816
 6814TIP3    H241858   4.683   6.308  13.663 -0.4099 -0.6861 -0.3218
 6815TIP3   OH241859   7.175   6.986  13.571  0.3194  0.6388  0.2091
 6815TIP3    H141860   7.268   6.963  13.577 -0.3462 -2.2639  0.1769
 6815TIP3    H241861   7.155   6.982  13.477  0.2296  1.6540  0.1756
 6816TIP3   OH241862   4.466   2.482   0.188  0.0326 -0.6255  0.3089
 6816TIP3    H141863   4.426   2.401   0.158  1.4867 -0.7899 -1.2552
 6816TIP3    H241864   4.478   2.534   0.108  2.7827 -0.5263  0.7200
 6817TIP3   OH241865   2.759   1.665  15.827 -0.1348 -0.5817  0.1713
 6817TIP3    H141866   2.746   1.695  15.737  0.9075 -2.2060 -0.5381
 6817TIP3    H241867   2.718   1.578  15.830 -1.7134  0.1695  1.7586
 6818TIP3   OH241868   2.955   6.859  14.918  0.2580  0.4996 -0.0392
 6818TIP3    H141869   2.932   6.884  15.007 -1.8895  2.3579 -1.0799
 6818TIP3    H241870   2.911   6.775  14.904 -0.3877  0.7937  0.2477
 6819TIP3   OH241871   4.340   1.623  14.533 -0.3077 -0.1809 -0.2737
 6819TIP3    H141872   4.257   1.577  14.546 -0.9949  0.8712 -0.9107
 6819TIP3    H241873   4.334   1.660  14.445  0.2544  1.0809  0.2059
 6820TIP3   OH241874   3.352   2.843  14.374 -0.1229 -0.4928  0.3886
 6820TIP3    H141875   3.322   2.933  14.361  0.8058 -0.3526 -0.8612
 6820TIP3    H241876   3.314   2.795  14.300 -0.4613 -1.1000  0.9516
 6821TIP3   OH241877   4.840   7.019  13.762  0.1531 -0.0971  0.1276
 6821TIP3    H141878   4.790   6.939  13.772  2.0914 -1.1041  2.2904
 6821TIP3    H241879   4.800   7.081  13.823  1.5407 -0.9300  1.9261
 6822TIP3   OH241880   4.885   6.241  13.910  0.0733  0.4328  0.0614
 6822TIP3    H141881   4.957   6.179  13.905 -0.8489 -0.7767  1.4006
 6822TIP3    H241882   4.924   6.321  13.945  0.6955 -0.3488  1.1924
 6823TIP3   OH241883   0.246   6.986   0.120 -0.6524  0.4547  0.9904
 6823TIP3    H141884   0.160   7.014   0.091 -1.4779 -1.1024  1.8358
 6823TIP3    H241885   0.265   6.908   0.067 -0.3576  0.0256  1.7066
 6824TIP3   OH241886   1.200   5.924  11.432 -0.0742 -0.5838 -0.0807
 6824TIP3    H141887   1.182   5.874  11.511  2.7523  0.1454  1.0583
 6824TIP3    H241888   1.156   6.008  11.446 -1.9252 -1.4343 -0.5377
 6825TIP3   OH241889   4.795   6.476  10.619  0.7052  0.2341  0.1432
 6825TIP3    H141890   4.854   6.424  10.564 -0.8288 -2.6185  1.1016
 6825TIP3    H241891   4.834   6.471  10.707 -1.2649 -2.2832  0.9319
 6826TIP3   OH241892   4.328   0.690  15.048 -0.0192  0.2717  0.6501
 6826TIP3    H141893   4.351   0.654  15.134 -1.3781 -2.3956 -0.0410
 6826TIP3    H241894   4.398   0.659  14.990 -0.3093  0.1269  0.3738
 6827TIP3   OH241895   3.695   5.069  15.798  0.6371  0.3023  0.2109
 6827TIP3    H141896   3.626   5.136  15.797 -0.0852 -0.3805  1.4177
 6827TIP3    H241897   3.766   5.109  15.847  1.0561  0.9701 -0.9354
 6828TIP3   OH241898   0.794   3.312  13.988  0.1587 -0.3916  0.0430
 6828TIP3    H141899   0.703   3.289  13.966  0.3804 -0.1260 -1.1459
 6828TIP3    H241900   0.799   3.406  13.973  0.3545 -0.2309  1.0927
 6829TIP3   OH241901   6.916   2.485  14.731  0.1663  0.0546 -0.1347
 6829TIP3    H141902   6.902   2.563  14.676 -2.5266 -0.6794 -0.5492
 6829TIP3    H241903   6.907   2.411  14.671  2.5081 -0.6290  0.3000
 6830TIP3   OH241904   5.324   1.567  14.235 -0.0100 -0.9337 -0.2064
 6830TIP3    H141905   5.317   1.575  14.331  1.4176 -0.8265 -0.1074
 6830TIP3    H241906   5.255   1.505  14.212 -0.5926 -0.7077  0.8571
 6831TIP3   OH241907   4.952   1.990   1.390 -0.0173  1.4349 -0.2704
 6831TIP3    H141908   4.975   1.907   1.348 -0.6382  0.2254  1.7103
 6831TIP3    H241909   5.035   2.038   1.396  0.9741 -0.4096  1.4666
 6832TIP3   OH241910   3.512   2.908   0.650 -0.3037  0.1252  0.0294
 6832TIP3    H141911   3.593   2.959   0.650  0.1133 -0.5356  0.0579
 6832TIP3    H241912   3.443   2.973   0.660  0.2110  0.7107 -0.1925
 6833TIP3   OH241913   5.564   4.282  15.256  0.3880  0.4246  0.3691
 6833TIP3    H141914   5.516   4.363  15.270  1.2570  0.9987  0.0687
 6833TIP3    H241915   5.525   4.220  15.317 -0.3267  1.0503  0.5502
 6834TIP3   OH241916   5.702   0.195   3.499 -0.1231  0.7216 -0.4935
 6834TIP3    H141917   5.623   0.143   3.483  1.5801 -1.6400 -1.5736
 6834TIP3    H241918   5.701   0.262   3.431  0.1906 -1.0183 -2.2714
 6835TIP3   OH241919   1.105   0.839  14.822 -0.0893 -0.1104 -0.1227
 6835TIP3    H141920   1.037   0.905  14.812 -0.0778 -0.1627 -0.5791
 6835TIP3    H241921   1.075   0.783  14.893 -0.5837 -0.2115 -0.4140
 6836TIP3   OH241922   5.367   6.603   1.716  0.1625 -0.4322 -0.2157
 6836TIP3    H141923   5.342   6.689   1.749 -1.1947 -0.8861 -0.0168
 6836TIP3    H241924   5.441   6.619   1.658  0.6710  0.7259  0.7378
 6837TIP3   OH241925   0.440   3.819  12.732  0.0255  0.4653 -0.5415
 6837TIP3    H141926   0.435   3.836  12.638 -0.5516  0.2041 -0.5585
 6837TIP3    H241927   0.360   3.858  12.768 -0.3636 -0.5134 -0.3266
 6838TIP3   OH241928   3.236   0.028  15.945  0.7841 -0.6410 -0.4004
 6838TIP3    H141929   3.182   0.029  15.866 -0.8184  1.1657  0.6823
 6838TIP3    H241930   3.324   0.048  15.915  0.5530 -1.8812 -1.9644
 6839TIP3   OH241931   2.667   5.933  15.825 -0.4690  0.2836 -0.1423
 6839TIP3    H141932   2.577   5.948  15.852  0.4006  0.6900  2.6946
 6839TIP3    H241933   2.700   6.019  15.800 -0.3750  0.4260  0.4595
 6840TIP3   OH241934   3.827   0.177   0.741  0.6567  0.6614 -0.2118
 6840TIP3    H141935   3.787   0.141   0.663 -1.1641  1.0515  0.5290
 6840TIP3    H241936   3.793   0.125   0.813  2.0552  0.5241  0.3810
 6841TIP3   OH241937   2.580   1.103  13.005  0.3691 -0.0813 -0.2546
 6841TIP3    H141938   2.653   1.128  12.950  1.6078 -1.4273  0.7433
 6841TIP3    H241939   2.554   1.017  12.974 -1.2835  0.6683 -1.0612
 6842TIP3   OH241940   6.237   4.463  13.266 -0.1071  0.1521  0.1573
 6842TIP3    H141941   6.143   4.469  13.248 -0.4308 -3.0105  0.4361
 6842TIP3    H241942   6.274   4.428  13.185  0.6254  0.0566  0.5314
 6843TIP3   OH241943   3.043   7.060  15.828 -0.0453 -0.4152  0.1755
 6843TIP3    H141944   3.050   7.065  15.924 -0.4233  0.5917  0.1530
 6843TIP3    H241945   2.963   7.107  15.808 -0.1318 -0.9070 -0.6189
 6844TIP3   OH241946   6.743   5.522  14.269 -0.1049  0.0538  0.0469
 6844TIP3    H141947   6.702   5.505  14.184 -0.8339 -0.5648  0.5103
 6844TIP3    H241948   6.835   5.499  14.256  0.4414  2.8754 -1.4252
 6845TIP3   OH241949   1.213   2.507  14.350  0.2095 -0.3041  0.4769
 6845TIP3    H141950   1.266   2.503  14.431  0.8864 -2.3502 -0.0206
 6845TIP3    H241951   1.216   2.417  14.316  0.4046  0.6581 -2.1314
 6846TIP3   OH241952   1.376   1.112  12.630 -0.3816  0.1395  0.2020
 6846TIP3    H141953   1.409   1.133  12.718 -0.6692  0.0963  0.3204
 6846TIP3    H241954   1.378   1.195  12.583  0.6253 -0.0099 -0.0317
 6847TIP3   OH241955   3.797   1.076  12.794 -0.0057  0.3026 -0.5944
 6847TIP3    H141956   3.858   1.121  12.853  0.7185 -0.3239 -0.8660
 6847TIP3    H241957   3.852   1.043  12.723 -0.4870 -1.3038 -0.2294
 6848TIP3   OH241958   3.737   1.070  15.542  0.3437  0.1433  0.0033
 6848TIP3    H141959   3.769   1.160  15.541 -0.6370  0.6030  3.4022
 6848TIP3    H241960   3.677   1.064  15.468  0.6877  2.1724 -0.4624
 6849TIP3   OH241961   2.592   0.981   0.838  0.1076 -0.4459  0.1530
 6849TIP3    H141962   2.584   0.889   0.814  1.5141 -0.2469 -1.1258
 6849TIP3    H241963   2.542   1.028   0.771  0.7201 -0.1702 -0.1140
 6850TIP3   OH241964   4.934   2.748  15.774 -1.0927 -0.0381 -0.0108
 6850TIP3    H141965   4.995   2.760  15.847 -1.0140 -1.2613  0.1322
 6850TIP3    H241966   4.944   2.827  15.722  1.3411 -0.6242 -0.5078
 6851TIP3   OH241967   5.629   2.914  12.901 -0.0943  0.5485  0.3494
 6851TIP3    H141968   5.698   2.881  12.844  0.1189 -1.3806  1.6501
 6851TIP3    H241969   5.552   2.922  12.845  0.3804 -0.3038 -0.4329
 6852TIP3   OH241970   6.213   2.945   0.080 -0.2597  0.0174 -0.5410
 6852TIP3    H141971   6.291   3.000   0.079 -0.1618 -0.1174 -0.4199
 6852TIP3    H241972   6.240   2.865   0.034  0.1425 -0.6589  0.8396
 6853TIP3   OH241973   5.227   1.158  12.098 -0.2371 -0.1790  0.4464
 6853TIP3    H141974   5.208   1.223  12.030 -1.7850 -0.1989  0.8409
 6853TIP3    H241975   5.320   1.141  12.089  0.0358  1.5160 -0.1868
 6854TIP3   OH241976   1.615   2.512  13.565  0.0706 -0.4386  0.0734
 6854TIP3    H141977   1.610   2.438  13.505 -0.3835  0.7149 -1.3456
 6854TIP3    H241978   1.563   2.486  13.640 -3.1170 -0.1791 -1.9449
 6855TIP3   OH241979   5.441   3.327  15.082  0.3482  0.0710  0.5361
 6855TIP3    H141980   5.414   3.287  15.164 -1.5078  1.9564  0.8855
 6855TIP3    H241981   5.536   3.317  15.081 -0.0353 -4.5073  0.4528
 6856TIP3   OH241982   6.019   2.374   1.647  0.3244 -0.1417  0.2246
 6856TIP3    H141983   6.022   2.313   1.720  1.9577  1.3942  1.4832
 6856TIP3    H241984   6.093   2.350   1.591 -0.2923 -0.6400 -0.3921
 6857TIP3   OH241985   4.742   0.464  14.391  0.0556  0.2926  0.4185
 6857TIP3    H141986   4.766   0.552  14.421 -2.2410  1.3385 -0.6799
 6857TIP3    H241987   4.720   0.416  14.471  2.9304  0.1640  1.1819
 6858TIP3   OH241988   2.577   5.475  13.707 -0.0509  0.6693  0.6684
 6858TIP3    H141989   2.493   5.431  13.721 -0.9873  0.9301 -3.4983
 6858TIP3    H241990   2.566   5.561  13.747 -1.4346  0.3541  1.0011
 6859TIP3   OH241991   5.295   6.167  13.961  0.1524  0.0010 -0.4263
 6859TIP3    H141992   5.257   6.214  14.036  0.9493  0.1553 -0.1142
 6859TIP3    H241993   5.329   6.237  13.905  0.6796 -0.1628 -0.3163
 6860TIP3   OH241994   3.534   0.393  13.512  0.3531  0.1634  0.3295
 6860TIP3    H141995   3.448   0.350  13.517  0.2153  0.3533 -0.3959
 6860TIP3    H241996   3.524   0.460  13.445  0.8832  0.6223  0.7017
 6861TIP3   OH241997   4.535   3.247   2.645 -0.5926  0.5410 -0.6788
 6861TIP3    H141998   4.502   3.247   2.556 -0.6310  1.0616 -0.6662
 6861TIP3    H241999   4.555   3.155   2.663 -0.7806  0.4052 -1.1465
 6862TIP3   OH242000   0.327   5.438  13.818 -0.6488  0.5241 -0.0368
 6862TIP3    H142001   0.352   5.385  13.743 -1.9103  1.7787 -1.3719
 6862TIP3    H242002   0.396   5.503  13.826 -0.1588 -0.0353  0.3263
 6863TIP3   OH242003   3.000   5.562  14.907  0.1940  0.3250  0.6559
 6863TIP3    H142004   2.946   5.558  14.828  0.6284  1.2597  0.3033
 6863TIP3    H242005   2.988   5.651  14.940  0.7638  0.2360  1.1144
 6864TIP3   OH242006   2.265   2.050   0.038  0.6396  0.0424  0.1188
 6864TIP3    H142007   2.250   1.957   0.051  2.6321 -0.0322  2.3027
 6864TIP3    H242008   2.312   2.056  -0.045 -1.0256 -0.7299 -0.8881
 6865TIP3   OH242009   2.768   6.455  12.234 -0.5375  0.0880  0.3026
 6865TIP3    H142010   2.830   6.385  12.253 -1.8280 -0.8830  1.0932
 6865TIP3    H242011   2.822   6.531  12.213  0.9103 -0.4827  1.8725
 6866TIP3   OH242012   6.542   1.620   1.252  0.8400  0.8053 -0.7449
 6866TIP3    H142013   6.539   1.708   1.288  1.2677 -0.5916  2.8582
 6866TIP3    H242014   6.620   1.580   1.290 -0.2424 -1.6792 -0.9775
 6867TIP3   OH242015   1.680   0.979  14.688 -0.1568  0.7539  1.0545
 6867TIP3    H142016   1.764   1.020  14.671  0.3347 -0.7033 -0.1408
 6867TIP3    H242017   1.617   1.031  14.637 -0.0831  2.2055  2.4250
 6868TIP3   OH242018   3.682   2.476  15.841 -0.5059 -0.0077 -0.3808
 6868TIP3    H142019   3.694   2.571  15.833  1.2989 -0.3405 -1.6628
 6868TIP3    H242020   3.662   2.463  15.934  0.7900  1.4596  0.1211
 6869TIP3   OH242021   6.350   3.698  13.881  0.5739  0.4554  0.7419
 6869TIP3    H142022   6.355   3.621  13.938  2.6516  0.8838  1.1654
 6869TIP3    H242023   6.266   3.739  13.904 -0.8217 -1.9394  0.1324
 6870TIP3   OH242024   6.255   0.306  11.885  0.1207  1.1697 -0.3410
 6870TIP3    H142025   6.215   0.385  11.920  0.8172  1.0462  0.7660
 6870TIP3    H242026   6.312   0.337  11.815  0.5692  1.6743  0.2455
 6871TIP3   OH242027   6.143   6.533  10.828  0.2881 -0.7023 -0.0180
 6871TIP3    H142028   6.172   6.573  10.746 -1.3864  0.0437 -0.2645
 6871TIP3    H242029   6.073   6.591  10.860 -0.8978 -2.4298  0.5686
 6872TIP3   OH242030   0.065   0.831  12.983  0.4686  0.3907 -0.1739
 6872TIP3    H142031   0.108   0.826  13.068 -1.3357 -0.5968  0.7036
 6872TIP3    H242032   0.081   0.921  12.954  1.2620  0.6820  1.1199
 6873TIP3   OH242033   3.648   1.790  14.844  0.1203  0.1616 -0.0367
 6873TIP3    H142034   3.575   1.792  14.782  0.2485  2.0092 -0.1819
 6873TIP3    H242035   3.671   1.883  14.855  1.8404 -0.3436  0.7094
 6874TIP3   OH242036   6.576   2.158  10.767  0.3155  0.1187  0.0593
 6874TIP3    H142037   6.551   2.179  10.858 -1.1942  1.2627 -0.5965
 6874TIP3    H242038   6.655   2.210  10.752  1.5030 -1.3073  1.2256
 6875TIP3   OH242039   5.307   1.986  15.398  0.2265  0.4316 -0.2224
 6875TIP3    H142040   5.307   1.987  15.494  0.8254  1.0485 -0.2265
 6875TIP3    H242041   5.223   2.027  15.374 -1.3730 -2.5256  0.0387
 6876TIP3   OH242042   2.950   1.101  11.250  0.2980  0.2919  0.2872
 6876TIP3    H142043   3.019   1.060  11.303 -0.2555 -1.6211 -0.4587
 6876TIP3    H242044   2.981   1.093  11.160  0.1885  1.5767  0.1158
 6877TIP3   OH242045   3.987   0.739  14.369 -0.1124 -0.3287 -0.1254
 6877TIP3    H142046   3.963   0.660  14.320 -1.4424  0.5079 -0.8619
 6877TIP3    H242047   4.053   0.782  14.314  1.1531 -1.2718  0.6230
 6878TIP3   OH242048   6.823   1.598  14.100  0.2386 -0.4652  0.1967
 6878TIP3    H142049   6.792   1.509  14.119 -0.1684 -0.7109 -1.4892
 6878TIP3    H242050   6.780   1.620  14.017  3.6562 -0.3341 -1.6153
 6879TIP3   OH242051   3.551   2.536  14.852 -0.5996  0.0857  0.5732
 6879TIP3    H142052   3.611   2.539  14.927  2.1746 -1.6755 -1.4900
 6879TIP3    H242053   3.589   2.598  14.789 -2.3798  0.8532  0.2315
 6880TIP3   OH242054   4.801   0.894  15.260 -0.4927 -0.3061  0.1611
 6880TIP3    H142055   4.740   0.893  15.186 -0.1886 -0.2968 -0.0908
 6880TIP3    H242056   4.807   0.802  15.287  1.0161 -0.6342 -1.1784
 6881TIP3   OH242057   1.203   1.354   0.244  0.2248 -0.5070  0.3224
 6881TIP3    H142058   1.220   1.434   0.293 -0.1649  1.0247 -1.9836
 6881TIP3    H242059   1.279   1.298   0.262  2.3188  1.8346 -0.8977
 6882TIP3   OH242060   4.168   2.792  14.819 -0.3192  0.0644 -0.2738
 6882TIP3    H142061   4.150   2.763  14.909  0.3753 -2.3074 -0.8562
 6882TIP3    H242062   4.114   2.735  14.764 -1.8347  2.4513 -1.3188
 6883TIP3   OH242063   4.167   5.854  14.369 -0.2561  0.3624  0.1095
 6883TIP3    H142064   4.099   5.901  14.418 -0.4689  0.1462  0.0189
 6883TIP3    H242065   4.151   5.876  14.278  0.5190  1.2614  0.1849
 6884TIP3   OH242066   4.069   2.752  14.135 -0.1078  0.0069  0.9331
 6884TIP3    H142067   4.047   2.736  14.227 -2.0519 -0.0700  0.4648
 6884TIP3    H242068   4.149   2.701  14.120 -0.6546 -1.2295  2.1591
 6885TIP3   OH242069   4.258   6.318  15.740  0.4170  0.3985 -0.2476
 6885TIP3    H142070   4.252   6.223  15.729 -3.3242  0.5505 -0.1735
 6885TIP3    H242071   4.312   6.330  15.818  0.9628 -1.6411 -0.2838
 6886TIP3   OH242072   5.360   0.291  13.153 -0.6683  0.1803 -0.5037
 6886TIP3    H142073   5.296   0.275  13.083 -0.2654  1.6457 -1.2205
 6886TIP3    H242074   5.402   0.373  13.129  1.0308 -0.4207  0.3259
 6887TIP3   OH242075   5.336   4.148   1.375  0.4736  0.5222  0.3763
 6887TIP3    H142076   5.253   4.156   1.423 -0.7509 -4.8900 -0.4998
 6887TIP3    H242077   5.390   4.091   1.429  1.6462 -0.1770 -1.4869
 6888TIP3   OH242078   2.472   7.048  15.721  0.3889 -0.6851 -0.5808
 6888TIP3    H142079   2.466   6.995  15.800  0.2495  0.0645 -0.0831
 6888TIP3    H242080   2.428   7.130  15.743  3.9085  1.1719 -0.0258
 6889TIP3   OH242081   3.847   0.665  13.394 -0.1403 -0.0625 -0.2695
 6889TIP3    H142082   3.888   0.583  13.367 -0.8174 -1.4329  2.5907
 6889TIP3    H242083   3.888   0.684  13.479  0.2236  2.7479 -1.0399
 6890TIP3   OH242084   5.911   6.611  14.680  0.2326  0.0443  0.2076
 6890TIP3    H142085   5.906   6.529  14.630  2.3066 -0.8174  1.3687
 6890TIP3    H242086   5.932   6.678  14.615  0.1712 -0.6177 -0.4986
 6891TIP3   OH242087   0.947   7.137  11.695  0.0714 -0.0529 -0.2393
 6891TIP3    H142088   1.018   7.136  11.760  0.6730 -1.9687 -0.8801
 6891TIP3    H242089   0.969   7.209  11.637  1.1203 -0.1643 -0.0021
 6892TIP3   OH242090   5.424   0.716   0.378  0.5629  0.2498 -0.0620
 6892TIP3    H142091   5.409   0.622   0.369  3.2286 -0.1654 -0.7557
 6892TIP3    H242092   5.433   0.731   0.472  0.2779 -0.2070  0.0358
 6893TIP3   OH242093   3.978   5.188  13.356 -0.3784  0.2519  0.1975
 6893TIP3    H142094   3.983   5.233  13.440 -0.9386  0.1872  0.2681
 6893TIP3    H242095   4.050   5.224  13.305  0.1933  0.0171  0.8363
 6894TIP3   OH242096   5.786   0.832  12.104  0.0661  0.0590  0.3080
 6894TIP3    H142097   5.857   0.890  12.079  2.2340 -2.6824 -0.1976
 6894TIP3    H242098   5.711   0.860  12.051  1.2242  1.9707 -0.3449
 6895TIP3   OH242099   4.151   6.931   2.386  0.2227 -0.8383  0.0126
 6895TIP3    H142100   4.106   6.924   2.470  0.2852  0.1358  0.1259
 6895TIP3    H242101   4.082   6.952   2.323  0.3638 -0.3140  0.0283
 6896TIP3   OH242102   1.558   1.911  13.345  0.2398  0.2770  0.4030
 6896TIP3    H142103   1.651   1.923  13.325  0.8529 -0.7233  2.5605
 6896TIP3    H242104   1.519   1.998  13.333  1.2983  0.5516 -1.1840
 6897TIP3   OH242105   6.562   0.601   0.913  0.1602 -0.0717  1.1727
 6897TIP3    H142106   6.637   0.567   0.963  0.8104 -1.1745 -0.5102
 6897TIP3    H242107   6.513   0.523   0.887 -0.6971  0.5496  0.9132
 6898TIP3   OH242108   6.264   0.215  11.258 -0.0014  0.3376 -0.2919
 6898TIP3    H142109   6.324   0.263  11.201  1.2969 -0.0286  0.7298
 6898TIP3    H242110   6.257   0.129  11.218  0.0708  0.4177 -0.4787
 6899TIP3   OH242111   3.865   7.105  12.718 -0.1921  0.2552  0.2919
 6899TIP3    H142112   3.825   7.191  12.722 -1.1104 -0.2242  1.5933
 6899TIP3    H242113   3.900   7.099  12.629 -0.2378  1.9044  0.1501
 6900TIP3   OH242114   1.791   1.516   0.870  0.8505 -0.4330 -0.0486
 6900TIP3    H142115   1.859   1.486   0.929  0.1705 -1.3543  0.2822
 6900TIP3    H242116   1.758   1.437   0.828  0.1105  0.0186 -0.3455
 6901TIP3   OH242117   4.782   1.368  12.789  0.7150  0.2732  0.0346
 6901TIP3    H142118   4.800   1.397  12.700  0.6999  2.5819  0.7372
 6901TIP3    H242119   4.696   1.405  12.809 -0.1013 -1.7324  0.4070
 6902TIP3   OH242120   4.718   3.215  14.575  0.4870 -0.0449 -0.0100
 6902TIP3    H142121   4.764   3.214  14.659 -0.8890 -1.0864  0.7468
 6902TIP3    H242122   4.686   3.126  14.564 -0.8838  0.5329 -0.7841
 6903TIP3   OH242123   6.935   2.857   0.849 -0.1709 -0.0022 -0.0970
 6903TIP3    H142124   6.911   2.797   0.921  3.0508  0.3139  1.2899
 6903TIP3    H242125   6.868   2.926   0.853 -1.0908 -0.9340  1.4358
 6904TIP3   OH242126   6.793   2.629  12.325 -0.3387  0.5812  0.3363
 6904TIP3    H142127   6.799   2.710  12.376  3.4945  0.6066 -0.0316
 6904TIP3    H242128   6.800   2.657  12.234 -2.0376  0.0771  0.0343
 6905TIP3   OH242129   0.540   1.356  14.962 -1.0580  0.3079 -0.1313
 6905TIP3    H142130   0.546   1.415  14.887  0.8751  1.1670  0.6489
 6905TIP3    H242131   0.449   1.362  14.991 -1.1109  2.1975 -0.6369
 6906TIP3   OH242132   1.321   0.374  14.645 -0.1770 -0.3095 -0.3467
 6906TIP3    H142133   1.320   0.384  14.740 -2.0969 -1.0312 -0.2702
 6906TIP3    H242134   1.331   0.280  14.631  0.0518 -0.2104 -0.8562
 6907TIP3   OH242135   3.197   1.250  15.574 -0.3400 -0.3393 -0.3766
 6907TIP3    H142136   3.140   1.216  15.642 -0.4476 -0.7254 -0.6593
 6907TIP3    H242137   3.264   1.300  15.621  0.6507 -2.1107  0.1550
 6908TIP3   OH242138   1.278   6.706  13.893 -0.2627 -0.4262 -0.8303
 6908TIP3    H142139   1.199   6.723  13.842 -0.6410  0.5546  0.0697
 6908TIP3    H242140   1.335   6.781  13.876 -0.2522 -0.2593 -0.1086
 6909TIP3   OH242141   3.464   2.189  15.400 -0.2863  0.6930  0.0939
 6909TIP3    H142142   3.416   2.260  15.442  0.3716  0.9853  0.3632
 6909TIP3    H242143   3.407   2.113  15.407 -0.2102  0.7473  1.4757
 6910TIP3   OH242144   5.603   3.346  13.417 -0.5519 -0.2806 -0.3846
 6910TIP3    H142145   5.626   3.434  13.386 -0.0786 -0.3835 -0.3290
 6910TIP3    H242146   5.520   3.326  13.373 -0.7730  0.2818 -0.2294
 6911TIP3   OH242147   0.042   1.802  12.791  0.4052 -0.6289  0.0561
 6911TIP3    H142148  -0.051   1.817  12.807  1.0845 -1.5392  5.5619
 6911TIP3    H242149   0.082   1.889  12.799  0.4184 -0.7149  0.9614
 6912TIP3   OH242150   5.393   2.694  14.403  0.1630  0.6514  0.1679
 6912TIP3    H142151   5.314   2.647  14.379 -0.2000  1.0417  0.5960
 6912TIP3    H242152   5.463   2.647  14.358 -0.3187  0.3581 -0.2836
 6913TIP3   OH242153   4.196   1.799  13.663 -0.4352 -0.1241 -0.0250
 6913TIP3    H142154   4.269   1.743  13.687 -1.8988 -2.3246 -0.5576
 6913TIP3    H242155   4.223   1.841  13.581  0.2558 -0.8766 -0.1835
 6914TIP3   OH242156   3.927   5.438  14.957 -0.2645  0.0643  0.0836
 6914TIP3    H142157   3.875   5.362  14.932 -1.8982  0.7033  1.4372
 6914TIP3    H242158   4.001   5.401  15.005 -2.9854 -0.6010  4.0770
 6915TIP3   OH242159   3.224   3.167  10.461  1.0721 -0.1506  0.2903
 6915TIP3    H142160   3.171   3.095  10.495  2.2982 -1.0541  0.3055
 6915TIP3    H242161   3.162   3.220  10.410 -0.2056 -0.2594  1.6917
 6916TIP3   OH242162   5.182   5.690  13.457 -0.1123 -0.0787  0.1619
 6916TIP3    H142163   5.156   5.613  13.406  0.7294  0.7996 -1.6213
 6916TIP3    H242164   5.169   5.663  13.548 -2.2304 -1.4549 -0.5113
 6917TIP3   OH242165   0.368   0.424   0.020  0.7617 -0.4358 -0.0775
 6917TIP3    H142166   0.357   0.516  -0.003 -1.8398 -0.5021  0.8043
 6917TIP3    H242167   0.302   0.378  -0.031 -2.6041 -0.9991  4.4880
 6918TIP3   OH242168   0.353   0.605   2.810 -0.6303 -0.1491 -0.1608
 6918TIP3    H142169   0.319   0.691   2.837  0.4855  0.3851 -0.3916
 6918TIP3    H242170   0.310   0.587   2.727  1.4113  1.6519 -1.6709
 6919TIP3   OH242171   4.355   2.290  11.901 -0.0560 -0.5887  0.1620
 6919TIP3    H142172   4.383   2.361  11.959 -0.2246 -0.6820  0.3587
 6919TIP3    H242173   4.435   2.264  11.855  0.0686 -0.4829  0.3168
 6920TIP3   OH242174   5.874   7.077  14.586 -0.0461 -0.6908 -0.2480
 6920TIP3    H142175   5.919   7.162  14.592  0.4282 -0.8323 -1.6725
 6920TIP3    H242176   5.795   7.088  14.639 -0.2022  0.7710 -0.7689
 6921TIP3   OH242177   2.860   0.209  13.802  0.1846  0.0111  0.3970
 6921TIP3    H142178   2.835   0.186  13.891  0.0790  0.6951  0.5451
 6921TIP3    H242179   2.787   0.262  13.770 -0.0301 -0.6744 -0.2873
 6922TIP3   OH242180   4.790   0.506  14.075  0.0295  0.0402 -0.7280
 6922TIP3    H142181   4.755   0.499  14.164 -0.7870 -1.0577 -1.1249
 6922TIP3    H242182   4.717   0.541  14.023  0.1946 -0.2239 -1.1465
 6923TIP3   OH242183   3.635   1.768  13.725  0.0638  0.2666 -0.1948
 6923TIP3    H142184   3.553   1.744  13.682  0.1297  0.2053 -0.2856
 6923TIP3    H242185   3.676   1.831  13.665  0.1638  0.1686 -0.2312
 6924TIP3   OH242186   4.631   0.956  11.871  0.0887 -0.9145  0.5978
 6924TIP3    H142187   4.667   0.881  11.918  3.0966  0.1136  0.0775
 6924TIP3    H242188   4.695   0.975  11.802 -1.2862  1.2588 -0.1674
 6925TIP3   OH242189   6.201   4.459  11.972 -0.2474  0.1591  0.3067
 6925TIP3    H142190   6.180   4.460  11.878  0.1039 -0.3528  0.2214
 6925TIP3    H242191   6.126   4.503  12.013  0.7621  2.6917 -0.4437
 6926TIP3   OH242192   3.035   7.121  13.550 -0.3797 -0.2486 -0.1123
 6926TIP3    H142193   2.970   7.161  13.608 -1.0089  1.8588 -2.2176
 6926TIP3    H242194   3.002   7.032  13.536 -2.7141  0.7100 -0.9497
 6927TIP3   OH242195   6.327   0.739  13.590 -0.6590 -0.0683 -0.2454
 6927TIP3    H142196   6.398   0.692  13.634 -0.6088 -0.7200 -1.0124
 6927TIP3    H242197   6.247   0.693  13.617 -0.6524 -0.2889 -0.5917
 6928TIP3   OH242198   0.441   0.840   0.329  0.1174 -0.3902 -0.4187
 6928TIP3    H142199   0.439   0.746   0.310  2.1326 -0.5203 -0.0553
 6928TIP3    H242200   0.392   0.850   0.411  2.7577 -1.5792  1.3479
 6929TIP3   OH242201   0.247   0.664  14.760 -0.3684 -0.0192 -0.2294
 6929TIP3    H142202   0.213   0.734  14.816  1.1431 -0.0148  0.7005
 6929TIP3    H242203   0.224   0.691  14.671  0.6175  1.8847  0.0808
 6930TIP3   OH242204   0.586   3.064  15.154 -0.6773 -0.3801  0.0683
 6930TIP3    H142205   0.551   3.152  15.170  0.3438 -0.0583  0.5473
 6930TIP3    H242206   0.597   3.027  15.241  2.4603  0.4231  0.0518
 6931TIP3   OH242207   6.437   1.670  14.181  0.3189  0.2965  0.0679
 6931TIP3    H142208   6.436   1.590  14.234  2.7381 -0.4479 -0.9535
 6931TIP3    H242209   6.450   1.740  14.246 -0.7299 -0.2248  0.8579
 6932TIP3   OH242210   4.894   4.966  14.053 -0.0918  0.5903  0.0846
 6932TIP3    H142211   4.863   5.055  14.071 -0.0657  0.3816  1.1990
 6932TIP3    H242212   4.935   4.938  14.135 -1.0557 -0.8624  0.0797
 6933TIP3   OH242213   3.119   2.576  15.113  0.0906  0.4197 -0.0009
 6933TIP3    H142214   3.174   2.514  15.161 -1.1260  0.5683  1.6533
 6933TIP3    H242215   3.166   2.660  15.122  0.8183  0.0930 -0.6868
 6934TIP3   OH242216   1.900   7.164  12.660 -0.5488 -0.1438  0.5603
 6934TIP3    H142217   1.822   7.161  12.606 -1.5196  0.9546  1.8848
 6934TIP3    H242218   1.871   7.135  12.747  0.8070 -1.0655  0.7459
 6935TIP3   OH242219   3.299   0.315   1.251 -0.0436  0.1609  0.2311
 6935TIP3    H142220   3.334   0.336   1.165  2.4816  0.7887  1.3959
 6935TIP3    H242221   3.332   0.227   1.270 -2.0432 -0.7224 -0.1456
 6936TIP3   OH242222   4.972   3.246   0.574  0.1684 -0.1396  0.0840
 6936TIP3    H142223   5.032   3.256   0.648  1.0161  1.6265 -0.7839
 6936TIP3    H242224   4.927   3.331   0.568  0.5781 -0.0277 -1.7837
 6937TIP3   OH242225   7.287   1.047  14.629  0.2221  0.4989 -0.1283
 6937TIP3    H142226   7.228   1.120  14.610  0.0551  0.5653  0.6237
 6937TIP3    H242227   7.237   0.991  14.688  1.2370  0.9931  1.2135
 6938TIP3   OH242228   2.074   2.365  12.890 -0.4779  0.3989 -0.2984
 6938TIP3    H142229   2.021   2.429  12.842 -0.1324  1.1985  0.3828
 6938TIP3    H242230   2.162   2.375  12.855 -0.7792 -0.9903 -1.4888
 6939TIP3   OH242231   0.184   6.323  14.093  0.1541  0.3088 -0.1009
 6939TIP3    H142232   0.237   6.268  14.036 -0.5723 -1.2607  0.6925
 6939TIP3    H242233   0.094   6.308  14.064 -0.2206 -0.4931  1.4084
 6940TIP3   OH242234   3.590   2.964   3.040 -0.3287  0.4372 -0.3050
 6940TIP3    H142235   3.670   2.920   3.009 -0.9646 -0.7373 -0.3187
 6940TIP3    H242236   3.614   2.998   3.126  0.0223 -0.4221 -0.0549
 6941TIP3   OH242237   6.388   4.778   0.091  0.4540  0.0461  0.2722
 6941TIP3    H142238   6.448   4.705   0.074 -0.6403 -0.9682  0.7034
 6941TIP3    H242239   6.394   4.793   0.185 -0.9592 -0.9364  0.5240
 6942TIP3   OH242240   5.808   5.443  15.410  0.2697  0.1586  0.1968
 6942TIP3    H142241   5.811   5.410  15.500  1.6245  0.5621  0.3256
 6942TIP3    H242242   5.718   5.430  15.382 -0.0061 -0.5871  1.3860
 6943TIP3   OH242243   1.504   2.230  14.844  0.0650  0.2168 -0.4129
 6943TIP3    H142244   1.565   2.298  14.815  1.2275 -1.0941 -1.1417
 6943TIP3    H242245   1.533   2.151  14.798 -0.6565 -0.9905  1.1497
 6944TIP3   OH242246   4.601   0.340   2.078 -0.4300  0.0095  0.1519
 6944TIP3    H142247   4.642   0.425   2.063 -0.2195 -0.1967 -0.4281
 6944TIP3    H242248   4.653   0.300   2.147 -0.4880  0.3209  0.3768
 6945TIP3   OH242249   0.362   1.668   0.755 -0.5547  0.3420  0.8267
 6945TIP3    H142250   0.353   1.573   0.764 -0.5247  0.3751  1.2193
 6945TIP3    H242251   0.427   1.692   0.821  0.4741  0.4576 -0.1955
 6946TIP3   OH242252   4.486   1.555  13.340  0.1588  0.6363  0.0955
 6946TIP3    H142253   4.422   1.500  13.385 -0.1065 -0.5502 -1.6559
 6946TIP3    H242254   4.566   1.545  13.391  0.0305 -1.1676 -0.0091
 6947TIP3   OH242255   4.385   2.935  15.385  0.1813  0.2460 -0.2311
 6947TIP3    H142256   4.472   2.908  15.416  0.4046  0.5077 -0.6154
 6947TIP3    H242257   4.336   2.953  15.465 -0.1017 -1.6459  0.0348
 6948TIP3   OH242258   5.177   3.784  15.719 -0.9715 -0.2219 -0.2521
 6948TIP3    H142259   5.147   3.695  15.737  2.6808 -1.6235 -0.7188
 6948TIP3    H242260   5.227   3.809  15.797  0.7350  0.1321 -1.4216
 6949TIP3   OH242261   5.487   2.803  13.928  0.5824  0.1903  0.0068
 6949TIP3    H142262   5.494   2.825  14.021  2.3812  0.4042 -0.1736
 6949TIP3    H242263   5.396   2.773  13.918  0.1648  0.8307  1.6795
 6950TIP3   OH242264   4.914   0.646   1.526  0.1039  0.0594 -0.4021
 6950TIP3    H142265   4.926   0.739   1.542 -0.8428 -0.3566  3.0641
 6950TIP3    H242266   4.887   0.640   1.434 -1.3976  3.3113 -0.2147
 6951TIP3   OH242267   3.834   6.791  15.986 -0.3518 -0.2506 -0.4942
 6951TIP3    H142268   3.907   6.769  15.928 -1.7424 -1.1718 -1.9342
 6951TIP3    H242269   3.761   6.737  15.955 -1.6012  0.4786  1.0604
 6952TIP3   OH242270   6.749   2.394  14.220 -0.1499  0.0121  0.1014
 6952TIP3    H142271   6.805   2.362  14.150  0.8474  3.5207 -0.8224
 6952TIP3    H242272   6.809   2.421  14.290 -0.7455  1.9064 -0.0750
 6953TIP3   OH242273   3.294   7.231  15.457 -0.7959 -0.4212 -0.1443
 6953TIP3    H142274   3.279   7.291  15.384  0.2885  1.0497  0.8304
 6953TIP3    H242275   3.325   7.150  15.416  3.2808  1.5386 -1.1068
 6954TIP3   OH242276   1.400   4.455   1.359  0.2160 -0.3281 -0.0793
 6954TIP3    H142277   1.338   4.406   1.413 -0.7452 -0.6877 -1.4787
 6954TIP3    H242278   1.352   4.474   1.278  2.0189 -0.8459 -1.2953
 6955TIP3   OH242279   3.305   0.086   2.725  0.1636 -0.3169 -0.7189
 6955TIP3    H142280   3.394   0.059   2.704  0.8490  1.5215 -0.2829
 6955TIP3    H242281   3.271   0.121   2.643 -0.3090 -1.4062 -0.9899
 6956TIP3   OH242282   6.689   0.788   0.777  0.0576  0.4973  0.2386
 6956TIP3    H142283   6.740   0.769   0.856  0.2905 -2.1351 -0.4817
 6956TIP3    H242284   6.624   0.718   0.774 -1.1323  1.6400 -0.9355
 6957TIP3   OH242285   1.024   7.055   0.184  0.2420 -0.1944 -0.2317
 6957TIP3    H142286   1.051   7.069   0.093 -0.8214 -0.4633 -0.6002
 6957TIP3    H242287   0.960   7.125   0.200  1.5494  0.7685  0.7960
 6958TIP3   OH242288   4.799   2.248  14.362 -0.2598 -0.1073  0.1925
 6958TIP3    H142289   4.882   2.221  14.402  0.2106 -1.4675 -1.6230
 6958TIP3    H242290   4.823   2.319  14.303 -0.6870  0.7498  1.0415
 6959TIP3   OH242291   3.139   1.163  10.992 -0.2901  0.0576  0.5076
 6959TIP3    H142292   3.199   1.120  10.931 -0.2633  0.4591  0.2460
 6959TIP3    H242293   3.194   1.228  11.037 -0.7709  1.2034 -0.5367
 6960TIP3   OH242294   0.670   0.662  13.759  0.0710 -0.4690  0.1674
 6960TIP3    H142295   0.617   0.584  13.745 -0.0017 -0.5885  1.1010
 6960TIP3    H242296   0.754   0.642  13.716 -0.8374 -0.0093 -1.9110
 6961TIP3   OH242297   5.058   7.065  11.748  0.3005  0.3440 -0.3326
 6961TIP3    H142298   5.051   7.154  11.785  1.0864  0.9531 -1.6409
 6961TIP3    H242299   5.128   7.024  11.798  0.1658  0.5782  0.0510
 6962TIP3   OH242300   3.860   0.465  14.294  0.0733  0.2261 -0.4343
 6962TIP3    H142301   3.783   0.506  14.334 -1.7165  0.4131 -3.8288
 6962TIP3    H242302   3.867   0.380  14.337 -0.7581  1.0708  1.3983
 6963TIP3   OH242303   4.789   0.630   0.112 -0.0453  0.1640 -0.2070
 6963TIP3    H142304   4.762   0.672   0.194  2.4395  1.2749  0.1108
 6963TIP3    H242305   4.801   0.703   0.051  1.5506 -0.3196 -0.4990
 6964TIP3   OH242306   0.781   1.206   0.110  0.2845  0.0840 -0.2098
 6964TIP3    H142307   0.731   1.287   0.122 -0.9072 -0.5278 -1.0216
 6964TIP3    H242308   0.872   1.236   0.099 -0.0312  1.2550  0.2908
 6965TIP3   OH242309   2.862   6.664   0.566  0.0161  0.1390  0.2106
 6965TIP3    H142310   2.861   6.600   0.637 -2.7607 -1.2863 -1.0115
 6965TIP3    H242311   2.935   6.636   0.510 -0.5000 -1.3634  0.2475
 6966TIP3   OH242312   6.921   6.844   1.493 -0.0133 -0.0984  0.5324
 6966TIP3    H142313   6.832   6.810   1.499 -0.0747  0.3590  2.8261
 6966TIP3    H242314   6.942   6.841   1.400 -1.7998 -1.7938  0.1494
 6967TIP3   OH242315   6.032   5.686  13.088  0.8500  0.1388  0.2375
 6967TIP3    H142316   6.025   5.753  13.156  0.1681  1.2241 -0.8729
 6967TIP3    H242317   6.005   5.605  13.131  3.6540  0.1818  2.1373
 6968TIP3   OH242318   5.326   1.885  15.045 -0.6193 -0.7717  0.0103
 6968TIP3    H142319   5.347   1.794  15.068 -1.4959 -1.4078 -1.6010
 6968TIP3    H242320   5.238   1.880  15.007 -0.8402  0.8230  0.3022
 6969TIP3   OH242321   4.136   0.289  13.503 -0.0069 -0.4394 -0.1685
 6969TIP3    H142322   4.049   0.256  13.483 -0.0593 -0.2602 -0.2444
 6969TIP3    H242323   4.183   0.214  13.539  0.2064 -0.8697 -1.3328
 6970TIP3   OH242324   6.199   1.709   1.376 -0.5778  0.6038 -0.4029
 6970TIP3    H142325   6.120   1.655   1.386 -0.4793  0.0633 -2.3132
 6970TIP3    H242326   6.270   1.651   1.402 -0.6183  0.3261 -0.8963
 6971TIP3   OH242327   6.294   6.583  13.029 -0.4184  0.3332 -0.0081
 6971TIP3    H142328   6.373   6.631  13.054  0.1096 -0.6648  0.2644
 6971TIP3    H242329   6.317   6.542  12.946 -0.6421  0.0209  0.0870
 6972TIP3   OH242330   0.355   1.705  10.369 -0.0563 -0.6408  0.3925
 6972TIP3    H142331   0.336   1.628  10.315 -1.8399 -0.7301  1.1089
 6972TIP3    H242332   0.366   1.776  10.306 -2.0211 -0.7672 -0.1167
 6973TIP3   OH242333   4.175   0.683  15.560  0.1657  0.5105  0.2389
 6973TIP3    H142334   4.139   0.658  15.475  1.5189  0.4660 -0.3377
 6973TIP3    H242335   4.120   0.638  15.624  0.5109 -1.2989 -0.6878
 6974TIP3   OH242336   6.046   5.518  12.735  0.8830  0.1021 -0.3125
 6974TIP3    H142337   6.037   5.613  12.729 -2.8064 -0.0754  1.0325
 6974TIP3    H242338   6.105   5.503  12.809  0.4328  1.3336  0.2960
 6975TIP3   OH242339   4.750   2.674  15.137  0.2335  0.0151 -0.3507
 6975TIP3    H142340   4.845   2.657  15.133  0.0605 -0.9126 -0.5277
 6975TIP3    H242341   4.710   2.597  15.097 -0.5184  1.4854 -2.5103
 6976TIP3   OH242342   6.897   1.686  15.744  0.1428  0.5748  0.5164
 6976TIP3    H142343   6.816   1.715  15.701 -0.0379  2.4902  2.0844
 6976TIP3    H242344   6.869   1.654  15.829  1.0497  1.2225  1.0617
 6977TIP3   OH242345   6.208   1.241   0.682 -0.3085  0.1884  0.5702
 6977TIP3    H142346   6.285   1.187   0.703  0.3157  0.3984 -1.0891
 6977TIP3    H242347   6.139   1.207   0.739  0.3935 -1.5865  0.4104
 6978TIP3   OH242348   1.117   4.586  13.612  0.2958  0.0731 -0.4658
 6978TIP3    H142349   1.044   4.530  13.637  0.4051  0.5626  0.9700
 6978TIP3    H242350   1.195   4.537  13.636  0.4397 -0.1455 -1.3506
 6979TIP3   OH242351   4.951   1.627  13.309 -0.3074 -0.0027 -0.0195
 6979TIP3    H142352   4.954   1.723  13.311 -1.7061  0.1143 -2.2235
 6979TIP3    H242353   4.861   1.607  13.285 -0.0304 -1.8894  0.4755
 6980TIP3   OH242354   4.705   7.047  15.420 -0.4187 -0.0183 -0.0868
 6980TIP3    H142355   4.706   7.142  15.420 -0.0706 -0.0224 -0.1056
 6980TIP3    H242356   4.671   7.023  15.507 -0.6791  0.1222 -0.1505
 6981TIP3   OH242357   4.435   5.776  15.263  0.2480  0.5424 -0.1626
 6981TIP3    H142358   4.491   5.800  15.190  2.1729 -2.6078  0.1920
 6981TIP3    H242359   4.352   5.750  15.223  0.2809  1.6406 -0.9653
 6982TIP3   OH242360   3.573   6.261  13.897  0.0554  0.0253  0.8912
 6982TIP3    H142361   3.586   6.254  13.992  0.0255  1.6306  1.0407
 6982TIP3    H242362   3.488   6.303  13.888 -0.7581 -1.7491  0.1014
 6983TIP3   OH242363   5.757   6.304  14.832  0.2878  0.0688 -0.3135
 6983TIP3    H142364   5.710   6.224  14.809  0.1359 -1.2294  4.0532
 6983TIP3    H242365   5.694   6.354  14.884  1.9834  0.7450  1.1332
 6984TIP3   OH242366   4.090   6.661  12.231  0.0487  0.5163 -0.5424
 6984TIP3    H142367   4.178   6.695  12.215  0.2413  0.4444  0.2945
 6984TIP3    H242368   4.068   6.693  12.319 -0.1839 -0.6309 -0.1736
 6985TIP3   OH242369   6.602   1.090  13.244 -0.4978 -0.0390  0.0658
 6985TIP3    H142370   6.561   1.064  13.327 -1.5115 -1.2462 -0.8066
 6985TIP3    H242371   6.599   1.186  13.246  0.3661 -0.0168  1.8570
 6986TIP3   OH242372   5.874   1.799  15.964  0.0714  0.2730  0.1069
 6986TIP3    H142373   5.913   1.750  16.036  0.4192  1.4639  0.7396
 6986TIP3    H242374   5.857   1.733  15.897  1.6722 -0.5353  0.4538
 6987TIP3   OH242375   2.859   2.845  14.313 -0.1729 -0.1187 -0.1231
 6987TIP3    H142376   2.921   2.903  14.356  0.1998 -0.0620 -0.7236
 6987TIP3    H242377   2.883   2.757  14.342 -0.0417 -0.0649 -0.0719
 6988TIP3   OH242378   5.344   0.467  14.915 -0.3291 -0.5154 -0.8824
 6988TIP3    H142379   5.428   0.432  14.947 -1.1482 -1.0842  0.7177
 6988TIP3    H242380   5.304   0.393  14.869 -1.1430 -1.1084  0.7209
 6989TIP3   OH242381   5.675   6.588  15.975  0.1413 -0.2466 -0.2244
 6989TIP3    H142382   5.589   6.622  16.001  1.0605  0.7180  1.6074
 6989TIP3    H242383   5.664   6.493  15.976 -0.6310 -0.1596  1.0542
 6990TIP3   OH242384   2.868   0.077  14.335  0.2640  0.0980  0.1257
 6990TIP3    H142385   2.916   0.144  14.383 -2.5505  2.7576 -0.5705
 6990TIP3    H242386   2.816   0.032  14.402  2.0782 -1.3558  0.5797
 6991TIP3   OH242387   4.783   1.769  15.737  0.2678  0.0198  0.5586
 6991TIP3    H142388   4.710   1.774  15.798  0.0939 -0.2120  0.3714
 6991TIP3    H242389   4.761   1.831  15.667  2.0052  2.7646  2.3415
 6992TIP3   OH242390   3.330   1.795   0.118  0.1448 -0.0191  0.3961
 6992TIP3    H142391   3.273   1.718   0.112  0.6069 -0.4789  1.6427
 6992TIP3    H242392   3.391   1.786   0.045  1.8647 -2.2482  2.0027
 6993TIP3   OH242393   3.250   5.943  13.339 -0.1198 -0.0629 -0.0851
 6993TIP3    H142394   3.198   6.023  13.326 -1.1338 -0.8207 -0.8600
 6993TIP3    H242395   3.241   5.896  13.256  0.6406 -0.8877  0.2947
 6994TIP3   OH242396   2.790   2.203   0.782  0.3262 -0.0874  0.0081
 6994TIP3    H142397   2.810   2.164   0.867 -0.1931  1.4538  0.8652
 6994TIP3    H242398   2.870   2.191   0.731  1.2314  0.4223  1.2766
 6995TIP3   OH242399   2.159   5.334  10.558 -0.4495 -0.0339 -0.3921
 6995TIP3    H142400   2.116   5.410  10.597  1.9892  0.8105  0.8093
 6995TIP3    H242401   2.180   5.361  10.468  0.8112  0.9239  0.1706
 6996TIP3   OH242402   6.819   2.526   0.228 -0.4207 -0.2401 -0.1557
 6996TIP3    H142403   6.764   2.474   0.170 -0.1279 -0.4696 -0.2312
 6996TIP3    H242404   6.850   2.464   0.294 -1.2716  0.1599  0.6200
 6997TIP3   OH242405   2.174   1.200   0.983 -0.1090 -0.2257 -0.0558
 6997TIP3    H142406   2.167   1.253   1.062 -1.3416  0.1648 -0.4144
 6997TIP3    H242407   2.094   1.147   0.982  0.0875 -0.5240 -0.8225
 6998TIP3   OH242408   1.885   7.019  15.675 -0.1491  0.3003  0.1577
 6998TIP3    H142409   1.980   7.014  15.663 -0.1362  0.7577  0.0363
 6998TIP3    H242410   1.849   7.009  15.586 -0.1793  0.8914  0.1019
 6999TIP3   OH242411   3.818   0.345  13.237 -0.1986 -0.1054  0.1437
 6999TIP3    H142412   3.800   0.413  13.173  0.9117 -0.9250 -1.0650
 6999TIP3    H242413   3.758   0.274  13.216 -0.6180  0.0743  0.7284
 7000TIP3   OH242414   4.494   1.129   0.658  0.0582 -0.3609  0.4734
 7000TIP3    H142415   4.584   1.100   0.644 -0.0259 -0.0619 -0.7315
 7000TIP3    H242416   4.440   1.062   0.615 -0.2469  0.1177  0.1100
 7001TIP3   OH242417   5.566   0.658  13.855  0.3376  0.0357  0.1094
 7001TIP3    H142418   5.474   0.641  13.837 -0.4030  0.3923  3.2602
 7001TIP3    H242419   5.590   0.593  13.921  2.1727  0.3631 -0.2054
 7002TIP3   OH242420   3.360   6.533  12.590  0.0976 -0.1202 -0.0740
 7002TIP3    H142421   3.365   6.614  12.642  0.2371 -1.8659  2.7767
 7002TIP3    H242422   3.451   6.512  12.570  0.1944 -0.4762  0.7060
 7003TIP3   OH242423   5.318   5.327  11.774 -0.1572 -0.1818  0.6402
 7003TIP3    H142424   5.349   5.345  11.686  1.1814 -0.2794  1.0810
 7003TIP3    H242425   5.234   5.284  11.762  0.3051 -0.7467 -0.6023
 7004TIP3   OH242426   3.470   5.861  13.546  0.6051  0.1218 -0.4257
 7004TIP3    H142427   3.412   5.902  13.482 -0.9704  0.8648  1.4274
 7004TIP3    H242428   3.523   5.933  13.579 -0.2316  0.1883  0.8069
 7005TIP3   OH242429   5.681   4.815  11.986 -0.0285 -0.7750  0.0597
 7005TIP3    H142430   5.685   4.888  11.924  0.2290  0.1773  1.1989
 7005TIP3    H242431   5.587   4.798  11.996 -0.1874  0.8961  1.5410
 7006TIP3   OH242432   2.243   0.951  11.183 -0.4713  0.3514 -0.1340
 7006TIP3    H142433   2.178   0.882  11.195 -0.1389  0.1557  0.5798
 7006TIP3    H242434   2.305   0.938  11.255  0.8025  0.0325 -1.2741
 7007TIP3   OH242435   3.328   3.066   2.834  0.3795 -0.6670 -0.4663
 7007TIP3    H142436   3.253   3.014   2.806 -0.9836  1.2190 -0.4067
 7007TIP3    H242437   3.317   3.076   2.929 -0.0067  0.6970 -0.6460
 7008TIP3   OH242438   6.648   5.482  14.023 -0.6052 -0.5092 -0.6319
 7008TIP3    H142439   6.696   5.463  13.943 -1.7927 -2.3799 -0.9031
 7008TIP3    H242440   6.557   5.462  14.003 -1.1922  0.7997  0.6059
 7009TIP3   OH242441   1.005   0.647   1.555 -0.6265 -0.3966 -0.5324
 7009TIP3    H142442   0.947   0.693   1.615  1.4518  1.9287 -0.2600
 7009TIP3    H242443   1.067   0.601   1.611  1.6020  2.1424 -0.8157
 7010TIP3   OH242444   5.204   7.092  15.766 -0.0274  0.1506  0.1083
 7010TIP3    H142445   5.112   7.097  15.792  0.3307 -1.0370  1.6824
 7010TIP3    H242446   5.237   7.182  15.776 -1.1815  0.7473 -1.2158
 7011TIP3   OH242447   3.371   3.204  15.014 -0.1676 -0.0099  0.5372
 7011TIP3    H142448   3.398   3.177  14.926 -0.5304 -0.8974  0.6895
 7011TIP3    H242449   3.452   3.235  15.055  0.1210 -0.1656  0.0922
 7012TIP3   OH242450   5.710   3.295  10.405  0.8071  0.2230  0.1308
 7012TIP3    H142451   5.781   3.357  10.389  1.6307 -0.8163 -0.3737
 7012TIP3    H242452   5.659   3.334  10.475  2.3422  0.6172  1.0579
 7013TIP3   OH242453   4.571   0.878  14.299 -0.1853 -0.1537  0.4033
 7013TIP3    H142454   4.588   0.956  14.352 -0.0985  1.2410 -1.6340
 7013TIP3    H242455   4.505   0.906  14.235  0.0834 -1.6661 -0.5561
 7014TIP3   OH242456   0.312   5.872   0.175 -0.0880 -0.0029  0.8958
 7014TIP3    H142457   0.223   5.848   0.149 -0.3305  1.2601  0.4915
 7014TIP3    H242458   0.300   5.949   0.231  0.6882 -0.4544  1.6870
 7015TIP3   OH242459   3.643   5.980  15.327  0.0884 -1.0018 -0.2661
 7015TIP3    H142460   3.573   6.040  15.302  1.1220  0.2255 -0.2492
 7015TIP3    H242461   3.720   6.010  15.279  0.5495 -2.5217 -0.5180
 7016TIP3   OH242462   2.302   4.321   2.441 -0.1134  0.1500  0.1361
 7016TIP3    H142463   2.388   4.286   2.416  0.5999  1.7422  0.3356
 7016TIP3    H242464   2.317   4.368   2.522 -1.2641  0.0950  0.3931
 7017TIP3   OH242465   1.168   0.521   0.016  0.3032 -0.2910 -0.0115
 7017TIP3    H142466   1.178   0.564  -0.070 -0.3851 -0.7670 -0.3286
 7017TIP3    H242467   1.234   0.451   0.015  1.7301  1.0037  0.6796
 7018TIP3   OH242468   0.818   4.918   1.930  0.0902  0.5446 -1.0336
 7018TIP3    H142469   0.757   4.869   1.986  0.6445  1.2516  0.2114
 7018TIP3    H242470   0.873   4.851   1.889  0.2455  0.0633 -0.0543
 7019TIP3   OH242471   7.181   2.950  15.948 -0.7560  0.2687  0.1701
 7019TIP3    H142472   7.102   3.003  15.953 -1.0986 -0.3637  1.6590
 7019TIP3    H242473   7.162   2.874  16.003  1.3995  0.7603  1.6374
 7020TIP3   OH242474   6.028   1.468  13.339  0.0499 -0.2801  0.6608
 7020TIP3    H142475   6.067   1.516  13.267  0.5230 -1.3144  0.2230
 7020TIP3    H242476   6.101   1.418  13.377 -0.2622 -0.0084  1.6332
 7021TIP3   OH242477   5.176   1.183  15.020  0.1102 -0.7821 -0.4355
 7021TIP3    H142478   5.271   1.171  15.019  0.3368  0.8971 -0.0315
 7021TIP3    H242479   5.144   1.115  15.080  1.2576 -0.0410  1.0483
 7022TIP3   OH242480   2.340   7.096  14.947  0.4748 -0.3160  0.5821
 7022TIP3    H142481   2.276   7.065  14.884  1.5775 -0.6484 -0.3999
 7022TIP3    H242482   2.304   7.178  14.981  0.8671  0.9846 -2.0475
 7023TIP3   OH242483   4.812   4.656  15.328 -0.0058  0.1742 -0.2226
 7023TIP3    H142484   4.835   4.734  15.277  2.1579  0.3293  0.9521
 7023TIP3    H242485   4.865   4.586  15.290  1.0197  0.1206  1.2979
 7024TIP3   OH242486   7.096   5.482  15.345 -0.0018  0.2896 -0.3638
 7024TIP3    H142487   7.184   5.444  15.338 -0.2427 -0.4020  0.2812
 7024TIP3    H242488   7.074   5.475  15.438  0.3740  3.0323 -0.0251
 7025TIP3   OH242489   4.597   6.262  14.656  0.0173 -0.3425  0.2839
 7025TIP3    H142490   4.514   6.290  14.619  0.7002  0.2387 -0.8133
 7025TIP3    H242491   4.638   6.210  14.587  1.5410  1.2207 -0.0236
 7026TIP3   OH242492   4.955   0.912   2.307  0.4622 -0.1925 -0.8887
 7026TIP3    H142493   4.862   0.932   2.322  0.3938 -0.6931 -0.6513
 7026TIP3    H242494   4.971   0.832   2.358  1.4655  0.8787  0.5187
 7027TIP3   OH242495   2.971   0.290  14.472  0.5823 -0.3785  0.0970
 7027TIP3    H142496   3.039   0.235  14.512  1.0684  0.6740  0.7268
 7027TIP3    H242497   2.974   0.372  14.521 -0.4573  0.0489 -0.5392
 7028TIP3   OH242498   1.885   0.865  13.216 -0.1332 -0.4473  0.0894
 7028TIP3    H142499   1.854   0.877  13.305  1.1836  0.6655  0.4235
 7028TIP3    H242500   1.971   0.824  13.226  1.5173  2.6977 -0.4759
 7029TIP3   OH242501   1.189   0.727  14.230  0.0809  0.3218 -0.1054
 7029TIP3    H142502   1.252   0.707  14.162  0.1822 -0.6957  0.2790
 7029TIP3    H242503   1.234   0.789  14.288 -0.0353  1.2496 -0.9853
 7030TIP3   OH242504   6.570   1.075  13.595  0.1458  0.0611 -0.4879
 7030TIP3    H142505   6.611   0.995  13.562  0.8149 -0.4919  1.5950
 7030TIP3    H242506   6.638   1.118  13.646 -0.0899  2.1834 -1.8897
 7031TIP3   OH242507   3.814   1.412  15.035 -0.1364  0.1319  0.1524
 7031TIP3    H142508   3.753   1.479  15.005 -0.7373 -0.4005  0.1818
 7031TIP3    H242509   3.764   1.330  15.032  0.1444 -0.0945  1.5278
 7032TIP3   OH242510   5.070   6.585  15.642 -0.3411 -0.6708  0.0966
 7032TIP3    H142511   5.055   6.593  15.736  0.2276  1.3388  0.0429
 7032TIP3    H242512   5.164   6.569  15.633 -0.4913 -1.4768 -0.1139
 7033TIP3   OH242513   6.329   1.680  13.723 -0.2520 -0.0085 -0.0666
 7033TIP3    H142514   6.358   1.739  13.793 -0.9451  1.5555 -1.0590
 7033TIP3    H242515   6.310   1.738  13.649 -0.0659 -1.5768 -1.3826
 7034TIP3   OH242516   0.482   1.249   1.145  0.1101  0.1299  0.4650
 7034TIP3    H142517   0.530   1.294   1.074 -0.1306 -0.5603 -0.1433
 7034TIP3    H242518   0.476   1.315   1.214  0.7346  0.6786  0.0169
 7035TIP3   OH242519   1.283   0.648  13.888 -0.2008 -0.3888 -0.2697
 7035TIP3    H142520   1.217   0.586  13.857 -0.6217 -0.0180 -0.1173
 7035TIP3    H242521   1.322   0.683  13.809  0.1230 -0.9331 -0.3576
 7036TIP3   OH242522   5.227   5.186  13.418 -0.3955 -0.6290  0.6072
 7036TIP3    H142523   5.261   5.231  13.495 -3.1069 -1.4594  2.3726
 7036TIP3    H242524   5.246   5.093  13.434  1.1822 -0.5968 -0.9041
 7037TIP3   OH242525   4.956   6.117  14.668  0.4002  0.1952 -0.2891
 7037TIP3    H142526   4.994   6.030  14.671  1.3683  0.5377 -2.0977
 7037TIP3    H242527   4.875   6.106  14.618  0.0560  0.1749  0.2665
 7038TIP3   OH242528   7.205   0.553  15.895  0.1047  0.4890 -0.1789
 7038TIP3    H142529   7.233   0.533  15.806  1.7163 -1.7131  0.7608
 7038TIP3    H242530   7.127   0.499  15.908  1.2439 -1.0217  0.5097
 7039TIP3   OH242531   7.220   0.037  13.691  0.1812 -0.0133  0.4657
 7039TIP3    H142532   7.158   0.085  13.746  0.0752  1.5034 -0.9533
 7039TIP3    H242533   7.248  -0.037  13.746 -0.5794  0.9702  2.2239
 7040TIP3   OH242534   4.773   4.023  13.108 -0.6100 -0.1086 -0.5072
 7040TIP3    H142535   4.718   3.961  13.059  0.6985 -2.4654  0.9173
 7040TIP3    H242536   4.749   4.008  13.199  1.9513 -0.7852  0.0979
 7041TIP3   OH242537   0.908   6.511  15.087 -0.0355  0.1690 -0.1679
 7041TIP3    H142538   0.978   6.481  15.145 -0.8899 -1.1323  0.2221
 7041TIP3    H242539   0.851   6.563  15.144  0.2478  0.6556 -0.3277
 7042TIP3   OH242540   2.229   5.947  15.010 -0.2024  0.3658  0.3968
 7042TIP3    H142541   2.171   5.912  14.943 -0.7337  0.1913  0.9392
 7042TIP3    H242542   2.194   5.911  15.092  1.3765 -0.6976  0.6150
 7043TIP3   OH242543   0.280   2.454  14.253 -0.2022  0.2834 -0.1240
 7043TIP3    H142544   0.304   2.545  14.269 -1.6016  0.6414  0.0716
 7043TIP3    H242545   0.285   2.412  14.339 -0.5220  0.4184 -0.0392
 7044TIP3   OH242546   3.619   3.293  15.774  0.4835  0.5783  0.0022
 7044TIP3    H142547   3.581   3.240  15.703 -1.0292  0.5755  0.7799
 7044TIP3    H242548   3.699   3.329  15.737  0.1637 -0.1224 -1.4229
 7045TIP3   OH242549   3.792   3.305  13.012 -0.0001 -0.2112 -0.0731
 7045TIP3    H142550   3.844   3.301  13.093 -0.5521  2.0292  0.4412
 7045TIP3    H242551   3.830   3.378  12.963 -1.3126  0.1066 -0.6388
 7046TIP3   OH242552   0.310   5.844  15.556 -0.7847  0.6623  0.2753
 7046TIP3    H142553   0.354   5.836  15.472  3.2154  1.7232  2.1557
 7046TIP3    H242554   0.264   5.761  15.568 -0.3074 -0.0065 -2.3326
 7047TIP3   OH242555   6.168   0.746  15.299  0.1473 -0.8399  0.1527
 7047TIP3    H142556   6.195   0.838  15.307  0.7881 -1.0498  0.4602
 7047TIP3    H242557   6.228   0.709  15.235 -0.9770 -0.7197 -0.9941
 7048TIP3   OH242558   6.668   0.169  12.304 -0.2613 -0.0068  0.1657
 7048TIP3    H142559   6.612   0.229  12.354 -0.6111 -1.2366  1.2864
 7048TIP3    H242560   6.619   0.087  12.303 -0.3683  0.0458 -2.4440
 7049TIP3   OH242561   4.689   0.711   1.258 -0.0190 -0.4239 -0.4668
 7049TIP3    H142562   4.599   0.742   1.251  0.7029  2.0068  0.6287
 7049TIP3    H242563   4.720   0.708   1.167 -0.7938  0.0003 -0.7487
 7050TIP3   OH242564   4.454   1.459   1.055  0.3689  0.0189 -0.3127
 7050TIP3    H142565   4.493   1.507   0.982  1.1616  0.3612  0.3291
 7050TIP3    H242566   4.452   1.368   1.024  1.9607 -0.0613 -0.2570
 7051TIP3   OH242567   0.640   1.287  12.837  0.1406 -0.4439 -0.3824
 7051TIP3    H142568   0.553   1.316  12.864  0.4756  0.1144  0.0958
 7051TIP3    H242569   0.623   1.231  12.761 -0.5903  0.1191 -0.6407
 7052TIP3   OH242570   0.140   1.074   0.006 -0.1243 -0.3808  0.0154
 7052TIP3    H142571   0.075   1.060  -0.063 -1.9073  0.4147  1.4964
 7052TIP3    H242572   0.134   1.167   0.027 -0.9335 -0.9337  2.4914
 7053TIP3   OH242573   3.763   0.475  15.766  0.0148  0.0021 -0.5028
 7053TIP3    H142574   3.807   0.400  15.726 -0.5661 -1.2132  1.0708
 7053TIP3    H242575   3.705   0.436  15.831  1.4695  1.9424  2.0314
 7054TIP3   OH242576   0.787   0.085  15.618 -0.3899 -0.5389 -0.3993
 7054TIP3    H142577   0.755   0.038  15.541  0.4424 -0.7606 -0.6067
 7054TIP3    H242578   0.882   0.083  15.611 -0.3251  0.7683 -0.1598
 7055TIP3   OH242579   6.487   2.952  14.672  0.3485  0.8958  0.0175
 7055TIP3    H142580   6.540   3.004  14.611 -0.0757 -0.8735 -1.9066
 7055TIP3    H242581   6.415   3.010  14.698 -0.1982  1.2563 -2.2258
 7056TIP3   OH242582   0.082   3.455  15.734  0.6464 -0.1412 -0.6422
 7056TIP3    H142583   0.102   3.402  15.656  0.9064 -0.2457 -0.5095
 7056TIP3    H242584   0.066   3.390  15.803  2.0051 -0.0483 -0.2203
 7057TIP3   OH242585   0.995   0.505  10.865 -0.5945 -0.3625 -0.2456
 7057TIP3    H142586   1.011   0.468  10.952  1.5596  0.4147 -0.2750
 7057TIP3    H242587   0.952   0.589  10.882  2.4752  1.2021  0.2887
 7058TIP3   OH242588   1.704   3.166  14.377  0.0692 -0.6286 -0.4773
 7058TIP3    H142589   1.708   3.245  14.431  0.1241 -0.2620 -1.0211
 7058TIP3    H242590   1.753   3.101  14.428 -3.1299 -1.4048  1.7704
 7059TIP3   OH242591   4.448   0.374  14.671 -0.0436  0.2928  0.1983
 7059TIP3    H142592   4.392   0.407  14.601  0.4265 -1.4985 -1.0270
 7059TIP3    H242593   4.387   0.336  14.734 -0.2793 -0.7536 -0.6555
 7060TIP3   OH242594   0.816   4.917  15.207 -0.2667  0.0087  0.3999
 7060TIP3    H142595   0.781   4.882  15.126 -2.6020  2.7662  0.1662
 7060TIP3    H242596   0.886   4.976  15.179 -2.4524  2.5781  0.2040
 7061TIP3   OH242597   4.653   1.740   0.025 -0.3000 -0.4083 -0.0652
 7061TIP3    H142598   4.645   1.824   0.069 -1.8124 -0.3329 -0.4363
 7061TIP3    H242599   4.697   1.683   0.088  1.8731  0.9771 -0.2810
 7062TIP3   OH242600   0.735   0.609  13.338 -0.0179 -0.3788  0.1086
 7062TIP3    H142601   0.664   0.672  13.333 -0.2638 -0.8507 -4.4280
 7062TIP3    H242602   0.814   0.663  13.347 -0.4908  0.4383 -0.5270
 7063TIP3   OH242603   0.742   0.311  10.402  0.2458  0.5956 -0.4635
 7063TIP3    H142604   0.715   0.396  10.366  2.1642  1.0501 -0.8384
 7063TIP3    H242605   0.765   0.330  10.493 -0.1966  0.3039 -0.2910
 7064TIP3   OH242606   3.543   0.495   0.552  0.0364  0.9244 -0.0269
 7064TIP3    H142607   3.532   0.407   0.517 -2.7472  1.6297 -1.1090
 7064TIP3    H242608   3.575   0.547   0.478  0.6434  1.0368  0.3129
 7065TIP3   OH242609   3.423   2.507  15.710  0.5475  0.2052  0.2225
 7065TIP3    H142610   3.516   2.506  15.733  0.5713 -1.5054  0.1736
 7065TIP3    H242611   3.380   2.550  15.783  1.3680  0.9669  0.2683
 7066TIP3   OH242612   6.838   2.268  10.771  0.1495 -0.2618  0.2811
 7066TIP3    H142613   6.892   2.213  10.714  2.1802  1.3919  0.5538
 7066TIP3    H242614   6.879   2.261  10.857 -1.4283 -0.7756  1.0117
 7067TIP3   OH242615   1.008   5.618  14.297  0.2528  0.7447  0.0022
 7067TIP3    H142616   1.009   5.713  14.287  0.1380  0.8772  1.2537
 7067TIP3    H242617   0.965   5.586  14.217 -1.1372  1.8378  0.2917
 7068TIP3   OH242618   6.861   1.906  14.937  0.2323  0.1251  0.1270
 7068TIP3    H142619   6.816   1.970  14.883 -0.0329 -0.1428  0.0269
 7068TIP3    H242620   6.795   1.839  14.956  0.2572  0.3382  0.9905
 7069TIP3   OH242621   2.836   6.852  15.746  0.1333 -0.3997 -0.2004
 7069TIP3    H142622   2.806   6.936  15.780  1.4036  0.1172 -0.3213
 7069TIP3    H242623   2.774   6.829  15.677 -0.4217  0.2565  0.0824
 7070TIP3   OH242624   2.082   0.921  14.165 -0.1689  0.3945 -0.5294
 7070TIP3    H142625   2.112   1.011  14.156 -0.8442  0.5709 -1.0423
 7070TIP3    H242626   2.006   0.927  14.223  1.5068 -0.2014  1.8018
 7071TIP3   OH242627   1.542   1.622  15.637  0.0264 -0.4034 -0.0962
 7071TIP3    H142628   1.545   1.669  15.720  0.5116 -1.1898  0.3316
 7071TIP3    H242629   1.604   1.669  15.581 -2.0782  1.6173 -0.8172
 7072TIP3   OH242630   5.322   5.626  13.004 -0.6006 -0.0633  0.0718
 7072TIP3    H142631   5.358   5.591  13.085 -1.2494 -0.8019  0.0462
 7072TIP3    H242632   5.331   5.721  13.013 -0.6996 -0.1384  1.0218
 7073TIP3   OH242633   4.646   5.055  13.437 -0.2925 -0.6697 -0.4095
 7073TIP3    H142634   4.739   5.045  13.454 -0.4220 -2.0606 -0.4281
 7073TIP3    H242635   4.603   5.005  13.507 -1.0175 -0.2435 -0.5415
 7074TIP3   OH242636   6.116   6.875   2.034  0.1279 -0.3312  0.3272
 7074TIP3    H142637   6.206   6.847   2.049 -0.2029 -1.0576  0.9984
 7074TIP3    H242638   6.064   6.819   2.092 -0.7991 -0.2695 -0.4427
 7075TIP3   OH242639   0.198   1.420  15.321  0.1307  0.1382  0.3373
 7075TIP3    H142640   0.202   1.400  15.227 -3.3610 -2.2911  0.6065
 7075TIP3    H242641   0.136   1.493  15.327  1.2370  1.0714  0.7059
 7076TIP3   OH242642   7.213   0.906  13.823 -0.4832 -0.3976 -0.2294
 7076TIP3    H142643   7.302   0.925  13.793 -1.0732 -0.4480 -2.0242
 7076TIP3    H242644   7.225   0.848  13.899  0.9851 -0.8877 -0.8307
 7077TIP3   OH242645   5.616   6.338  14.316 -0.0045 -0.3849 -0.4775
 7077TIP3    H142646   5.570   6.283  14.380 -0.1248 -1.5957 -1.5933
 7077TIP3    H242647   5.606   6.427  14.350 -1.2302 -0.8735  0.4925
 7078TIP3   OH242648   5.945   1.684   1.682 -0.2852  0.6396  0.2151
 7078TIP3    H142649   5.883   1.749   1.649  0.9621  2.5472  1.4887
 7078TIP3    H242650   6.025   1.734   1.697  0.8533 -1.3221  0.7304
 7079TIP3   OH242651   6.750   2.042  14.455  0.1648  0.5929 -0.1009
 7079TIP3    H142652   6.683   2.082  14.399 -0.0641 -0.7602 -0.8133
 7079TIP3    H242653   6.831   2.049  14.404  0.0620 -0.1375 -0.3676
 7080TIP3   OH242654   4.892   4.602  13.306 -0.6196  0.1899  0.0622
 7080TIP3    H142655   4.873   4.513  13.336  0.1178 -0.1387 -0.4373
 7080TIP3    H242656   4.811   4.631  13.263 -1.2245  0.1636  1.1565
 7081TIP3   OH242657   4.100   0.965  15.419  0.2880  0.2327  0.4573
 7081TIP3    H142658   4.190   0.943  15.442  0.5348  2.2925  1.5596
 7081TIP3    H242659   4.047   0.924  15.487  0.5952  1.2851  1.3364
 7082TIP3   OH242660   4.553   0.743  12.412  0.2139  0.0171  0.1661
 7082TIP3    H142661   4.556   0.823  12.465 -0.4503 -0.7022  1.3183
 7082TIP3    H242662   4.468   0.704  12.433 -0.1892 -0.1410 -1.6618
 7083TIP3   OH242663   5.608   1.418  12.925 -0.1910 -0.2801  0.4584
 7083TIP3    H142664   5.561   1.488  12.969  0.8797 -1.3692  3.4651
 7083TIP3    H242665   5.573   1.338  12.965  0.2170 -1.3627 -1.3054
 7084TIP3   OH242666   5.404   1.303   0.383  0.7521 -0.7480 -0.5758
 7084TIP3    H142667   5.500   1.299   0.391  0.5849 -0.3495  2.4907
 7084TIP3    H242668   5.373   1.230   0.437 -0.7146  1.0687  1.1101
 7085TIP3   OH242669   0.239   1.270  12.093 -0.5293  0.0546 -0.1568
 7085TIP3    H142670   0.162   1.231  12.052 -1.3482 -0.0083  1.4113
 7085TIP3    H242671   0.284   1.197  12.135 -0.3566  0.3147  0.1117
 7086TIP3   OH242672   5.453   7.042  15.086 -0.2809 -0.0582  0.2650
 7086TIP3    H142673   5.358   7.042  15.081 -0.2130  2.0159 -1.9295
 7086TIP3    H242674   5.472   7.038  15.180 -2.5524  1.8399  0.8429
 7087TIP3   OH242675   5.567   0.389  15.583  0.2256 -0.2282  0.6239
 7087TIP3    H142676   5.591   0.369  15.492  1.3802  0.0683  0.8499
 7087TIP3    H242677   5.650   0.383  15.631 -0.2397  0.3848  1.5175
 7088TIP3   OH242678   1.239   2.038  13.158 -0.3216 -0.0478 -0.1133
 7088TIP3    H142679   1.269   2.029  13.067  2.2461  1.8540  0.4640
 7088TIP3    H242680   1.144   2.047  13.151 -0.2004 -0.2436 -2.5905
 7089TIP3   OH242681   2.285   3.280  14.880 -0.3743 -0.8621  0.0029
 7089TIP3    H142682   2.379   3.294  14.885 -0.5302  0.1932  0.0735
 7089TIP3    H242683   2.275   3.199  14.829  0.6116 -1.8275  1.2864
 7090TIP3   OH242684   2.754   7.145   0.051  0.3514 -0.2210  0.5072
 7090TIP3    H142685   2.808   7.113   0.123  0.6473 -1.0745 -0.0713
 7090TIP3    H242686   2.687   7.077   0.039  1.0403 -0.7042 -0.7940
 7091TIP3   OH242687   3.022   1.862  13.914  0.6272 -0.3166 -0.2936
 7091TIP3    H142688   3.030   1.951  13.948  1.6865 -0.8693  0.9493
 7091TIP3    H242689   2.984   1.873  13.827  0.1544  1.2989  0.1028
 7092TIP3   OH242690   1.823   0.124  11.264 -0.2385  0.3291 -0.3891
 7092TIP3    H142691   1.760   0.181  11.221 -0.7964 -0.3403 -0.4616
 7092TIP3    H242692   1.858   0.176  11.336 -0.1614  1.0415 -0.9395
 7093TIP3   OH242693   4.415   2.680  14.751 -0.2570  0.3936 -0.1951
 7093TIP3    H142694   4.470   2.758  14.764 -1.2558  1.1053 -0.1528
 7093TIP3    H242695   4.341   2.693  14.810 -0.1032 -0.9310  0.3099
 7094TIP3   OH242696   4.744   6.676   0.369 -0.0215 -0.5714 -0.0403
 7094TIP3    H142697   4.742   6.583   0.345 -0.4634 -0.4621 -0.4348
 7094TIP3    H242698   4.835   6.693   0.390  0.4408 -0.5773 -1.9966
 7095TIP3   OH242699   6.611   6.870  14.415  0.3296  0.1328 -0.4143
 7095TIP3    H142700   6.685   6.814  14.440  0.0550  0.4489  1.1549
 7095TIP3    H242701   6.536   6.810  14.412  0.3263  0.1326 -0.3069
 7096TIP3   OH242702   7.252   6.212  13.976 -0.0770 -0.4492 -0.3812
 7096TIP3    H142703   7.283   6.129  14.014  0.7237 -0.7512 -1.6525
 7096TIP3    H242704   7.157   6.205  13.979 -0.0348 -0.5790  1.3024
 7097TIP3   OH242705   5.840   1.129   3.820  0.2999 -0.3565 -0.5806
 7097TIP3    H142706   5.900   1.178   3.764  0.9799  0.0378  0.4913
 7097TIP3    H242707   5.765   1.111   3.763  1.2168 -0.4592 -1.8001
 7098TIP3   OH242708   5.543   1.024  13.303 -0.6721  0.0347 -0.1352
 7098TIP3    H142709   5.507   1.014  13.391 -2.5962 -2.7688 -1.1734
 7098TIP3    H242710   5.611   0.957  13.297  0.0480  0.7911 -0.4926
 7099TIP3   OH242711   1.050   2.894   0.392  0.3580 -0.3599 -0.2294
 7099TIP3    H142712   0.999   2.900   0.473  0.0915 -1.2997 -0.3270
 7099TIP3    H242713   1.028   2.808   0.356  1.1106 -0.2828 -0.8768
 7100TIP3   OH242714   2.159   1.278  11.353  0.0764  0.1945  0.5604
 7100TIP3    H142715   2.207   1.220  11.412  0.0640  0.6731  1.0497
 7100TIP3    H242716   2.084   1.307  11.404 -1.1624 -1.1661 -0.4716
 7101TIP3   OH242717   4.443   2.942  15.048 -0.1089  0.7058 -0.1957
 7101TIP3    H142718   4.412   3.032  15.038 -0.1090  0.9588  1.7861
 7101TIP3    H242719   4.389   2.906  15.119  0.3465 -0.6559 -0.5165
 7102TIP3   OH242720   0.806   4.614   0.914  0.0326  0.9148  0.1949
 7102TIP3    H142721   0.816   4.670   0.991  1.9400  0.1088  0.5781
 7102TIP3    H242722   0.802   4.525   0.950  3.2178  0.3256 -0.6934
 7103TIP3   OH242723   7.021   2.168  15.286 -0.5248  0.3516  0.0484
 7103TIP3    H142724   7.083   2.209  15.346  0.7848 -0.6945 -0.5518
 7103TIP3    H242725   6.986   2.093  15.335  0.7119 -0.6344 -0.5472
 7104TIP3   OH242726   1.100   1.030  14.207  0.1088 -0.1701  0.2993
 7104TIP3    H142727   1.183   1.021  14.255  0.2034 -0.4137  0.0918
 7104TIP3    H242728   1.103   1.118  14.170  1.0174 -0.7662 -1.0912
 7105TIP3   OH242729   0.107   4.491  15.803  0.3116  0.1770  0.1943
 7105TIP3    H142730   0.198   4.496  15.773 -0.1967  1.5631 -1.2187
 7105TIP3    H242731   0.108   4.531  15.890  1.0490  0.1856  0.1880
 7106TIP3   OH242732   4.459   2.588  12.065 -0.3566 -0.3781 -0.3721
 7106TIP3    H142733   4.480   2.682  12.066 -1.6185 -0.0673 -1.4044
 7106TIP3    H242734   4.544   2.545  12.055  0.2472  0.6507  0.2169
 7107TIP3   OH242735   2.967   1.068  12.714 -0.0538  0.4339  0.3590
 7107TIP3    H142736   3.052   1.086  12.754  1.0792 -0.4377 -1.5420
 7107TIP3    H242737   2.985   0.995  12.654 -2.3124 -0.2516  0.4778
 7108TIP3   OH242738   6.081   1.701  14.409 -0.1061 -0.5767 -0.1582
 7108TIP3    H142739   6.092   1.685  14.316  1.6955 -2.4670  0.3316
 7108TIP3    H242740   6.113   1.621  14.451 -1.7477 -0.1192  2.0475
 7109TIP3   OH242741   5.529   3.411   0.226  0.2862 -0.1298  0.2363
 7109TIP3    H142742   5.619   3.427   0.198  0.1204 -0.5665 -0.5755
 7109TIP3    H242743   5.534   3.331   0.277  0.3650 -0.1522  0.1946
 7110TIP3   OH242744   5.859   2.926   1.106 -0.0586  0.0271  0.6260
 7110TIP3    H142745   5.845   2.839   1.070 -3.5307  0.8077 -0.1031
 7110TIP3    H242746   5.850   2.914   1.201  0.5335 -0.5728  0.6096
 7111TIP3   OH242747   5.940   1.170   0.226  0.3602  0.0267 -0.1542
 7111TIP3    H142748   5.924   1.166   0.132 -0.3546 -2.3140  0.0245
 7111TIP3    H242749   5.973   1.082   0.248 -2.5239 -0.5402  2.2733
 7112TIP3   OH242750   4.816   2.144   0.141 -0.4301  0.0188  0.2277
 7112TIP3    H142751   4.894   2.090   0.137 -0.8909 -0.9184  2.6286
 7112TIP3    H242752   4.841   2.218   0.197 -1.0377  0.0538  0.4633
 7113TIP3   OH242753   3.652   1.839   1.493 -0.0759 -0.4054 -0.2451
 7113TIP3    H142754   3.725   1.833   1.431  0.5947  1.8447  0.2922
 7113TIP3    H242755   3.661   1.925   1.533 -1.1999 -1.3423  2.1347
 7114TIP3   OH242756   5.878   2.110  15.552  0.0801 -1.0273  0.2186
 7114TIP3    H142757   5.793   2.137  15.519  0.1780  0.9987  1.5446
 7114TIP3    H242758   5.923   2.073  15.476 -0.4294  1.7306 -1.4886
 7115TIP3   OH242759   2.763   1.250  11.607 -0.5931  0.0345 -0.0039
 7115TIP3    H142760   2.801   1.170  11.644  1.1123  0.5805 -0.4951
 7115TIP3    H242761   2.707   1.220  11.536 -1.1776 -0.8093  0.7994
 7116TIP3   OH242762   0.897   2.683  13.061 -0.4172 -0.1585 -0.4983
 7116TIP3    H142763   0.811   2.662  13.098  0.7492 -1.3932  1.6265
 7116TIP3    H242764   0.942   2.731  13.132  0.9351 -0.2517 -1.2830
 7117TIP3   OH242765   7.268   2.925  15.225  0.1098 -0.2772  0.3755
 7117TIP3    H142766   7.284   2.998  15.286  0.3724  2.5361 -2.9188
 7117TIP3    H242767   7.352   2.880  15.219  0.1794 -0.3524  1.7635
 7118TIP3   OH242768   2.864   0.474   0.566 -0.4611  0.0917 -0.0949
 7118TIP3    H142769   2.823   0.430   0.491  2.7329 -0.9197 -1.2959
 7118TIP3    H242770   2.870   0.406   0.633 -1.2601  0.4093  0.3114
 7119TIP3   OH242771   1.041   3.552  13.153 -0.1568  0.1718 -0.7001
 7119TIP3    H142772   0.966   3.498  13.175  2.0047 -2.2840  0.9706
 7119TIP3    H242773   1.117   3.497  13.172  2.1793  3.6732  0.7905
 7120TIP3   OH242774   0.274   5.331  14.307  0.2058 -0.2530  0.0716
 7120TIP3    H142775   0.274   5.257  14.246  1.1280  1.6644 -2.3062
 7120TIP3    H242776   0.366   5.338  14.335 -0.0890 -0.6980  1.1713
 7121TIP3   OH242777   7.090   2.115  13.724  0.2407 -0.5140 -0.1382
 7121TIP3    H142778   7.081   2.176  13.797  0.4933 -0.8471  0.1724
 7121TIP3    H242779   7.007   2.122  13.676  1.2614  1.9877 -1.6063
 7122TIP3   OH242780   6.987   0.454  15.270 -0.1339 -0.4309 -0.0315
 7122TIP3    H142781   6.956   0.514  15.338  1.1327  0.2744 -0.0555
 7122TIP3    H242782   6.951   0.488  15.189 -0.5651 -0.5150  0.1230
 7123TIP3   OH242783   6.399   2.741  15.618 -0.5927 -0.4155 -0.1867
 7123TIP3    H142784   6.382   2.680  15.547 -0.9479 -0.7055  0.1458
 7123TIP3    H242785   6.489   2.722  15.645 -0.9090 -1.2240  0.3312
 7124TIP3   OH242786   0.118   6.312  11.865  0.1260 -0.4004 -0.0955
 7124TIP3    H142787   0.116   6.309  11.769 -1.8951  0.0583 -0.0872
 7124TIP3    H242788   0.091   6.401  11.887 -0.3973 -0.8111  0.9227
 7125TIP3   OH242789   0.667   2.007  15.382 -0.1622 -0.4364  0.2638
 7125TIP3    H142790   0.655   2.015  15.287  2.3671  0.0798 -0.0339
 7125TIP3    H242791   0.671   2.098  15.413  2.3851 -0.5574  0.3818
 7126TIP3   OH242792   2.260   4.955  12.026  0.9088 -0.2502  0.0394
 7126TIP3    H142793   2.349   4.932  12.052  1.4803 -0.9747 -2.4446
 7126TIP3    H242794   2.253   5.049  12.044  1.8257 -0.3852  1.1540
 7127TIP3   OH242795   7.133   6.144  14.416 -0.2156  0.6168 -0.0987
 7127TIP3    H142796   7.214   6.182  14.450 -1.1932  1.6779  1.0700
 7127TIP3    H242797   7.151   6.050  14.408 -0.1830  0.2103  4.0286
 7128TIP3   OH242798   5.737   2.275  13.618 -0.2594  0.4013  0.5281
 7128TIP3    H142799   5.762   2.185  13.637  0.4471  0.7582  1.3298
 7128TIP3    H242800   5.805   2.306  13.558  0.0293  0.7065  1.0158
 7129TIP3   OH242801   5.712   5.828   0.377  0.2777 -0.0622 -0.1072
 7129TIP3    H142802   5.794   5.791   0.344  0.0907  0.0764 -0.7257
 7129TIP3    H242803   5.678   5.762   0.437  0.4225 -0.4798 -0.4831
 7130TIP3   OH242804   4.749   1.787  14.502  0.4057 -0.1648  0.2605
 7130TIP3    H142805   4.721   1.741  14.423  1.5297  1.7964 -1.3324
 7130TIP3    H242806   4.838   1.754  14.518  0.6035  0.2662  0.0520
 7131TIP3   OH242807   1.612   4.379  10.597 -0.2933  0.4892  0.3502
 7131TIP3    H142808   1.528   4.336  10.579 -0.6687  1.0629  0.6825
 7131TIP3    H242809   1.628   4.362  10.690 -0.5146  1.1695  0.5193
 7132TIP3   OH242810   3.700   2.038  14.935 -0.2930  0.3063  0.5264
 7132TIP3    H142811   3.692   2.093  14.858 -0.5303 -1.0073 -0.4071
 7132TIP3    H242812   3.794   2.032  14.951 -0.2424  0.5549  0.3247
 7133TIP3   OH242813   7.146   1.023   0.329 -0.0103 -0.1022  0.5257
 7133TIP3    H142814   7.109   1.044   0.415 -1.3239  0.7072 -0.2213
 7133TIP3    H242815   7.073   1.034   0.268  0.7527 -1.2321 -0.6324
 7134TIP3   OH242816   0.846   3.321   0.712  0.7701  0.3058 -0.7127
 7134TIP3    H142817   0.872   3.399   0.760  1.5322  0.3089 -1.1297
 7134TIP3    H242818   0.891   3.249   0.756  0.6231  0.1831 -0.7617
 7135TIP3   OH242819   2.851   0.286  14.907  0.1895  0.5745  0.0816
 7135TIP3    H142820   2.862   0.361  14.848 -0.0160 -0.1504 -0.8892
 7135TIP3    H242821   2.851   0.210  14.849  2.0078 -0.3110  1.1886
 7136TIP3   OH242822   0.028   2.213  13.008 -0.2747 -0.7570  0.1857
 7136TIP3    H142823   0.010   2.268  12.931 -1.0403 -2.4607 -0.8815
 7136TIP3    H242824   0.105   2.162  12.984 -0.0567 -0.7550  0.8604
 7137TIP3   OH242825   3.833   2.175  15.964  0.7760 -0.0775 -0.0684
 7137TIP3    H142826   3.854   2.183  15.871 -0.8731 -0.0232 -0.4516
 7137TIP3    H242827   3.845   2.263  15.999 -1.1548  0.4989 -0.7970
 7138TIP3   OH242828   6.221   0.527  11.395  0.1674 -0.0148 -0.3261
 7138TIP3    H142829   6.130   0.552  11.378  0.9641  1.4156 -2.7234
 7138TIP3    H242830   6.237   0.453  11.337  0.5862 -0.1872  0.0043
 7139TIP3   OH242831   5.962   0.329   0.378  0.8595  0.4097  0.6468
 7139TIP3    H142832   5.975   0.423   0.371  0.5694  0.3983 -0.0357
 7139TIP3    H242833   5.906   0.318   0.455 -0.2960  0.8959 -0.1166
 7140TIP3   OH242834   6.827   0.756  13.229 -0.0088  0.0785  0.2090
 7140TIP3    H142835   6.809   0.769  13.136 -0.5375 -0.5067  0.2278
 7140TIP3    H242836   6.822   0.662  13.242 -1.6132  0.2725  1.1635
 7141TIP3   OH242837   4.039   0.295  15.752  0.3402 -0.2402  0.5084
 7141TIP3    H142838   4.019   0.326  15.840 -0.9720  0.0040  0.1335
 7141TIP3    H242839   4.131   0.268  15.756  1.0038  2.0203  1.3197
 7142TIP3   OH242840   4.017   0.437  11.446 -0.4732  0.5812  0.4723
 7142TIP3    H142841   4.014   0.393  11.530 -0.5865  0.6808  0.5204
 7142TIP3    H242842   3.985   0.371  11.383 -0.4468  0.5275  0.5159
 7143TIP3   OH242843   6.182   1.867   0.401 -0.2848 -0.5241 -0.1289
 7143TIP3    H142844   6.197   1.775   0.425 -2.3877 -1.0544 -0.7946
 7143TIP3    H242845   6.214   1.874   0.311 -0.6350 -0.7474 -0.2725
 7144TIP3   OH242846   6.852   1.269  14.931  0.3608 -0.5304  0.0659
 7144TIP3    H142847   6.772   1.255  14.981  0.3879 -0.2460  0.1906
 7144TIP3    H242848   6.913   1.202  14.964  0.0474 -1.0029 -0.3115
 7145TIP3   OH242849   0.039   1.753  14.746 -0.2074  0.2772 -0.2677
 7145TIP3    H142850   0.070   1.758  14.837  2.6990  0.2980 -1.2294
 7145TIP3    H242851   0.072   1.669  14.714 -0.2614  0.7786 -1.6403
 7146TIP3   OH242852   4.926   3.508   2.696 -0.4231  0.0708  0.1545
 7146TIP3    H142853   5.008   3.476   2.734  0.0797 -0.6025 -1.4106
 7146TIP3    H242854   4.870   3.430   2.691 -0.1867 -0.0276 -1.1883
 7147TIP3   OH242855   6.979   6.205  15.285  0.0565  0.2650 -0.4618
 7147TIP3    H142856   6.902   6.198  15.228  1.0357  1.0933 -1.9115
 7147TIP3    H242857   7.024   6.122  15.274 -1.2653 -0.7350  1.3702
 7148TIP3   OH242858   6.536   6.927   0.551  0.4630 -0.2768  0.1796
 7148TIP3    H142859   6.591   6.850   0.540 -0.8260 -0.8648 -2.4067
 7148TIP3    H242860   6.577   6.994   0.496 -1.4357 -0.7625 -1.8924
 7149TIP3   OH242861   2.104   2.922  13.666  0.1211 -0.0544 -0.3451
 7149TIP3    H142862   2.017   2.957  13.686  0.6825  1.3061 -0.2631
 7149TIP3    H242863   2.096   2.828  13.683 -1.2167  0.1177  0.0514
 7150TIP3   OH242864   6.686   2.088  12.126  0.0837 -0.4262  0.0902
 7150TIP3    H142865   6.777   2.061  12.114  0.6466  0.7262  1.6871
 7150TIP3    H242866   6.638   2.038  12.060  1.7141 -1.8618 -0.0515
 7151TIP3   OH242867   6.691   0.215  14.012 -0.9166 -0.6143  0.4877
 7151TIP3    H142868   6.631   0.262  14.070  0.3044 -0.9286  2.0116
 7151TIP3    H242869   6.756   0.177  14.070 -0.3117 -1.8758 -0.9941
 7152TIP3   OH242870   6.159   0.325   0.858 -0.3188 -0.4872  0.3105
 7152TIP3    H142871   6.109   0.258   0.906 -2.8130  0.7414 -0.4580
 7152TIP3    H242872   6.102   0.348   0.784  2.0306  0.0031 -1.3885
 7153TIP3   OH242873   3.650   7.213   1.191 -0.0959 -0.3217  0.6089
 7153TIP3    H142874   3.556   7.209   1.171 -0.0597 -1.1803  0.6014
 7153TIP3    H242875   3.686   7.270   1.123 -0.5654 -0.2495  0.4177
 7154TIP3   OH242876   2.212   6.290  14.655  0.3723  0.1240  0.2061
 7154TIP3    H142877   2.211   6.266  14.747  1.3317 -0.5188  0.0572
 7154TIP3    H242878   2.304   6.309  14.636  0.3777 -0.9170 -0.8999
 7155TIP3   OH242879   1.164   6.759  15.518  0.5438 -0.3726  0.4411
 7155TIP3    H142880   1.115   6.762  15.600  0.0579  3.0723  0.0802
 7155TIP3    H242881   1.174   6.665  15.500 -2.8807 -1.2001  2.3141
 7156TIP3   OH242882   2.575   7.143   2.381 -0.1287 -0.3034 -0.5061
 7156TIP3    H142883   2.488   7.104   2.380 -0.0732 -0.4580  0.2251
 7156TIP3    H242884   2.588   7.176   2.292 -1.1513  0.2221 -0.4635
 7157TIP3   OH242885   5.956   0.011   3.004 -0.2901  0.2059  0.0840
 7157TIP3    H142886   5.956   0.107   3.005 -0.8276  0.2286 -1.3609
 7157TIP3    H242887   5.864  -0.013   3.012 -0.1933 -0.1801  0.0422
 7158TIP3   OH242888   5.963   0.898   1.727  0.1512 -0.2896  0.4110
 7158TIP3    H142889   5.911   0.885   1.648  0.4986 -1.1620  0.3121
 7158TIP3    H242890   5.907   0.867   1.798  0.0952 -0.1461  0.4287
 7159TIP3   OH242891   1.547   3.314  15.958 -0.0655  0.0640 -0.2753
 7159TIP3    H142892   1.455   3.329  15.982 -0.1833  0.2521 -0.8324
 7159TIP3    H242893   1.558   3.219  15.961  0.1102  0.1163  1.1991
 7160TIP3   OH242894   6.484   6.365   1.513 -0.0570  0.0846  0.6979
 7160TIP3    H142895   6.412   6.418   1.479  0.3604  0.6468  0.6888
 7160TIP3    H242896   6.504   6.403   1.598  0.2080 -0.0970  0.7173
 7161TIP3   OH242897   2.169   5.319   1.157 -0.3675 -0.3749  0.2049
 7161TIP3    H142898   2.182   5.254   1.087  0.1252 -1.2231  1.0615
 7161TIP3    H242899   2.209   5.399   1.123 -0.6490 -0.6146 -0.7177
 7162TIP3   OH242900   1.094   1.930  12.601  0.4277 -0.9128  0.8525
 7162TIP3    H142901   1.066   1.937  12.510  1.4483  1.7115  0.6734
 7162TIP3    H242902   1.180   1.889  12.597  0.6115 -0.5088  0.5794
 7163TIP3   OH242903   7.225   2.543   1.231 -0.5005 -0.0742 -0.1162
 7163TIP3    H142904   7.273   2.587   1.160 -2.1334 -1.1825 -1.9452
 7163TIP3    H242905   7.148   2.507   1.188 -1.1076 -1.4503  2.1111
 7164TIP3   OH242906   2.920   3.088  12.085  0.2250  0.6898 -0.3250
 7164TIP3    H142907   2.850   3.116  12.026  0.0141  4.3348  1.4830
 7164TIP3    H242908   3.000   3.110  12.038  0.1466 -0.5734 -1.0792
 7165TIP3   OH242909   0.109   1.715  15.013 -0.3190 -0.4697  0.3966
 7165TIP3    H142910   0.199   1.697  15.041 -0.3212  0.3537  0.9692
 7165TIP3    H242911   0.085   1.794  15.062 -2.2057 -2.0676  2.1146
 7166TIP3   OH242912   5.413   2.353  10.703 -0.1628 -0.4349  0.6735
 7166TIP3    H142913   5.483   2.412  10.675 -1.7217  0.6397 -0.9929
 7166TIP3    H242914   5.359   2.405  10.762 -1.7342 -0.0385 -1.0644
 7167TIP3   OH242915   0.592   4.963  12.560  0.2105 -0.3119  0.4040
 7167TIP3    H142916   0.500   4.952  12.537  0.7692 -0.4954 -1.9435
 7167TIP3    H242917   0.640   4.919  12.489  2.1448  2.2028  0.0548
 7168TIP3   OH242918   5.097   1.624   2.933 -0.5647  0.2273 -0.0592
 7168TIP3    H142919   5.041   1.631   2.855 -1.2485 -0.1444  0.3908
 7168TIP3    H242920   5.129   1.534   2.931 -1.1304  0.0095  0.4501
 7169TIP3   OH242921   7.082   2.444  15.531  0.4044  0.5155  0.2771
 7169TIP3    H142922   7.072   2.362  15.579  0.8807 -0.5276 -1.3358
 7169TIP3    H242923   7.145   2.494  15.582  0.7674 -0.4827  0.8342
 7170TIP3   OH242924   5.171   1.028  15.650 -0.2141 -0.4385  0.2410
 7170TIP3    H142925   5.130   1.104  15.692 -0.2922  0.7477 -1.8542
 7170TIP3    H242926   5.188   0.967  15.721 -2.3106  0.5703  1.6716
 7171TIP3   OH242927   0.815   0.021  14.844  0.4014 -0.1914 -0.0874
 7171TIP3    H142928   0.896   0.016  14.896  1.3915 -1.5608 -1.7252
 7171TIP3    H242929   0.836   0.082  14.774  0.6958 -2.0525 -1.6499
 7172TIP3   OH242930   1.237   5.075  13.624 -0.1384 -0.5221 -0.5368
 7172TIP3    H142931   1.158   5.032  13.591 -0.1414  0.0102 -1.2312
 7172TIP3    H242932   1.292   5.086  13.546  0.8407 -1.3432  0.0142
 7173TIP3   OH242933   5.654   6.379  15.281  0.5612  0.0199 -0.5037
 7173TIP3    H142934   5.673   6.290  15.253 -2.1145 -1.0106  0.8199
 7173TIP3    H242935   5.717   6.395  15.352  0.8886 -0.9216 -0.5714
 7174TIP3   OH242936   0.317   1.804  15.260 -0.5228  0.1398  0.2710
 7174TIP3    H142937   0.331   1.728  15.202 -0.1440 -0.4634  1.1374
 7174TIP3    H242938   0.390   1.862  15.240 -0.7925  0.2600 -0.3740
 7175TIP3   OH242939   5.287   1.849  13.029 -0.6456 -0.0311  0.3946
 7175TIP3    H142940   5.229   1.796  12.974 -1.4829  1.6460 -0.3833
 7175TIP3    H242941   5.236   1.929  13.047  0.7621  0.7107  1.1432
 7176TIP3   OH242942   5.342   0.093  10.443 -0.0672  0.4781 -0.3664
 7176TIP3    H142943   5.393   0.018  10.475  1.6673  1.8905  0.3080
 7176TIP3    H242944   5.340   0.082  10.348 -0.9658 -1.1096 -0.1820
 7177TIP3   OH242945   4.209   7.229   0.275 -0.0973 -0.1237  0.1695
 7177TIP3    H142946   4.211   7.200   0.366  0.8086  0.3581  0.3061
 7177TIP3    H242947   4.129   7.189   0.239  1.1597 -2.9190  0.3179
 7178TIP3   OH242948   4.042   0.760  12.745 -0.4842 -0.1124  0.2925
 7178TIP3    H142949   3.994   0.754  12.828 -3.9945 -3.2080 -1.8321
 7178TIP3    H242950   4.001   0.832  12.698 -0.0520  0.1205  0.2689
 7179TIP3   OH242951   5.133   6.214   2.641 -1.0307 -0.2453 -0.4861
 7179TIP3    H142952   5.140   6.148   2.709  1.2045  1.0353  0.5774
 7179TIP3    H242953   5.068   6.276   2.675 -0.2255  0.1726  0.3012
 7180TIP3   OH242954   5.293   4.754  15.227  0.5158 -0.0972  0.2526
 7180TIP3    H142955   5.215   4.810  15.225 -1.0443 -2.2327  0.3018
 7180TIP3    H242956   5.334   4.774  15.311 -0.5835  0.2304  0.7232
 7181TIP3   OH242957   2.017   4.109  13.041  0.1159  0.2016 -0.2185
 7181TIP3    H142958   1.989   4.191  13.082 -1.0959  1.0179 -2.5930
 7181TIP3    H242959   1.959   4.043  13.078  0.4563  0.5618  0.9827
 7182TIP3   OH242960   4.972   1.607  15.632  0.5361 -0.3242 -0.4260
 7182TIP3    H142961   4.903   1.649  15.683  1.9879  0.6797  0.7843
 7182TIP3    H242962   5.053   1.636  15.674  1.6540 -2.6531 -0.8912
 7183TIP3   OH242963   7.250   1.854  15.362  0.2987 -0.1077 -0.6417
 7183TIP3    H142964   7.286   1.765  15.371  0.5361  0.1012  0.5481
 7183TIP3    H242965   7.229   1.862  15.269 -0.4509 -1.6998 -0.6331
 7184TIP3   OH242966   6.390   4.671  15.604  0.4387 -0.2273  0.2943
 7184TIP3    H142967   6.312   4.642  15.556 -0.5118  1.6892  0.6291
 7184TIP3    H242968   6.447   4.594  15.606 -0.1655 -0.8022 -2.5008
 7185TIP3   OH242969   5.406   4.019  13.834 -0.4228 -0.2520 -0.4899
 7185TIP3    H142970   5.320   4.058  13.820 -0.6583 -1.0398 -1.2464
 7185TIP3    H242971   5.400   3.931  13.796  0.7870 -0.2234 -0.7857
 7186TIP3   OH242972   1.136   3.180  15.636  0.5893  0.4722  0.3427
 7186TIP3    H142973   1.107   3.230  15.560  0.8814 -0.2899 -0.2784
 7186TIP3    H242974   1.227   3.208  15.649  0.5639  0.5448  0.3674
 7187TIP3   OH242975   4.058   2.703   3.227 -0.1060  0.1024 -0.2561
 7187TIP3    H142976   4.006   2.760   3.171  0.2516  0.7330  0.0413
 7187TIP3    H242977   4.094   2.762   3.294 -0.1659 -0.5660  0.3644
 7188TIP3   OH242978   5.615   3.107   0.836  0.8220 -0.6919 -0.1792
 7188TIP3    H142979   5.550   3.071   0.776  0.0239  0.0607  0.2286
 7188TIP3    H242980   5.699   3.088   0.794  0.3513 -1.7712 -0.6454
 7189TIP3   OH242981   4.796   0.425  12.035 -0.0788 -0.1625 -0.2097
 7189TIP3    H142982   4.842   0.396  11.956 -1.9824 -0.5027 -1.2062
 7189TIP3    H242983   4.789   0.346  12.089  0.4803 -0.1117 -0.0550
 7190TIP3   OH242984   4.564   3.413  14.660  0.1194 -0.1614 -0.3921
 7190TIP3    H142985   4.604   3.339  14.615 -0.5464  0.4348 -1.9953
 7190TIP3    H242986   4.638   3.459  14.701  0.6992 -0.8464 -0.6555
 7191TIP3   OH242987   4.520   4.709   0.894 -0.1649  0.4495 -0.3330
 7191TIP3    H142988   4.463   4.633   0.904  0.3691  0.1066  0.1181
 7191TIP3    H242989   4.590   4.680   0.836 -0.8849  1.1212 -1.5519
 7192TIP3   OH242990   5.735   0.841  13.713  0.1732 -0.0610  0.2314
 7192TIP3    H142991   5.676   0.800  13.777  0.0992  1.2606  1.0440
 7192TIP3    H242992   5.722   0.935  13.726  1.9702  0.2476 -0.0409
 7193TIP3   OH242993   6.890   6.957  15.677  0.4357  0.3198 -0.5562
 7193TIP3    H142994   6.868   6.896  15.748 -0.4720 -1.3286 -2.2179
 7193TIP3    H242995   6.984   6.946  15.665  0.5229  0.2979  0.1153
 7194TIP3   OH242996   5.087   1.383  14.200 -0.2873 -0.4578 -0.0226
 7194TIP3    H142997   5.045   1.457  14.157  0.6494 -0.4684 -0.9587
 7194TIP3    H242998   5.059   1.390  14.292 -1.4299  0.1654 -0.4087
 7195TIP3   OH242999   6.543   6.989   1.238 -0.2852 -0.0403  0.1297
 7195TIP3    H143000   6.604   6.917   1.221  0.2055  0.7618 -1.5583
 7195TIP3    H243001   6.583   7.037   1.310 -0.1434 -0.9052  0.6434
 7196TIP3   OH243002   0.983   4.797  13.114  0.1372  0.2371 -0.3993
 7196TIP3    H143003   0.999   4.757  13.199 -1.0051  1.5371  0.4470
 7196TIP3    H243004   0.892   4.828  13.119  0.3318  1.0676 -1.7720
 7197TIP3   OH243005   6.487   4.109  13.081 -0.6235  0.3661  0.0596
 7197TIP3    H143006   6.522   4.141  13.165  0.2411  0.5472 -0.3588
 7197TIP3    H243007   6.536   4.028  13.064  0.6033  1.3341 -1.1953
 7198TIP3   OH243008   6.657   4.303  10.288  0.3309  0.6163  0.5629
 7198TIP3    H143009   6.676   4.342  10.203 -1.3118 -1.4510 -0.8067
 7198TIP3    H243010   6.574   4.342  10.315  1.4247  2.1471  1.8149
 7199TIP3   OH243011   6.642   0.836  13.442  0.0354  0.0650 -0.1999
 7199TIP3    H143012   6.629   0.761  13.501 -3.4506 -0.4493 -1.4754
 7199TIP3    H243013   6.696   0.801  13.371  1.4335 -0.2370  1.0012
 7200TIP3   OH243014   5.524   7.051  15.359  0.2522 -0.0470  0.5353
 7200TIP3    H143015   5.612   7.047  15.398 -0.1764 -0.8248  1.4353
 7200TIP3    H243016   5.494   7.140  15.375  1.2082  0.4802 -0.5202
 7201TIP3   OH243017   4.896   1.683  12.298 -0.3061 -0.6647 -0.6059
 7201TIP3    H143018   4.855   1.710  12.380 -0.3967 -1.7156 -0.2944
 7201TIP3    H243019   4.936   1.763  12.263 -0.6809 -0.1143  0.2190
 7202TIP3   OH243020   6.264   0.962  14.207  0.2835  0.1646  0.0085
 7202TIP3    H143021   6.205   1.031  14.177 -0.0710 -0.6309 -1.1494
 7202TIP3    H243022   6.316   0.940  14.129 -0.2885 -1.5680  0.0977
 7203TIP3   OH243023   6.420   2.040  14.765 -0.1560 -0.5849 -0.6076
 7203TIP3    H143024   6.404   1.949  14.791 -0.1876 -0.6860 -0.9860
 7203TIP3    H243025   6.348   2.061  14.706 -1.1917  0.2756  0.9328
 7204TIP3   OH243026   4.153   2.079  15.789 -0.5626  0.3816  0.2255
 7204TIP3    H143027   4.229   2.062  15.734  0.0424  0.5325  1.0057
 7204TIP3    H243028   4.159   2.014  15.860 -0.9596  0.6277  0.4896
 7205TIP3   OH243029   4.380   1.825  10.516 -0.4110 -0.0211  0.3100
 7205TIP3    H143030   4.317   1.891  10.543 -1.2216 -0.3563 -0.7561
 7205TIP3    H243031   4.328   1.758  10.473  0.4920 -1.0307  0.7713
 7206TIP3   OH243032   6.896   0.712  15.371 -0.2460 -0.0138  0.6697
 7206TIP3    H143033   6.810   0.749  15.351  0.0643  0.1502 -0.3927
 7206TIP3    H243034   6.932   0.770  15.438 -1.1103 -0.2932  1.3808
 7207TIP3   OH243035   4.812   1.920   1.078  0.1976  0.1548  0.0860
 7207TIP3    H143036   4.903   1.940   1.055  0.2119  0.1446  0.1343
 7207TIP3    H243037   4.792   1.978   1.151 -0.7094  2.0960 -1.6642
 7208TIP3   OH243038   5.056   3.417  14.802  0.6952 -1.2187 -0.7237
 7208TIP3    H143039   5.080   3.363  14.877 -0.4517  0.8470  1.1796
 7208TIP3    H243040   5.075   3.362  14.726  2.5448 -3.0863  1.0338
 7209TIP3   OH243041   2.022   3.940   1.413  0.6972 -0.5747 -0.1946
 7209TIP3    H143042   1.965   3.900   1.478 -1.5029  1.1750 -0.9653
 7209TIP3    H243043   2.108   3.901   1.428 -0.1214 -1.3388  2.7130
 7210TIP3   OH243044   1.251   2.925  15.130  0.0766  0.8675 -0.7429
 7210TIP3    H143045   1.255   2.854  15.194  2.1246  1.0462 -0.6296
 7210TIP3    H243046   1.168   2.969  15.147 -0.1970 -0.1532  0.6302
 7211TIP3   OH243047   5.783   1.860  13.044 -0.2280  0.2130  0.0907
 7211TIP3    H143048   5.765   1.878  12.952 -1.0934 -0.0693  0.2002
 7211TIP3    H243049   5.867   1.903  13.061  0.7511 -1.1131 -1.2656
 7212TIP3   OH243050   2.752   0.806  13.628  0.2067  0.4986 -0.6566
 7212TIP3    H143051   2.804   0.881  13.657 -0.5340  0.8768 -0.2937
 7212TIP3    H243052   2.792   0.731  13.671  0.5886  0.7564 -0.5586
 7213TIP3   OH243053   0.417   6.217  11.515 -0.3020 -0.0232 -0.7583
 7213TIP3    H143054   0.399   6.124  11.503  0.8544 -0.8106  2.8506
 7213TIP3    H243055   0.510   6.221  11.539 -1.0179  1.7411  1.9782
 7214TIP3   OH243056   0.215   4.279  12.252  0.1145  0.0424  0.4010
 7214TIP3    H143057   0.259   4.360  12.228 -0.8826  0.3074 -0.5820
 7214TIP3    H243058   0.281   4.229  12.300  1.4404  0.5093 -0.8832
 7215TIP3   OH243059   5.879   6.074   0.332 -0.0885  0.0843 -0.4690
 7215TIP3    H143060   5.918   6.036   0.254  0.0233  0.3282 -0.5323
 7215TIP3    H243061   5.946   6.134   0.366  0.4148 -1.0642  0.5946
 7216TIP3   OH243062   2.599   2.036  14.275 -0.4336  0.3204 -0.1162
 7216TIP3    H143063   2.640   2.111  14.317  0.0941 -0.1528  0.2201
 7216TIP3    H243064   2.654   2.018  14.199 -1.6348  1.4535 -1.2921
 7217TIP3   OH243065   1.321   3.519  15.835  0.3390  0.1899  0.7985
 7217TIP3    H143066   1.235   3.515  15.792 -0.0701  1.9136  1.3990
 7217TIP3    H243067   1.330   3.434  15.878 -1.0638 -0.0171  0.7251
 7218TIP3   OH243068   7.192   3.685   2.566 -0.4962  0.0418 -0.0461
 7218TIP3    H143069   7.269   3.666   2.619 -0.7890 -0.6032  0.1576
 7218TIP3    H243070   7.199   3.778   2.544  1.3854 -0.4794 -1.7476
 7219TIP3   OH243071   1.757   4.781  13.165  0.1443  0.3128 -0.1213
 7219TIP3    H143072   1.845   4.744  13.158  0.0964  0.3099 -0.7375
 7219TIP3    H243073   1.752   4.845  13.094 -1.0635 -1.1541 -1.4049
 7220TIP3   OH243074   3.495   3.374  14.000  0.4522  0.3542 -0.5879
 7220TIP3    H143075   3.496   3.325  13.918  0.0527  0.5559 -0.7141
 7220TIP3    H243076   3.587   3.393  14.018  0.5230  0.5101 -1.1084
 7221TIP3   OH243077   0.978   3.494  13.632 -0.1956 -0.1604 -0.2584
 7221TIP3    H143078   0.977   3.430  13.561  0.3008 -0.6201  0.1430
 7221TIP3    H243079   0.923   3.566  13.601 -0.6598 -0.7323 -0.7600
 7222TIP3   OH243080   0.114   1.859   0.148  0.1124 -0.3497 -0.2763
 7222TIP3    H143081   0.096   1.944   0.108  0.6316 -1.1363 -2.2428
 7222TIP3    H243082   0.206   1.862   0.172 -0.2478  0.1935  1.0361
 7223TIP3   OH243083   1.478   6.445  14.202 -0.5327  0.1916  0.2046
 7223TIP3    H143084   1.442   6.508  14.139 -0.2161  0.1134 -0.0587
 7223TIP3    H243085   1.443   6.472  14.286  0.4462  1.3677  0.2460
 7224TIP3   OH243086   1.309   2.737  15.329 -0.1542 -0.5193  0.3637
 7224TIP3    H143087   1.248   2.704  15.395 -0.2587 -0.7709  0.1409
 7224TIP3    H243088   1.372   2.666  15.316 -1.5705 -1.4600 -1.6261
 7225TIP3   OH243089   1.326   1.246  15.799 -0.3940 -0.8981 -0.7013
 7225TIP3    H143090   1.362   1.272  15.714 -1.0627  0.1339 -0.6727
 7225TIP3    H243091   1.290   1.326  15.836 -0.3242 -1.3860  0.4627
 7226TIP3   OH243092   3.557   5.396  14.320  0.4398 -0.6441  0.1694
 7226TIP3    H143093   3.514   5.425  14.240 -3.9457 -0.5642  2.3999
 7226TIP3    H243094   3.559   5.300  14.313 -1.0074 -0.7049  0.4523
 7227TIP3   OH243095   1.900   2.200  11.815 -0.3799  0.1111 -0.3805
 7227TIP3    H143096   1.919   2.223  11.906 -0.1098  0.5006 -0.5341
 7227TIP3    H243097   1.978   2.153  11.786 -0.4765 -0.0345 -0.4044
 7228TIP3   OH243098   1.598   2.229  13.482 -0.3519 -0.6761  0.1052
 7228TIP3    H143099   1.642   2.166  13.540  1.2849 -0.3042 -0.6943
 7228TIP3    H243100   1.506   2.202  13.483 -0.0299 -1.8115  1.3996
 7229TIP3   OH243101   7.194   4.002  15.845 -0.0435  0.4842  0.1376
 7229TIP3    H143102   7.120   4.005  15.784 -0.0856 -1.1882  0.0653
 7229TIP3    H243103   7.237   4.087  15.837  1.2754 -0.4915 -3.8651
 7230TIP3   OH243104   0.865   5.933  13.614  0.1893  0.1586 -0.0194
 7230TIP3    H143105   0.961   5.928  13.610  0.1385 -0.6867 -0.3879
 7230TIP3    H243106   0.845   6.022  13.584  0.8673  0.4052  0.2381
 7231TIP3   OH243107   4.974   1.515   1.702 -0.1470  0.1376 -0.5000
 7231TIP3    H143108   4.891   1.498   1.746 -1.0856  1.4985 -1.6900
 7231TIP3    H243109   5.016   1.429   1.695 -1.3673 -0.5308  0.2933
 7232TIP3   OH243110   3.337   5.454  13.691 -0.2974  0.3029 -0.1098
 7232TIP3    H143111   3.427   5.483  13.679 -0.1248 -0.2127 -0.1007
 7232TIP3    H243112   3.312   5.416  13.607 -0.8479  1.3353 -0.4223
 7233TIP3   OH243113   3.764   1.789  12.119 -0.0989  0.0461  0.2550
 7233TIP3    H143114   3.703   1.827  12.055  0.4719 -0.1781 -0.4300
 7233TIP3    H243115   3.765   1.850  12.192 -0.0601  0.7648 -0.3479
 7234TIP3   OH243116   0.369   1.977   0.211  0.1967  0.4841  0.4372
 7234TIP3    H143117   0.394   2.069   0.220 -0.1703  0.4637  1.6585
 7234TIP3    H243118   0.429   1.943   0.144  0.3007  1.6165 -0.0559
 7235TIP3   OH243119   0.536   3.803  13.528 -0.1893 -0.1443 -0.5724
 7235TIP3    H143120   0.606   3.810  13.593 -2.4176 -1.5259  2.1342
 7235TIP3    H243121   0.509   3.893  13.511  1.3075  0.3101 -0.5976
 7236TIP3   OH243122   2.584   1.093  14.437  0.2137  0.0902  0.2626
 7236TIP3    H143123   2.623   1.154  14.374  1.2998  0.5374  1.3455
 7236TIP3    H243124   2.581   1.009  14.390  0.9523  0.4267 -0.4031
 7237TIP3   OH243125   2.556   2.522  12.617  0.2390 -0.0315  0.1781
 7237TIP3    H143126   2.537   2.613  12.595  1.8461 -0.0710 -1.4983
 7237TIP3    H243127   2.535   2.473  12.537 -2.0136 -1.3587  1.5268
 7238TIP3   OH243128   2.746   5.094   1.015  0.0342  0.0481 -0.2999
 7238TIP3    H143129   2.794   5.052   1.087  1.7884  1.7757 -0.4295
 7238TIP3    H243130   2.811   5.148   0.972 -1.7913  1.5528 -1.2035
 7239TIP3   OH243131   2.148   2.753  13.264  0.6172  0.1141 -0.5704
 7239TIP3    H143132   2.131   2.790  13.177 -0.7504  1.2077  0.1258
 7239TIP3    H243133   2.135   2.827  13.324  0.0085 -0.9860  0.6818
 7240TIP3   OH243134   6.357   5.950  14.895  0.3548  0.3793 -0.0270
 7240TIP3    H143135   6.320   5.869  14.929 -0.0401 -0.5313 -2.5080
 7240TIP3    H243136   6.407   5.923  14.818  1.1466  2.3555 -0.2272
 7241TIP3   OH243137   1.676   2.823  13.305  0.2727 -0.9904 -0.4633
 7241TIP3    H143138   1.662   2.789  13.216 -2.1925 -1.1900 -0.0371
 7241TIP3    H243139   1.722   2.753  13.351  0.6084 -1.3173 -1.2909
 7242TIP3   OH243140   6.317   1.657  15.139  0.0451 -0.1196  0.1306
 7242TIP3    H143141   6.404   1.639  15.104 -0.3630 -1.1086 -0.4022
 7242TIP3    H243142   6.293   1.741  15.101  0.8463  0.2507  0.4393
 7243TIP3   OH243143   1.691   3.958  13.400  0.2324  0.1624 -0.1371
 7243TIP3    H143144   1.674   3.865  13.387 -0.0883  0.7110 -4.3445
 7243TIP3    H243145   1.757   3.961  13.469 -1.5491 -3.0106  1.8509
 7244TIP3   OH243146   1.231   4.061  14.796 -0.1824 -0.8194  0.0059
 7244TIP3    H143147   1.197   4.081  14.883  1.1057  1.8966 -0.0664
 7244TIP3    H243148   1.155   4.065  14.739 -0.6028  0.1046  0.6133
 7245TIP3   OH243149   5.520   0.068  13.086  0.0636 -0.4485  0.1677
 7245TIP3    H143150   5.612   0.093  13.097  0.2665 -0.7656 -0.7959
 7245TIP3    H243151   5.471   0.145  13.113  0.6153 -0.1980  0.4666
 7246TIP3   OH243152   0.148   1.557  12.969 -0.1553 -0.1263  0.2865
 7246TIP3    H143153   0.082   1.504  13.014 -0.1723  0.8012  1.3898
 7246TIP3    H243154   0.104   1.589  12.890 -1.0413  0.4733  1.0084
 7247TIP3   OH243155   3.393   1.900  15.426 -0.3157  0.6899  0.3314
 7247TIP3    H143156   3.489   1.900  15.429 -0.3066  2.3373  0.6984
 7247TIP3    H243157   3.367   1.880  15.516 -0.2961  1.8213  0.5967
 7248TIP3   OH243158   7.199   1.813   0.342 -0.3189  0.3592  0.0182
 7248TIP3    H143159   7.124   1.778   0.295 -0.0479 -0.8107  0.4355
 7248TIP3    H243160   7.269   1.816   0.276 -0.1530 -0.5338  0.1582
 7249TIP3   OH243161   0.552   3.040  11.757  0.3665 -0.3889  0.1928
 7249TIP3    H143162   0.585   2.982  11.826 -0.7266 -0.3383  0.7671
 7249TIP3    H243163   0.611   3.025  11.683 -1.4106 -4.1745 -0.5711
 7250TIP3   OH243164   5.987   2.159  14.570 -0.0258  0.5983 -0.2413
 7250TIP3    H143165   6.081   2.165  14.584 -0.3833  0.4924  2.4407
 7250TIP3    H243166   5.975   2.072  14.530  0.9497  0.4345 -0.1996
 7251TIP3   OH243167   0.588   0.715  15.097 -0.3142  0.5010 -0.7887
 7251TIP3    H143168   0.649   0.702  15.169  0.0442 -2.3337 -1.5464
 7251TIP3    H243169   0.619   0.795  15.054  1.2748  0.5436  0.3828
 7252TIP3   OH243170   0.131   0.360  11.078 -0.1002  0.3267 -0.4550
 7252TIP3    H143171   0.161   0.287  11.025  3.4794  1.6341 -0.3565
 7252TIP3    H243172   0.171   0.345  11.164 -1.4401  1.0749  0.3156
 7253TIP3   OH243173   0.775   3.887   0.350 -0.1231  0.1256 -0.2278
 7253TIP3    H143174   0.714   3.825   0.310  0.0228  0.3716 -0.8404
 7253TIP3    H243175   0.771   3.867   0.444 -1.2694  0.2593 -0.2378
 7254TIP3   OH243176   1.118   0.624  13.562 -0.0462 -0.2552  0.2527
 7254TIP3    H143177   1.186   0.689  13.582 -1.2773  0.8572  0.9651
 7254TIP3    H243178   1.136   0.597  13.472  0.5303  1.0510 -0.0404
 7255TIP3   OH243179   6.421   0.019  11.826  0.1591  0.2031  0.1336
 7255TIP3    H143180   6.349   0.081  11.837 -0.0833 -0.1172  0.3336
 7255TIP3    H243181   6.452   0.034  11.737 -0.8342 -0.3937 -0.3142
 7256TIP3   OH243182   4.533   4.510  15.215  0.4636 -0.6584 -0.1991
 7256TIP3    H143183   4.617   4.536  15.177  0.6386 -2.0795 -0.7900
 7256TIP3    H243184   4.518   4.573  15.285  1.1041  0.7729 -1.3148
 7257TIP3   OH243185   1.556   1.686  12.824 -0.9611 -0.1377 -0.0005
 7257TIP3    H143186   1.589   1.597  12.807 -1.0593  0.0536 -1.2663
 7257TIP3    H243187   1.467   1.672  12.856 -1.1662 -0.4802 -0.7042
 7258TIP3   OH243188   3.357   5.620  13.410  0.5797 -0.1171  0.1384
 7258TIP3    H143189   3.292   5.689  13.420  0.8200  0.1470 -0.1082
 7258TIP3    H243190   3.441   5.665  13.414  0.7235 -0.3039 -0.6909
 7259TIP3   OH243191   1.446   5.428  15.490  0.2700  0.3168  0.0459
 7259TIP3    H143192   1.378   5.367  15.520  2.6909 -2.2234  0.5892
 7259TIP3    H243193   1.526   5.398  15.534  2.5059  0.9429 -3.3725
 7260TIP3   OH243194   2.828   3.353  13.893 -0.3863 -0.2427 -0.1047
 7260TIP3    H143195   2.790   3.401  13.819 -0.8899 -0.3683  0.0705
 7260TIP3    H243196   2.817   3.411  13.968  2.9924  1.2544 -0.6776
 7261TIP3   OH243197   3.598   3.251  10.248 -0.3731  0.0294 -0.4555
 7261TIP3    H143198   3.532   3.308  10.287  0.4406  0.0711  0.8952
 7261TIP3    H243199   3.550   3.199  10.183 -1.4641  0.9892 -0.4315
 7262TIP3   OH243200   2.393   1.817   0.542 -0.6710 -0.3955  0.0134
 7262TIP3    H143201   2.307   1.802   0.581 -0.6562  0.9380  0.5969
 7262TIP3    H243202   2.436   1.878   0.602  0.3422 -0.3733 -0.7303
 7263TIP3   OH243203   2.350   7.009  12.700  0.3737  0.6870  0.0739
 7263TIP3    H143204   2.297   6.995  12.778 -0.0158 -0.9063 -0.4647
 7263TIP3    H243205   2.438   7.028  12.734  0.4800 -1.1499  0.9101
 7264TIP3   OH243206   4.497   0.997   0.229  0.2024 -0.5314  0.5328
 7264TIP3    H143207   4.533   0.922   0.276 -0.8128 -1.2706  0.1361
 7264TIP3    H243208   4.408   0.971   0.207  0.7659 -0.3314 -2.1266
 7265TIP3   OH243209   2.479   4.745  14.339  0.1687  0.2741  0.6942
 7265TIP3    H143210   2.493   4.701  14.255  1.6491  0.7414  0.6852
 7265TIP3    H243211   2.522   4.829  14.330 -2.3115  1.6190  0.8638
 7266TIP3   OH243212   6.304   2.339  15.137 -0.2556  0.5103 -0.5774
 7266TIP3    H143213   6.391   2.378  15.147  0.1980 -0.5076 -0.4317
 7266TIP3    H243214   6.278   2.359  15.047  1.0726 -1.0244 -1.3267
 7267TIP3   OH243215   2.538   2.289   0.709  0.1449  0.4226 -0.4058
 7267TIP3    H143216   2.548   2.273   0.615  1.7349  2.7169 -0.6808
 7267TIP3    H243217   2.616   2.249   0.749  0.7435  1.5905 -0.3702
 7268TIP3   OH243218   0.272   1.978  13.813 -0.4363  0.8175  0.2978
 7268TIP3    H143219   0.203   2.024  13.861 -0.8175  0.4205  0.1362
 7268TIP3    H243220   0.225   1.927  13.748 -0.1001 -0.6510  1.1810
 7269TIP3   OH243221   1.381   3.670   2.258  0.0083  0.2305 -0.2434
 7269TIP3    H143222   1.410   3.636   2.343 -0.4287  0.4471 -0.0063
 7269TIP3    H243223   1.357   3.592   2.208 -1.9441  0.2453  0.6552
 7270TIP3   OH243224   3.648   1.796  15.475 -0.0663  0.7044 -0.0117
 7270TIP3    H143225   3.713   1.779  15.543 -0.1384  1.2559  0.1953
 7270TIP3    H243226   3.630   1.710  15.438 -1.4342  0.1203  1.9366
 7271TIP3   OH243227   6.249   3.576  13.394  0.3177 -0.4403 -0.2972
 7271TIP3    H143228   6.262   3.482  13.400 -1.6247 -0.8857 -2.5648
 7271TIP3    H243229   6.313   3.613  13.455  1.9756 -3.1502 -0.3362
 7272TIP3   OH243230   7.141   6.652  15.712  0.2754  0.6427  0.4084
 7272TIP3    H143231   7.128   6.666  15.618 -1.5043 -1.0282  0.3751
 7272TIP3    H243232   7.227   6.610  15.719  0.8348  1.6285 -0.3661
 7273TIP3   OH243233   7.121   0.552   1.158 -0.4711 -0.3775  0.3421
 7273TIP3    H143234   7.066   0.591   1.090 -1.3112  1.6993  2.1402
 7273TIP3    H243235   7.062   0.492   1.203 -1.3733  1.8616  2.2806
 7274TIP3   OH243236   7.296   6.579  13.574  0.1113  0.3570  0.4146
 7274TIP3    H143237   7.335   6.524  13.642 -0.2509 -0.5312 -0.0902
 7274TIP3    H243238   7.251   6.517  13.516 -1.5848  1.3188  0.6815
 7275TIP3   OH243239   1.852   0.395  15.194  0.9721  0.3514 -0.0284
 7275TIP3    H143240   1.929   0.384  15.250  1.1053  1.9653  0.1276
 7275TIP3    H243241   1.831   0.488  15.200 -0.5303  0.0684 -0.6899
 7276TIP3   OH243242   5.729   3.358  15.661 -0.1003 -0.0849 -0.3960
 7276TIP3    H143243   5.816   3.348  15.621  0.0692  0.8171 -0.2708
 7276TIP3    H243244   5.704   3.270  15.687  1.3839 -0.1497  0.8220
 7277TIP3   OH243245   2.504   4.043  14.018 -0.3005 -0.2088  0.3732
 7277TIP3    H143246   2.564   4.112  14.047 -0.1991 -0.1530  0.0355
 7277TIP3    H243247   2.510   4.045  13.922 -0.0912 -0.8625  0.3723
 7278TIP3   OH243248   2.767   5.643   0.157  0.0851  0.4986 -0.0079
 7278TIP3    H143249   2.801   5.732   0.163  1.4002  0.1833 -2.3738
 7278TIP3    H243250   2.725   5.639   0.071 -0.3702 -1.0329  0.2704
 7279TIP3   OH243251   7.258   4.168  13.893 -0.0670 -0.4995  0.1909
 7279TIP3    H143252   7.220   4.214  13.818  0.3932  2.8966  1.9701
 7279TIP3    H243253   7.319   4.105  13.854 -1.2191 -0.1376 -2.3321
 7280TIP3   OH243254   4.911   3.681   0.216  0.3962  0.1481 -0.1575
 7280TIP3    H143255   4.851   3.646   0.282  1.6079 -1.5347  0.0951
 7280TIP3    H243256   4.867   3.759   0.182 -0.9662  0.1315  1.5055
 7281TIP3   OH243257   0.853   3.643  13.361 -0.3671 -0.5947 -0.4591
 7281TIP3    H143258   0.829   3.569  13.417  0.1746  1.6432  2.8405
 7281TIP3    H243259   0.783   3.647  13.296 -1.6886 -2.5075  0.8019
 7282TIP3   OH243260   4.096   1.517  14.482  0.3225 -0.6698 -0.1496
 7282TIP3    H143261   4.037   1.592  14.471 -0.1489 -0.7996  1.4645
 7282TIP3    H243262   4.056   1.465  14.551  2.6138 -0.4604  1.3783
 7283TIP3   OH243263   1.704   1.685  15.208  0.7493 -0.1755  0.0359
 7283TIP3    H143264   1.745   1.688  15.121  0.5970  0.3531 -0.0210
 7283TIP3    H243265   1.653   1.766  15.212  0.8249 -0.1624  0.6534
 7284TIP3   OH243266   5.779   4.518  15.507  0.2830  0.5188 -0.3681
 7284TIP3    H143267   5.807   4.447  15.565 -0.3013  1.3482  0.9334
 7284TIP3    H243268   5.841   4.514  15.434  1.3178 -0.2405  0.5313
 7285TIP3   OH243269   1.642   1.664   0.569  0.3669  0.4270  0.4194
 7285TIP3    H143270   1.686   1.658   0.484 -0.2210 -2.1079  0.2457
 7285TIP3    H243271   1.712   1.674   0.633  0.7833  2.9240 -0.3794
 7286TIP3   OH243272   0.254   1.073  14.969 -0.2643 -0.9192 -0.9134
 7286TIP3    H143273   0.208   0.989  14.962  0.4888 -1.3964 -0.2095
 7286TIP3    H243274   0.341   1.055  14.932 -0.2228 -0.3630 -1.0797
 7287TIP3   OH243275   6.007   1.734  14.006 -0.3976 -0.4588  0.3162
 7287TIP3    H143276   6.035   1.657  13.957  1.3609 -0.2234  0.9042
 7287TIP3    H243277   5.946   1.700  14.072  0.1509 -1.3160  0.3862
 7288TIP3   OH243278   0.474   6.316   1.140  0.4285  0.0072  0.4700
 7288TIP3    H143279   0.488   6.320   1.046 -0.1498 -1.9507  0.2748
 7288TIP3    H243280   0.389   6.358   1.155  0.6024  0.4727  0.1506
 7289TIP3   OH243281   5.062   1.431  15.113  0.4791 -0.2959  0.2557
 7289TIP3    H143282   5.151   1.426  15.148  0.9066 -1.1994 -0.9447
 7289TIP3    H243283   5.047   1.345  15.073 -0.2544  0.4874 -1.1665
 7290TIP3   OH243284   4.735   3.002  15.731  0.2951 -0.1992 -0.3089
 7290TIP3    H143285   4.817   3.004  15.681 -0.3683 -1.7955 -1.5095
 7290TIP3    H243286   4.720   3.094  15.755 -0.5125  1.0270 -5.0340
 7291TIP3   OH243287   0.604   5.185  12.184  0.0446 -0.0406 -0.4266
 7291TIP3    H143288   0.641   5.100  12.159  0.7503  0.7337 -2.1056
 7291TIP3    H243289   0.680   5.236  12.212 -0.3021  0.2325  0.0091
 7292TIP3   OH243290   1.903   6.070  14.840  0.5734  0.5611 -0.2578
 7292TIP3    H143291   1.897   6.137  14.908  0.2478  0.2690  0.0003
 7292TIP3    H243292   1.816   6.031  14.837  1.0449 -0.5418  0.2923
 7293TIP3   OH243293   0.657   4.706   0.492 -0.0059  0.4156  0.5994
 7293TIP3    H143294   0.710   4.749   0.558  1.3556 -1.2595  0.6206
 7293TIP3    H243295   0.675   4.613   0.502 -1.5123 -0.0477 -0.6357
 7294TIP3   OH243296   6.356   4.864   2.338 -0.0128  0.8056  0.3217
 7294TIP3    H143297   6.362   4.889   2.246 -0.8563  1.0053  0.3201
 7294TIP3    H243298   6.265   4.838   2.351 -0.0373  1.3146  1.2397
 7295TIP3   OH243299   3.483   5.143  14.267  0.4589 -0.2041  0.5626
 7295TIP3    H143300   3.397   5.138  14.225  0.2988 -0.5088  0.9266
 7295TIP3    H243301   3.503   5.053  14.293  0.5183 -0.0069  1.2126
 7296TIP3   OH243302   3.605   6.681   4.615 -0.1757  0.3190 -0.0261
 7296TIP3    H143303   3.602   6.776   4.603  1.6950  0.4588  0.3967
 7296TIP3    H243304   3.688   6.666   4.659  0.0812 -1.6372 -1.1295
 7297TIP3   OH243305   1.381   4.129   3.002  0.1189  1.0107 -0.4756
 7297TIP3    H143306   1.416   4.208   3.043 -1.0740  0.7871  1.0501
 7297TIP3    H243307   1.413   4.057   3.056  0.6073  0.4990 -1.4338
 7298TIP3   OH243308   7.287   5.320  15.890 -0.3913 -0.0415 -0.3564
 7298TIP3    H143309   7.279   5.288  15.800  1.5806  1.0759 -0.9705
 7298TIP3    H243310   7.267   5.414  15.884  0.4347  0.1843  0.2316
 7299TIP3   OH243311   1.026   1.463  12.241  0.4623 -0.7351  0.4905
 7299TIP3    H143312   0.942   1.497  12.272  1.1377  0.1383  1.4148
 7299TIP3    H243313   1.029   1.487  12.149  1.2855  2.5840  1.3074
 7300TIP3   OH243314   7.034   1.510  15.287  0.2537 -0.7170 -0.3165
 7300TIP3    H143315   7.071   1.548  15.208  1.0887 -0.1435  0.3401
 7300TIP3    H243316   6.945   1.485  15.263 -0.0109  0.8414 -1.0120
 7301TIP3   OH243317   1.479   5.691  14.234  0.0166  0.6133 -0.0074
 7301TIP3    H143318   1.493   5.729  14.147 -0.0908  0.8378  0.0731
 7301TIP3    H243319   1.384   5.687  14.244  0.0288  0.5658  0.0917
 7302TIP3   OH243320   0.312   4.640   2.335  0.1497 -0.1398  0.3922
 7302TIP3    H143321   0.283   4.657   2.424  0.6069  0.7367  0.3782
 7302TIP3    H243322   0.303   4.545   2.324 -1.1682 -0.0728  0.9172
 7303TIP3   OH243323   1.207   1.490  14.405  0.4001  0.2085 -0.2423
 7303TIP3    H143324   1.240   1.420  14.349  0.5569 -0.8272  1.0928
 7303TIP3    H243325   1.116   1.503  14.377  0.5162 -0.2119 -0.8095
 7304TIP3   OH243326   4.547   2.333  12.438  0.8169 -0.6448 -0.0240
 7304TIP3    H143327   4.609   2.405  12.425  0.8985 -0.8571 -0.8678
 7304TIP3    H243328   4.557   2.280  12.359 -2.0492  0.5129 -1.2405
 7305TIP3   OH243329   1.831   2.943   0.686  0.3818 -0.5559  0.3775
 7305TIP3    H143330   1.924   2.928   0.703  0.7588 -0.3228 -1.3769
 7305TIP3    H243331   1.820   2.923   0.593 -0.9633  1.1307  0.1557
 7306TIP3   OH243332   6.829   4.159   0.414 -0.1697  0.4898 -0.6721
 7306TIP3    H143333   6.902   4.098   0.426 -0.6546  0.2934  1.4774
 7306TIP3    H243334   6.753   4.102   0.399 -0.7155  0.4985  1.8460
 7307TIP3   OH243335   1.162   5.392   0.687  0.2450  0.1214  0.0326
 7307TIP3    H143336   1.191   5.306   0.656 -0.4205  0.1868 -0.8087
 7307TIP3    H243337   1.192   5.452   0.619  0.2913  0.4895  0.3832
 7308TIP3   OH243338   0.796   6.407  13.340  0.2144  0.1655  0.2254
 7308TIP3    H143339   0.768   6.450  13.421  1.9481  1.6640  0.0729
 7308TIP3    H243340   0.716   6.399  13.288 -0.7637 -0.0272  1.7207
 7309TIP3   OH243341   7.119   2.607  14.166  0.6596 -0.0762 -0.3204
 7309TIP3    H143342   7.199   2.611  14.218 -0.1781 -1.1806  1.0603
 7309TIP3    H243343   7.048   2.615  14.229 -0.3620 -1.2424 -1.3036
 7310TIP3   OH243344   4.752   6.230   0.880 -0.0669  0.1383  0.4127
 7310TIP3    H143345   4.733   6.140   0.904  1.9621 -0.5231 -0.3658
 7310TIP3    H243346   4.793   6.268   0.958  1.0896 -0.2698  0.0127
 7311TIP3   OH243347   1.779   1.059  13.828  0.2877 -0.3665 -0.5733
 7311TIP3    H143348   1.820   0.984  13.870  0.1003 -1.9837 -3.1335
 7311TIP3    H243349   1.846   1.092  13.768  0.1070  1.0440 -0.0144
 7312TIP3   OH243350   7.050   2.910  14.806  0.1574  1.1129  0.1977
 7312TIP3    H143351   7.065   2.956  14.723 -0.2455 -1.0564 -1.1255
 7312TIP3    H243352   6.954   2.901  14.811  0.2659 -0.2752  0.0169
 7313TIP3   OH243353   6.218   0.739  12.445  0.0404 -0.0971 -0.1735
 7313TIP3    H143354   6.183   0.670  12.502  0.2771 -0.3046 -0.2797
 7313TIP3    H243355   6.210   0.819  12.497  0.3098 -0.2942  0.1790
 7314TIP3   OH243356   0.824   6.720   3.221  0.6103  0.2503  0.3543
 7314TIP3    H143357   0.796   6.733   3.131  0.3406 -0.3354  0.3472
 7314TIP3    H243358   0.760   6.769   3.273 -0.4479 -1.0546  0.3348
 7315TIP3   OH243359   6.761   1.512  11.275 -0.1959  0.2311  0.2259
 7315TIP3    H143360   6.690   1.570  11.301 -0.5550 -0.7764  1.5329
 7315TIP3    H243361   6.747   1.498  11.181 -0.9482  1.0809  0.2059
 7316TIP3   OH243362   0.478   5.877  13.451 -0.3227 -0.0993  0.1360
 7316TIP3    H143363   0.397   5.827  13.444  1.2443 -2.7907  0.4193
 7316TIP3    H243364   0.543   5.813  13.481  2.3548  1.5306 -1.9919
 7317TIP3   OH243365   6.036   6.127  14.842 -0.0182  0.0248 -0.5355
 7317TIP3    H143366   5.960   6.185  14.843  0.4547  0.6289  0.3390
 7317TIP3    H243367   5.999   6.039  14.829 -1.0350  0.0529  1.9872
 7318TIP3   OH243368   6.433   3.198   3.730  0.5172  0.4295  0.1565
 7318TIP3    H143369   6.522   3.168   3.715 -0.1943 -0.9934 -1.4243
 7318TIP3    H243370   6.405   3.232   3.644 -1.4371 -1.8046 -0.1301
 7319TIP3   OH243371   0.606   1.926  10.371 -0.3931  0.1100 -0.0710
 7319TIP3    H143372   0.595   2.012  10.330 -0.2639 -0.5326 -1.5053
 7319TIP3    H243373   0.551   1.868  10.319 -1.2597 -0.5108  1.5074
 7320TIP3   OH243374   7.007   4.223  13.995  0.0103  0.2971  0.2789
 7320TIP3    H143375   7.087   4.188  13.954  0.8141  1.4534  0.8483
 7320TIP3    H243376   6.948   4.147  13.999  0.1817 -0.0460 -2.2978
 7321TIP3   OH243377   2.174   6.697  15.194 -0.0699  0.5100 -0.6175
 7321TIP3    H143378   2.189   6.611  15.233  0.6714  0.5916 -0.7208
 7321TIP3    H243379   2.254   6.746  15.214 -1.3114  1.8456  1.2530
 7322TIP3   OH243380   4.613   2.049  14.449 -0.1864 -0.6834  0.0811
 7322TIP3    H143381   4.693   2.100  14.437  0.1854 -0.9047  1.4694
 7322TIP3    H243382   4.643   1.959  14.460 -0.6082 -0.7481  0.7428
 7323TIP3   OH243383   2.263   3.803   1.607  0.2786 -0.5779 -0.1801
 7323TIP3    H143384   2.281   3.743   1.680  0.3651 -1.5163 -0.9670
 7323TIP3    H243385   2.341   3.799   1.552  0.2806  0.2565 -0.2504
 7324TIP3   OH243386   2.606   3.256  15.077 -0.2734  0.0276  0.4320
 7324TIP3    H143387   2.609   3.321  15.007  1.2124  0.3410  0.7635
 7324TIP3    H243388   2.673   3.192  15.053 -2.0223 -1.6168 -0.1143
 7325TIP3   OH243389   5.627   2.710   2.072  0.2472 -0.0143  0.2926
 7325TIP3    H143390   5.593   2.752   1.993  1.3869 -1.2035 -0.8495
 7325TIP3    H243391   5.720   2.732   2.073  0.5745 -1.3768  0.4195
 7326TIP3   OH243392   1.434   5.465   2.208  0.4019  0.0883  0.4876
 7326TIP3    H143393   1.353   5.496   2.168  1.1036 -0.7245 -1.6848
 7326TIP3    H243394   1.494   5.539   2.201  0.0995  0.4056  1.2982
 7327TIP3   OH243395   5.223   4.716   1.326  0.3980 -0.1788  0.1383
 7327TIP3    H143396   5.312   4.736   1.357  0.0192  1.0666  0.4575
 7327TIP3    H243397   5.166   4.769   1.382 -0.5187 -0.5874 -0.4015
 7328TIP3   OH243398   0.186   4.786  12.933  0.1936  0.0793  0.1068
 7328TIP3    H143399   0.187   4.792  12.838 -0.7635  0.5997  0.1285
 7328TIP3    H243400   0.219   4.871  12.963  2.3991 -0.7858  0.2305
 7329TIP3   OH243401   3.839   2.675  14.476 -0.0261 -0.2885  0.2451
 7329TIP3    H143402   3.848   2.747  14.413  2.5199 -0.4373  0.3577
 7329TIP3    H243403   3.794   2.715  14.550 -1.3535  0.3899 -0.9010
 7330TIP3   OH243404   3.775   4.027  14.903 -0.0565  0.2351 -0.1902
 7330TIP3    H143405   3.788   3.938  14.935 -0.0867  0.0986 -0.5555
 7330TIP3    H243406   3.689   4.053  14.937  0.1806  0.3139  0.3503
 7331TIP3   OH243407   2.012   3.069  15.819  0.4035 -0.0139 -0.3136
 7331TIP3    H143408   1.938   3.060  15.760  0.7675  1.0503 -0.9302
 7331TIP3    H243409   2.047   3.156  15.802 -0.3888  0.9319  2.4961
 7332TIP3   OH243410   7.231   2.028   0.500  0.6761 -0.0049 -0.2609
 7332TIP3    H143411   7.192   1.981   0.575  0.9129  0.0422 -0.1084
 7332TIP3    H243412   7.216   1.970   0.426 -3.3003  1.7555 -0.9915
 7333TIP3   OH243413   0.219   3.099  13.465 -0.0514  0.0042 -0.7808
 7333TIP3    H143414   0.219   3.004  13.473 -0.0897 -0.1143 -2.1476
 7333TIP3    H243415   0.308   3.125  13.486 -0.0022 -0.3419 -0.5630
 7334TIP3   OH243416   2.360   3.331  13.225  0.2326  0.3334 -0.1091
 7334TIP3    H143417   2.337   3.417  13.190 -1.9825  0.8351  2.3224
 7334TIP3    H243418   2.412   3.350  13.303 -0.2650 -0.4838  0.4385
 7335TIP3   OH243419   0.679   5.741  14.524  0.3393  0.2336 -0.2281
 7335TIP3    H143420   0.758   5.691  14.541 -0.3795 -1.1811 -0.9412
 7335TIP3    H243421   0.651   5.773  14.610  0.8773 -0.4808  0.2137
 7336TIP3   OH243422   1.448   4.632  14.855  0.1279 -0.1472 -0.3145
 7336TIP3    H143423   1.509   4.690  14.809  0.4670 -1.2951 -1.3734
 7336TIP3    H243424   1.502   4.558  14.883 -0.7870 -1.2897 -1.4635
 7337TIP3   OH243425   1.712   4.315  12.784 -0.2354  0.3226 -0.7384
 7337TIP3    H143426   1.798   4.300  12.825  0.4109  0.1497 -2.1505
 7337TIP3    H243427   1.657   4.346  12.856  1.2650  1.3472 -0.0007
 7338TIP3   OH243428   6.327   6.706   4.233 -0.4917 -0.4443 -0.3314
 7338TIP3    H143429   6.264   6.753   4.178 -1.1115 -1.1935 -0.2707
 7338TIP3    H243430   6.384   6.774   4.269 -0.5680  0.1246 -1.2876
 7339TIP3   OH243431   2.966   1.926  15.443 -0.0083 -0.0432  0.6573
 7339TIP3    H143432   3.034   1.951  15.380  0.6044  0.2616  1.4346
 7339TIP3    H243433   2.976   1.988  15.515  0.2553 -1.3117  1.7216
 7340TIP3   OH243434   0.390   3.573  12.128  0.0561 -0.4182  0.3713
 7340TIP3    H143435   0.378   3.554  12.221 -2.8516  1.3527  0.4183
 7340TIP3    H243436   0.301   3.585  12.095  1.2126  2.2135 -1.9257
 7341TIP3   OH243437   3.264   4.396  13.059  0.5395 -0.5018 -0.3804
 7341TIP3    H143438   3.202   4.416  13.129  1.3476  0.1827  0.1408
 7341TIP3    H243439   3.255   4.468  12.997 -0.8904 -1.5938 -1.5084
 7342TIP3   OH243440   4.710   6.111  10.511  0.3687 -0.2806  0.4302
 7342TIP3    H143441   4.777   6.140  10.449  1.4391 -2.3460  0.5736
 7342TIP3    H243442   4.635   6.168  10.493  1.1977  0.2122 -1.6890
 7343TIP3   OH243443   3.908   5.665  14.256  0.5777  0.1437  0.3624
 7343TIP3    H143444   3.954   5.598  14.307 -0.5892  0.7984  2.2930
 7343TIP3    H243445   3.918   5.745  14.306 -0.9482  0.7186 -0.2398
 7344TIP3   OH243446   2.782   1.068  14.640  0.2470  0.4020 -0.1631
 7344TIP3    H143447   2.727   1.127  14.589 -1.9652 -1.5695 -0.1240
 7344TIP3    H243448   2.770   1.095  14.731 -1.9153 -1.0057 -0.0108
 7345TIP3   OH243449   2.950   2.869  14.032  0.0048  0.4002  0.6196
 7345TIP3    H143450   2.974   2.956  13.999  1.8017  0.1368  1.1570
 7345TIP3    H243451   2.903   2.886  14.113 -0.7313  0.9145  0.0903
 7346TIP3   OH243452   6.062   1.889  13.777  0.4462  0.3062 -0.3353
 7346TIP3    H143453   6.054   1.849  13.864 -2.2129  0.5861 -0.4035
 7346TIP3    H243454   6.081   1.815  13.719 -0.3171 -0.2512  0.1175
 7347TIP3   OH243455   7.039   4.015   0.896  0.4835 -0.0146 -0.4936
 7347TIP3    H143456   7.065   4.106   0.910  0.3059 -0.1415  0.7297
 7347TIP3    H243457   6.944   4.015   0.910  0.6498 -0.6036  0.7292
 7348TIP3   OH243458   3.820   2.790  11.741  0.4527  0.1143 -0.5502
 7348TIP3    H143459   3.794   2.728  11.809 -0.9301  0.5516 -0.6730
 7348TIP3    H243460   3.815   2.740  11.659 -0.2256  0.2593 -0.5985
 7349TIP3   OH243461   5.475   3.953   0.608 -0.5899 -0.0156 -0.4562
 7349TIP3    H143462   5.476   3.884   0.675 -2.1234  1.6005  1.2899
 7349TIP3    H243463   5.426   3.915   0.535 -1.3424 -0.8188  0.4470
 7350TIP3   OH243464   6.490   3.475   0.157 -0.0025  0.5708  0.5383
 7350TIP3    H143465   6.436   3.511   0.227 -1.9292  0.1899 -0.6991
 7350TIP3    H243466   6.429   3.463   0.084  1.3587 -1.7230 -0.2672
 7351TIP3   OH243467   4.948   2.645   0.442 -0.5036 -0.0443  0.0633
 7351TIP3    H143468   4.904   2.692   0.512 -1.3876 -0.3198 -0.3069
 7351TIP3    H243469   4.888   2.575   0.417  0.1327 -0.4243 -0.4469
 7352TIP3   OH243470   6.184   3.128  13.662 -0.0331 -0.1226 -0.1492
 7352TIP3    H143471   6.214   3.066  13.596  1.0032  1.2723 -1.0112
 7352TIP3    H243472   6.234   3.107  13.740 -0.6977 -1.2793 -0.0382
 7353TIP3   OH243473   1.530   5.733  13.133 -0.3146  0.6593 -0.1418
 7353TIP3    H143474   1.452   5.768  13.089  0.1232 -0.6218 -1.9451
 7353TIP3    H243475   1.495   5.688  13.210 -1.3609  0.2158 -0.8610
 7354TIP3   OH243476   0.522   4.125   1.955 -0.3857  0.7180  0.3892
 7354TIP3    H143477   0.616   4.108   1.958 -0.2607  1.1007 -0.9336
 7354TIP3    H243478   0.515   4.216   1.924 -1.1802  0.8038  0.8118
 7355TIP3   OH243479   5.577   3.389  11.341  0.0951 -0.1237 -0.2646
 7355TIP3    H143480   5.666   3.424  11.337  0.1545 -0.3569 -0.9621
 7355TIP3    H243481   5.588   3.299  11.370 -0.0378  0.3134  1.2142
 7356TIP3   OH243482   7.255   3.384  14.517 -0.2683  0.5557  0.2407
 7356TIP3    H143483   7.322   3.320  14.495 -1.2536  0.1083 -1.5437
 7356TIP3    H243484   7.254   3.386  14.613  0.7386 -1.0704  0.2964
 7357TIP3   OH243485   2.369   3.665  15.254 -0.2464  0.0199  0.4357
 7357TIP3    H143486   2.401   3.644  15.167  1.3163  1.8246  0.5273
 7357TIP3    H243487   2.275   3.678  15.243  0.1447  1.5740 -1.2682
 7358TIP3   OH243488   1.219   6.347  15.030  0.3395 -0.7596  0.1265
 7358TIP3    H143489   1.260   6.433  15.039 -0.4830 -0.4209  0.8083
 7358TIP3    H243490   1.166   6.338  15.110  0.9472 -2.1876  0.3692
 7359TIP3   OH243491   4.977   3.039   1.036 -0.5334  0.0655 -0.4348
 7359TIP3    H143492   5.054   3.006   0.990 -0.0180  0.5191  0.0952
 7359TIP3    H243493   5.012   3.092   1.107 -1.3447  0.7586 -0.5388
 7360TIP3   OH243494   0.186   2.115  15.346  0.1759  0.3165  0.2857
 7360TIP3    H143495   0.223   2.078  15.427  0.8297  2.7724  1.1540
 7360TIP3    H243496   0.180   2.209  15.363 -1.7557  0.6051 -1.7379
 7361TIP3   OH243497   5.917   0.953  14.681  0.4212 -0.5406 -0.1067
 7361TIP3    H143498   5.985   1.006  14.640 -0.2867 -0.9141 -1.8126
 7361TIP3    H243499   5.865   0.920  14.607 -1.7899 -0.0135  1.1802
 7362TIP3   OH243500   3.742   6.817  14.498 -0.7137 -0.8080 -0.2497
 7362TIP3    H143501   3.706   6.903  14.521  0.7596 -0.0929 -0.5976
 7362TIP3    H243502   3.777   6.829  14.410  4.2078 -0.2817  1.6506
 7363TIP3   OH243503   0.367   4.309  13.228  0.1875  0.2111  0.4859
 7363TIP3    H143504   0.339   4.396  13.197 -2.1499 -0.4350  0.7136
 7363TIP3    H243505   0.298   4.250  13.199  1.1749 -1.4075  1.3699
 7364TIP3   OH243506   5.996   4.057  15.410  0.3326 -0.2728  0.2416
 7364TIP3    H143507   6.046   4.132  15.441  0.1562  1.0625 -2.5668
 7364TIP3    H243508   6.035   4.036  15.325 -0.3454 -2.6879  0.4872
 7365TIP3   OH243509   1.558   4.817  14.017 -0.0458  0.0544 -0.3265
 7365TIP3    H143510   1.639   4.784  14.054 -0.6564 -1.5096 -0.3485
 7365TIP3    H243511   1.526   4.746  13.961 -1.1306  0.8757 -0.7782
 7366TIP3   OH243512   2.631   3.561   0.101  0.2334 -1.0358 -0.1280
 7366TIP3    H143513   2.613   3.561   0.007  2.7013 -2.5128 -0.6515
 7366TIP3    H243514   2.694   3.631   0.113 -0.9438 -0.0905  0.6382
 7367TIP3   OH243515   7.074   4.471  14.046  0.3835  0.1722 -0.0836
 7367TIP3    H143516   6.997   4.522  14.021  0.6556  0.5174 -0.2171
 7367TIP3    H243517   7.046   4.380  14.039 -0.1772  0.3017  0.3822
 7368TIP3   OH243518   0.963   3.388   1.913 -0.1494 -0.0833 -0.1260
 7368TIP3    H143519   0.902   3.322   1.947 -0.2878 -0.6317 -1.4065
 7368TIP3    H243520   1.048   3.343   1.914  0.2049  0.5801  1.3768
 7369TIP3   OH243521   6.744   2.092  13.564 -0.0027  0.5880  0.1486
 7369TIP3    H143522   6.691   2.159  13.520 -0.5164 -0.4293 -0.8089
 7369TIP3    H243523   6.817   2.077  13.504 -0.2250 -0.1599  0.0588
 7370TIP3   OH243524   4.337   3.918  13.457 -0.4350 -0.5357 -0.2631
 7370TIP3    H143525   4.246   3.933  13.479 -0.1367 -1.5599  1.8088
 7370TIP3    H243526   4.359   3.834  13.499  1.9870  0.6694  1.0484
 7371TIP3   OH243527   2.718   3.693   2.058 -0.2990 -0.0262 -0.0046
 7371TIP3    H143528   2.792   3.633   2.058 -0.0887  0.2321 -1.8683
 7371TIP3    H243529   2.718   3.731   2.146  0.5661 -1.4946  0.6500
 7372TIP3   OH243530   3.625   3.366   1.536  0.0906  0.5361 -1.1050
 7372TIP3    H143531   3.694   3.424   1.504  1.6421  0.6307  2.2352
 7372TIP3    H243532   3.584   3.415   1.607 -1.7137 -0.5799 -1.3456
 7373TIP3   OH243533   0.754   1.657  11.891 -0.0175 -1.0844  0.5643
 7373TIP3    H143534   0.702   1.638  11.969 -0.8022 -0.3477  0.2303
 7373TIP3    H243535   0.845   1.656  11.921 -0.4429  1.7335  2.0276
 7374TIP3   OH243536   5.154   3.276   0.777  0.0207  0.3250  0.1570
 7374TIP3    H143537   5.169   3.345   0.841 -2.3253  0.1165  0.9895
 7374TIP3    H243538   5.233   3.275   0.723  2.2797  0.1702  3.3501
 7375TIP3   OH243539   3.436   5.427  14.079 -0.1862 -0.0579 -0.2699
 7375TIP3    H143540   3.506   5.451  14.018 -0.2672  0.1738 -0.2707
 7375TIP3    H243541   3.396   5.349  14.040  0.3881 -0.4810 -0.0180
 7376TIP3   OH243542   0.042   3.646  12.317  0.7905 -1.0182 -0.8009
 7376TIP3    H143543  -0.004   3.563  12.329 -0.2444 -0.3420 -0.0448
 7376TIP3    H243544   0.051   3.682  12.406 -1.7209  1.2444 -1.4039
 7377TIP3   OH243545   0.438   2.228   0.588  0.5327 -0.2663  0.2809
 7377TIP3    H143546   0.466   2.161   0.650 -1.9760 -1.5285  0.1479
 7377TIP3    H243547   0.422   2.306   0.641 -0.6135 -1.0436  1.1164
 7378TIP3   OH243548   6.694   2.281  15.808  0.6604 -0.8427  0.2673
 7378TIP3    H143549   6.670   2.337  15.733 -0.9446  1.1164  2.1675
 7378TIP3    H243550   6.611   2.255  15.846  1.4672 -0.3804  2.3946
 7379TIP3   OH243551   7.289   1.462  14.437 -0.0521  0.2121 -0.3388
 7379TIP3    H143552   7.383   1.465  14.455  0.1449 -1.7488 -0.8705
 7379TIP3    H243553   7.275   1.526  14.368  0.8133  0.8530  0.0695
 7380TIP3   OH243554   2.366   4.175  15.346 -0.0605  0.1454  0.1972
 7380TIP3    H143555   2.310   4.148  15.418  0.4954 -0.0068  0.5783
 7380TIP3    H243556   2.411   4.253  15.379  0.8596 -0.4384  0.3510
 7381TIP3   OH243557   2.684   6.894  13.786  0.2453  0.0047 -0.0353
 7381TIP3    H143558   2.721   6.973  13.824 -1.9711  0.3956  1.3735
 7381TIP3    H243559   2.699   6.826  13.851  1.0884 -0.4884 -0.7316
 7382TIP3   OH243560   0.484   4.204  15.668 -0.4709  0.0110 -0.4561
 7382TIP3    H143561   0.503   4.159  15.750  0.8970  0.2562 -0.6222
 7382TIP3    H243562   0.402   4.165  15.638  0.0110 -1.4505  0.0666
 7383TIP3   OH243563   5.594   3.064  15.462  0.0463  0.2038 -0.3462
 7383TIP3    H143564   5.644   3.051  15.543  0.1635  0.8488 -0.3090
 7383TIP3    H243565   5.654   3.038  15.392  0.7057  1.6512 -0.3439
 7384TIP3   OH243566   6.111   3.221  14.325  0.7650  0.1586 -0.2082
 7384TIP3    H143567   6.101   3.243  14.417 -1.7357  0.0156 -0.4034
 7384TIP3    H243568   6.142   3.301  14.284 -0.8783  1.0721  0.3114
 7385TIP3   OH243569   1.922   4.393  15.971 -0.0129  0.2217 -0.5826
 7385TIP3    H143570   1.967   4.341  16.037 -0.8937 -0.9467 -0.8825
 7385TIP3    H243571   1.863   4.450  16.020 -0.0478 -0.0488 -0.3137
 7386TIP3   OH243572   7.240   0.683  15.474 -0.4013  1.0593 -0.4659
 7386TIP3    H143573   7.152   0.707  15.446 -1.5512 -0.6900  1.4793
 7386TIP3    H243574   7.267   0.753  15.533 -1.0362  0.9419 -0.0304
 7387TIP3   OH243575   1.752   7.274  14.054  0.0981 -0.0802 -0.2185
 7387TIP3    H143576   1.736   7.349  13.997 -0.6855 -0.3258 -0.3332
 7387TIP3    H243577   1.665   7.245  14.080  0.4158 -0.6270  0.2507
 7388TIP3   OH243578   1.817   1.972  15.332  0.3478 -0.1598 -0.1719
 7388TIP3    H143579   1.741   1.964  15.390  1.4226 -0.5353  1.2185
 7388TIP3    H243580   1.889   1.999  15.390  1.2133  0.5038 -1.5164
 7389TIP3   OH243581   0.774   4.467  14.023  0.4888 -0.4039 -0.1427
 7389TIP3    H143582   0.750   4.399  14.087 -1.7280  0.4501 -0.0075
 7389TIP3    H243583   0.818   4.534  14.075 -0.9504  0.1028  0.4598
 7390TIP3   OH243584   4.789   0.901  13.062  0.0190  0.5926 -0.6430
 7390TIP3    H143585   4.853   0.830  13.052 -0.2723  0.5614 -2.2815
 7390TIP3    H243586   4.809   0.962  12.992 -1.0217  1.1629 -0.4525
 7391TIP3   OH243587   0.296   5.987   1.256 -0.0343  0.5257 -0.2391
 7391TIP3    H143588   0.203   5.969   1.269 -0.0813  0.5906 -0.4779
 7391TIP3    H243589   0.311   5.967   1.163  0.4220 -0.4962  0.0494
 7392TIP3   OH243590   2.003   2.248  15.014  0.0352 -0.3462 -0.6308
 7392TIP3    H143591   1.990   2.154  15.022  0.3389 -0.3714 -0.4099
 7392TIP3    H243592   1.967   2.285  15.095  2.2685 -0.5166  0.5057
 7393TIP3   OH243593   2.371   2.424   1.536  0.5566  0.3944 -0.0013
 7393TIP3    H143594   2.332   2.507   1.510 -1.1280 -0.1046  0.8113
 7393TIP3    H243595   2.369   2.425   1.631  0.2648 -0.6835  0.0147
 7394TIP3   OH243596   0.333   0.820  15.685  0.4079  0.4746 -0.1106
 7394TIP3    H143597   0.415   0.811  15.636 -0.5129  0.3441 -1.6716
 7394TIP3    H243598   0.348   0.894  15.743  1.5900  0.5499 -0.4947
 7395TIP3   OH243599   1.023   6.860   2.699  0.2339  0.5108 -0.8863
 7395TIP3    H143600   1.097   6.915   2.727 -0.4624  0.7876  0.4724
 7395TIP3    H243601   0.986   6.828   2.781  0.1150 -1.3180 -1.6419
 7396TIP3   OH243602   2.642   1.056   1.465 -0.4482  1.1765 -0.4545
 7396TIP3    H143603   2.727   1.034   1.502  0.5623  1.4612 -2.5530
 7396TIP3    H243604   2.580   1.036   1.536  1.4953  2.9118  1.8412
 7397TIP3   OH243605   5.882   4.043  15.810  0.8245  0.1956  0.3610
 7397TIP3    H143606   5.948   3.980  15.838  0.9639  0.5008  0.7242
 7397TIP3    H243607   5.859   4.091  15.889  1.8700  1.6792 -0.2081
 7398TIP3   OH243608   0.983   4.238  12.321  0.3114  0.6046  0.6042
 7398TIP3    H143609   0.954   4.149  12.300  1.2458  0.2136  0.9403
 7398TIP3    H243610   0.915   4.294  12.285 -0.1315 -0.2342  0.1065
 7399TIP3   OH243611   3.092   3.828  15.379  0.2509  0.0789  0.1215
 7399TIP3    H143612   3.005   3.866  15.371  1.2475  1.8864 -3.0193
 7399TIP3    H243613   3.131   3.873  15.454 -1.0168  0.2294  0.7023
 7400TIP3   OH243614   1.230   5.729  15.993  0.1864 -0.4439  0.1376
 7400TIP3    H143615   1.296   5.782  16.036 -3.2589  3.8094  0.5023
 7400TIP3    H243616   1.229   5.760  15.903  1.6529 -3.5728 -1.0230
 7401TIP3   OH243617   3.732   2.316  14.460 -0.1655 -0.2130 -0.6832
 7401TIP3    H143618   3.807   2.375  14.460  0.8160 -1.4083  0.9902
 7401TIP3    H243619   3.758   2.243  14.403  0.3202 -1.0439  0.5683
 7402TIP3   OH243620   1.787   0.148  13.381 -0.5922 -0.3369  0.3685
 7402TIP3    H143621   1.847   0.215  13.415 -0.0410  1.1669 -3.3307
 7402TIP3    H243622   1.700   0.184  13.396 -0.3612  0.3140  0.1447
 7403TIP3   OH243623   7.010   2.983  14.219 -0.1438 -0.1619 -0.1328
 7403TIP3    H143624   7.097   2.998  14.183 -0.2770 -0.8469 -0.7512
 7403TIP3    H243625   7.025   2.925  14.294  0.1243  1.2037  0.8910
 7404TIP3   OH243626   1.187   1.631  14.654 -0.0090 -0.0091 -0.0697
 7404TIP3    H143627   1.215   1.575  14.582  0.7062 -0.0372  0.2220
 7404TIP3    H243628   1.094   1.611  14.666  0.5989 -2.2808  1.0643
 7405TIP3   OH243629   0.565   2.656  14.449 -0.1002 -0.1349 -0.0747
 7405TIP3    H143630   0.555   2.583  14.510  2.3911  1.5072  2.4221
 7405TIP3    H243631   0.520   2.627  14.370 -0.9179 -3.5324  1.5274
 7406TIP3   OH243632   0.373   3.039  15.475  0.6609 -0.3183  0.4219
 7406TIP3    H143633   0.363   2.996  15.560 -0.6509  0.2536  0.5734
 7406TIP3    H243634   0.437   3.108  15.490  0.4112 -0.2037  0.9620
 7407TIP3   OH243635   1.244   0.738  12.743  0.3402 -0.0627 -0.5797
 7407TIP3    H143636   1.206   0.661  12.786 -0.6794  1.3128  1.0378
 7407TIP3    H243637   1.328   0.751  12.786 -0.5261  1.1047  0.8099
 7408TIP3   OH243638   1.115   2.464  15.821  0.4416  0.0530  0.4649
 7408TIP3    H143639   1.054   2.396  15.850  1.5960 -1.3855 -0.3946
 7408TIP3    H243640   1.192   2.415  15.790  1.5132  1.7764  0.3496
 7409TIP3   OH243641   4.908   2.263  12.878 -0.0764 -0.1227 -0.2404
 7409TIP3    H143642   4.967   2.188  12.867  0.1665  0.1705 -0.9249
 7409TIP3    H243643   4.842   2.252  12.810  0.2754  0.5855 -0.6983
 7410TIP3   OH243644   3.483   4.262  11.918 -0.0906 -0.3881 -0.8157
 7410TIP3    H143645   3.412   4.326  11.926  0.6177  0.4456 -1.1665
 7410TIP3    H243646   3.510   4.268  11.827  0.9041 -0.2064 -0.5109
 7411TIP3   OH243647   2.339   6.788  14.745 -0.4720 -0.0029 -0.7277
 7411TIP3    H143648   2.290   6.734  14.683  0.7368  1.0688 -2.6907
 7411TIP3    H243649   2.282   6.863  14.763 -0.3326  0.2955 -1.5175
 7412TIP3   OH243650   1.068   2.190   1.740  0.1019 -0.1162  0.2140
 7412TIP3    H143651   1.005   2.251   1.699  0.5098  0.5285  0.5379
 7412TIP3    H243652   1.061   2.208   1.833  1.1460  0.3377  0.2160
 7413TIP3   OH243653   0.618   2.628  14.021 -0.0701 -0.4252 -0.2118
 7413TIP3    H143654   0.676   2.611  14.096  0.6271 -0.2577 -0.7115
 7413TIP3    H243655   0.656   2.704  13.978 -2.0374  1.1938  0.8305
 7414TIP3   OH243656   4.420   3.881  12.701  0.0138  0.0693 -0.3271
 7414TIP3    H143657   4.457   3.875  12.613 -0.3738  0.4545 -0.5175
 7414TIP3    H243658   4.440   3.796  12.741 -1.3014 -0.7489 -1.3817
 7415TIP3   OH243659   6.184   2.424  14.472 -0.2280 -0.3643 -0.3445
 7415TIP3    H143660   6.210   2.334  14.492  0.4381  0.4952  2.9225
 7415TIP3    H243661   6.145   2.456  14.553  2.2784  3.2475 -0.4282
 7416TIP3   OH243662   0.072   3.031  15.462 -0.0423  0.4382  0.0013
 7416TIP3    H143663   0.051   2.989  15.545 -0.4662  1.3693  0.3787
 7416TIP3    H243664   0.156   3.075  15.477  0.1106  0.2161 -0.2045
 7417TIP3   OH243665   6.079   5.381  15.256  0.2067 -0.6763  0.0726
 7417TIP3    H143666   6.025   5.393  15.178  0.5002  1.4158  0.1613
 7417TIP3    H243667   6.019   5.345  15.322 -0.6290 -0.1312 -0.3881
 7418TIP3   OH243668   6.852   3.735  12.350  0.5249  0.5188  0.0668
 7418TIP3    H143669   6.818   3.823  12.365  1.3039  0.3885  2.8721
 7418TIP3    H243670   6.942   3.749  12.321  0.4929  0.6718  0.0375
 7419TIP3   OH243671   1.959   6.554  14.967  0.3549 -0.4330  0.2235
 7419TIP3    H143672   1.976   6.564  14.873  0.7176 -0.3161  0.2996
 7419TIP3    H243673   1.899   6.480  14.973  0.6473 -0.6962 -0.0710
 7420TIP3   OH243674   0.700   0.794   3.667 -0.2471  0.5537 -0.4329
 7420TIP3    H143675   0.692   0.842   3.584 -0.9678  0.8652 -0.1896
 7420TIP3    H243676   0.652   0.848   3.730 -0.6759 -0.2565 -0.0546
 7421TIP3   OH243677   6.225   4.292   1.260 -0.0618  0.1285 -0.1890
 7421TIP3    H143678   6.206   4.280   1.166  0.4959  3.0346 -0.7268
 7421TIP3    H243679   6.159   4.354   1.290 -2.5970 -3.5344  2.3337
 7422TIP3   OH243680   2.669   4.408  15.846 -0.4550 -0.4092 -0.0872
 7422TIP3    H143681   2.636   4.359  15.921 -1.1524  0.6618  0.3191
 7422TIP3    H243682   2.757   4.373  15.831 -0.7571 -1.4257  0.5042
 7423TIP3   OH243683   2.684   0.546   1.036 -0.6606  0.4635  0.5608
 7423TIP3    H143684   2.666   0.492   0.959 -1.6742  0.6256  0.6733
 7423TIP3    H243685   2.776   0.530   1.056 -0.5428 -0.0255 -0.3362
 7424TIP3   OH243686   6.303   7.175  12.787  0.1584  0.0579 -0.1484
 7424TIP3    H143687   6.236   7.190  12.720  1.7400  1.2384 -1.5169
 7424TIP3    H243688   6.329   7.263  12.814  2.3883 -0.3485 -0.9005
 7425TIP3   OH243689   6.925   2.758  13.390  0.5508  0.3501 -0.7290
 7425TIP3    H143690   6.904   2.846  13.358  2.1468  0.6223 -1.0786
 7425TIP3    H243691   6.856   2.739  13.454  2.8401  3.8245  3.0050
 7426TIP3   OH243692   0.353   1.366   1.805 -0.5608  0.0278  0.3027
 7426TIP3    H143693   0.374   1.275   1.825  0.9274  0.5253  1.1326
 7426TIP3    H243694   0.292   1.361   1.732  0.8455 -1.5926 -0.7956
 7427TIP3   OH243695   3.507   0.552  15.950  0.2180  0.1650  0.0721
 7427TIP3    H143696   3.499   0.648  15.945 -3.1255  0.0556  2.0165
 7427TIP3    H243697   3.443   0.520  15.886  1.3113 -0.7814 -0.5525
 7428TIP3   OH243698   2.413   2.577  13.991  0.0350  0.2875  0.1385
 7428TIP3    H143699   2.429   2.665  13.957  0.0083 -0.3220 -1.5012
 7428TIP3    H243700   2.483   2.563  14.054  0.5142  1.1731 -0.1888
 7429TIP3   OH243701   6.611   2.227  12.946  0.3273  0.2970 -0.2229
 7429TIP3    H143702   6.624   2.139  12.910  3.4334 -0.1044  1.7055
 7429TIP3    H243703   6.570   2.276  12.875  0.3777 -2.1631 -2.0227
 7430TIP3   OH243704   3.070   5.627  15.681 -0.2808  0.2439  0.0981
 7430TIP3    H143705   3.123   5.690  15.729 -0.1857  0.0017  0.3118
 7430TIP3    H243706   2.981   5.661  15.686 -0.6215 -0.8989  2.3022
 7431TIP3   OH243707   7.198   1.934  11.367  0.1717  0.1542 -0.4437
 7431TIP3    H143708   7.271   1.893  11.414 -0.5953 -0.5433  0.1666
 7431TIP3    H243709   7.219   2.027  11.365  2.6208 -0.3853 -3.0278
 7432TIP3   OH243710   5.420   3.395  14.196 -0.5666 -0.3582  0.2241
 7432TIP3    H143711   5.358   3.405  14.123 -1.9729 -0.2993  1.4083
 7432TIP3    H243712   5.463   3.311  14.180 -1.6268 -0.8467 -0.1185
 7433TIP3   OH243713   1.003   6.839  13.578  0.3596 -0.2925  0.5981
 7433TIP3    H143714   1.028   6.773  13.643  2.7243 -1.3027 -1.2512
 7433TIP3    H243715   0.965   6.789  13.506 -1.2275  0.7199  0.7036
 7434TIP3   OH243716   5.748   2.739  15.228  0.3219 -0.3037  0.0196
 7434TIP3    H143717   5.656   2.751  15.205  0.3334  0.2349  0.2460
 7434TIP3    H243718   5.778   2.826  15.255  0.7640 -0.5743  0.4220
 7435TIP3   OH243719   3.248   6.075  10.916  0.0040  0.4294  0.3953
 7435TIP3    H143720   3.220   5.989  10.950 -4.0028  1.3466 -0.3461
 7435TIP3    H243721   3.304   6.054  10.842 -1.2981 -1.5788 -0.0682
 7436TIP3   OH243722   2.844   3.180  13.485 -0.2621 -0.0576 -0.4155
 7436TIP3    H143723   2.908   3.145  13.423  0.5076  0.9047 -0.1796
 7436TIP3    H243724   2.841   3.116  13.556  1.2588  0.4081  0.0870
 7437TIP3   OH243725   5.485   1.748   2.698 -0.3795  0.6357 -0.6480
 7437TIP3    H143726   5.473   1.668   2.648  1.3266 -0.7369  1.0913
 7437TIP3    H243727   5.443   1.731   2.781  1.7507  0.7436  0.4921
 7438TIP3   OH243728   1.280   4.344  13.659  0.3187 -0.3058 -0.3625
 7438TIP3    H143729   1.239   4.300  13.733  0.3435  0.6433  0.2165
 7438TIP3    H243730   1.373   4.341  13.678  0.2647  0.7422  0.0976
 7439TIP3   OH243731   6.274   1.772  15.572  0.4639  0.1954  0.8388
 7439TIP3    H143732   6.321   1.757  15.490  3.5884 -0.6587  2.7069
 7439TIP3    H243733   6.272   1.867  15.582  0.0366  0.3018 -0.2319
 7440TIP3   OH243734   7.266   3.938  15.123  0.0923 -0.2190  0.3941
 7440TIP3    H143735   7.297   3.857  15.082 -3.6198  0.8524 -4.9796
 7440TIP3    H243736   7.338   4.000  15.112  0.8744 -1.2636 -0.3789
 7441TIP3   OH243737   2.077   1.740   1.413  0.2400 -0.7316 -0.7101
 7441TIP3    H143738   2.039   1.826   1.396  0.4423 -0.1422  1.6331
 7441TIP3    H243739   2.002   1.680   1.408 -0.0541 -0.3103 -1.4597
 7442TIP3   OH243740   4.794   4.375   0.119 -0.0562  0.2969 -0.3558
 7442TIP3    H143741   4.805   4.337   0.031  0.0247  1.3985 -0.8314
 7442TIP3    H243742   4.858   4.446   0.122 -0.0826  0.2798  0.5933
 7443TIP3   OH243743   3.692   3.385  14.958  0.6852  0.3936  0.1995
 7443TIP3    H143744   3.633   3.314  14.982  0.2591  0.7393  0.1748
 7443TIP3    H243745   3.766   3.341  14.915  1.2549 -0.1819  1.7413
 7444TIP3   OH243746   6.834   3.146  13.839  0.0066  0.1645  0.4048
 7444TIP3    H143747   6.879   3.066  13.868 -0.2873  0.8504  2.9145
 7444TIP3    H243748   6.741   3.123  13.846 -0.0714  0.2337 -0.3846
 7445TIP3   OH243749   5.805   3.901  14.787  0.1537 -0.0556  0.3439
 7445TIP3    H143750   5.735   3.838  14.769 -0.7367  0.8107  0.6438
 7445TIP3    H243751   5.883   3.848  14.803 -0.8146 -1.1372  1.6565
 7446TIP3   OH243752   2.650   2.501  12.035 -0.5767 -0.0789 -0.1838
 7446TIP3    H143753   2.567   2.543  12.058 -0.5030 -0.3969  0.6937
 7446TIP3    H243754   2.636   2.468  11.945 -1.3158  0.0824 -0.1319
 7447TIP3   OH243755   3.530   1.499   0.128 -0.0299 -0.8408 -0.2940
 7447TIP3    H143756   3.605   1.442   0.111 -0.5261 -1.7078  0.3180
 7447TIP3    H243757   3.548   1.538   0.213 -0.9868 -2.2829  0.5997
 7448TIP3   OH243758   2.087   1.077   1.885  0.1003 -0.3336 -0.6934
 7448TIP3    H143759   2.128   1.147   1.934 -0.0464  1.4850 -3.0674
 7448TIP3    H243760   2.151   1.006   1.887  0.3921 -0.0433  1.4342
 7449TIP3   OH243761   4.401   3.970  15.195  0.6738  0.2519  0.2164
 7449TIP3    H143762   4.403   3.893  15.139 -1.4102  0.4525 -0.1959
 7449TIP3    H243763   4.438   4.040  15.142  1.4492 -0.2037  0.1541
 7450TIP3   OH243764   4.091   5.592   0.281 -0.0723  0.7618  0.2245
 7450TIP3    H143765   4.038   5.670   0.262  2.5168  2.5643  0.0274
 7450TIP3    H243766   4.147   5.583   0.203 -0.6014 -1.5430  0.0921
 7451TIP3   OH243767   7.210   3.713  12.822 -0.9031 -0.3160 -0.0306
 7451TIP3    H143768   7.183   3.624  12.841  1.1155 -0.8827  0.3014
 7451TIP3    H243769   7.223   3.753  12.907 -2.3340  0.4647 -0.1769
 7452TIP3   OH243770   2.191   0.661  13.945  0.3151  0.5003  0.7524
 7452TIP3    H143771   2.250   0.736  13.938  1.0341 -0.0154  1.1657
 7452TIP3    H243772   2.185   0.644  14.039 -2.1399  1.8218  0.8694
 7453TIP3   OH243773   3.709   4.939  14.506  0.3542  0.0728 -0.7074
 7453TIP3    H143774   3.766   5.011  14.536  1.4828 -1.2693  0.4690
 7453TIP3    H243775   3.746   4.912  14.423 -1.2974  2.1695 -2.1806
 7454TIP3   OH243776   5.903   2.060   0.985 -0.3442  0.6107 -0.2315
 7454TIP3    H143777   5.822   2.105   1.008 -0.1591  0.5015  0.6614
 7454TIP3    H243778   5.874   1.984   0.934 -1.3574 -2.7674  4.9689
 7455TIP3   OH243779   2.736   3.656   2.383 -0.3865  0.7513  0.1336
 7455TIP3    H143780   2.771   3.567   2.386 -2.6480 -0.1627  0.6402
 7455TIP3    H243781   2.648   3.648   2.419 -1.1998  2.9125 -1.2618
 7456TIP3   OH243782   1.917   6.932  13.628  0.4115  0.2704 -0.1031
 7456TIP3    H143783   1.894   6.861  13.688 -0.1679 -0.1167 -0.7842
 7456TIP3    H243784   2.011   6.946  13.642  0.2860  0.1959  0.9035
 7457TIP3   OH243785   5.709   0.294   1.785 -0.2562  0.7618 -0.2303
 7457TIP3    H143786   5.693   0.223   1.723  2.2508 -1.3636  1.4164
 7457TIP3    H243787   5.793   0.331   1.758  0.1988  0.6995  1.0378
 7458TIP3   OH243788   3.604   5.361  14.878 -0.0519  0.5523  0.0430
 7458TIP3    H143789   3.599   5.265  14.876  0.6592  0.5250 -0.6204
 7458TIP3    H243790   3.594   5.383  14.970 -0.2022 -0.1651  0.2049
 7459TIP3   OH243791   6.013   5.162  13.002 -0.1642  0.5730 -0.0858
 7459TIP3    H143792   5.929   5.184  12.963  0.2733  3.0102  0.2494
 7459TIP3    H243793   6.031   5.234  13.064  1.0139 -1.1550  1.6431
 7460TIP3   OH243794   3.705   3.225  13.385  0.6017  1.1254 -0.2337
 7460TIP3    H143795   3.790   3.248  13.345  1.4067 -1.6608 -0.2441
 7460TIP3    H243796   3.728   3.179  13.465 -0.9320  0.6561 -0.0498
 7461TIP3   OH243797   2.942   4.611   1.382 -0.0013 -0.4523  0.0490
 7461TIP3    H143798   2.938   4.675   1.311  0.3681  0.1359  0.5515
 7461TIP3    H243799   3.028   4.627   1.423  0.0040 -1.1294  0.3038
 7462TIP3   OH243800   4.111   4.049  12.881  0.2716  1.1764  0.0603
 7462TIP3    H143801   4.105   4.111  12.954 -1.1021  0.1150  0.8849
 7462TIP3    H243802   4.072   3.969  12.915  0.5735  0.3467 -1.5165
 7463TIP3   OH243803   2.566   3.795  11.336  0.0760  0.0452  0.2357
 7463TIP3    H143804   2.496   3.800  11.400  0.1889 -0.3646  0.3921
 7463TIP3    H243805   2.624   3.726  11.369  0.4314  0.2255 -0.0084
 7464TIP3   OH243806   6.025   3.957  13.437 -0.0527 -0.1951 -0.0882
 7464TIP3    H143807   6.118   3.948  13.455 -0.4098 -0.7676  1.5051
 7464TIP3    H243808   6.005   3.885  13.376  0.3679 -0.5751  0.2219
 7465TIP3   OH243809   1.615   1.475  13.465 -0.5628  0.0945 -0.3186
 7465TIP3    H143810   1.627   1.533  13.540 -1.5341  0.5187 -0.4845
 7465TIP3    H243811   1.645   1.525  13.390  0.2314 -0.2614 -0.2436
 7466TIP3   OH243812   3.274   2.618  15.930 -0.5448 -0.1395 -0.2029
 7466TIP3    H143813   3.324   2.633  16.010  0.1063  0.0634 -0.6429
 7466TIP3    H243814   3.195   2.574  15.959  0.6354 -1.9531  0.3199
 7467TIP3   OH243815   6.149   5.393  13.137 -0.4539  0.2731 -0.3564
 7467TIP3    H143816   6.220   5.359  13.191  0.7878 -0.7382 -2.5533
 7467TIP3    H243817   6.191   5.416  13.054 -2.7513 -0.9029 -1.9149
 7468TIP3   OH243818   1.640   2.555  15.067 -0.3836 -0.7306 -0.0570
 7468TIP3    H143819   1.602   2.624  15.012 -0.1184 -0.4411  0.1246
 7468TIP3    H243820   1.671   2.489  15.005  0.4175 -0.1479 -0.2748
 7469TIP3   OH243821   6.880   0.454  14.682 -0.4521 -0.3726  0.0668
 7469TIP3    H143822   6.959   0.506  14.700 -0.9538  0.2889  0.3814
 7469TIP3    H243823   6.850   0.486  14.597 -1.2360  0.4497  0.6486
 7470TIP3   OH243824   7.187   3.720  13.736 -0.0108 -0.4157  0.4640
 7470TIP3    H143825   7.272   3.739  13.776  0.4304 -0.3748 -0.5004
 7470TIP3    H243826   7.205   3.653  13.671 -0.4093  0.9285 -1.0482
 7471TIP3   OH243827   0.747   0.161  15.227 -0.3703  0.4699  0.4596
 7471TIP3    H143828   0.747   0.166  15.132  0.2315 -0.4471  0.4012
 7471TIP3    H243829   0.658   0.132  15.249 -0.3077  0.0268  0.1342
 7472TIP3   OH243830   3.631   3.493  13.204  0.7555 -0.3025 -0.1422
 7472TIP3    H143831   3.624   3.430  13.276 -1.9771  0.9537  0.7411
 7472TIP3    H243832   3.631   3.438  13.125 -2.5795 -1.4227  0.5694
 7473TIP3   OH243833   3.388   4.207  14.710 -0.0972 -0.2177  0.1353
 7473TIP3    H143834   3.471   4.255  14.717 -1.1462  1.4501  1.2783
 7473TIP3    H243835   3.415   4.117  14.688  1.9662  0.4731 -0.3207
 7474TIP3   OH243836   1.201   4.145  13.211  0.1020  0.5882  0.5972
 7474TIP3    H143837   1.215   4.222  13.267  0.0101 -0.9636  2.8526
 7474TIP3    H243838   1.272   4.149  13.146  1.1594  1.6498  1.7887
 7475TIP3   OH243839   2.307   2.458   0.107  0.3096  0.0735  0.1291
 7475TIP3    H143840   2.387   2.464   0.055 -0.4471  0.5004 -0.9778
 7475TIP3    H243841   2.280   2.549   0.121 -0.1805 -0.0845  0.2085
 7476TIP3   OH243842   2.000   0.331   1.378 -0.6836  0.1746  0.3698
 7476TIP3    H143843   2.057   0.387   1.325 -2.6856  1.7669 -0.1828
 7476TIP3    H243844   2.031   0.344   1.467 -0.0704  0.8912  0.0647
 7477TIP3   OH243845   0.377   6.088  15.680  0.0965  0.5847  0.0663
 7477TIP3    H143846   0.454   6.127  15.639 -0.8003  0.5849 -1.6465
 7477TIP3    H243847   0.362   6.007  15.631 -1.4153  0.9310 -0.0658
 7478TIP3   OH243848   3.194   3.948  13.325  0.9496 -0.1983  0.2350
 7478TIP3    H143849   3.272   3.915  13.369  0.8853 -1.9900 -0.9549
 7478TIP3    H243850   3.146   3.995  13.393  1.9547 -1.0118  1.5163
 7479TIP3   OH243851   5.919   3.011  13.929 -0.1182 -0.0843  0.9100
 7479TIP3    H143852   5.901   3.105  13.931  0.0206 -0.0456  0.5231
 7479TIP3    H243853   5.970   2.995  14.008  2.2975  0.6830 -0.4343
 7480TIP3   OH243854   0.673   0.724   0.465 -0.0916  0.2024  0.1406
 7480TIP3    H143855   0.696   0.810   0.500  1.9141 -0.2138 -0.0934
 7480TIP3    H243856   0.651   0.741   0.374  1.9176  0.2491 -0.3504
 7481TIP3   OH243857   2.863   0.135  15.997 -0.2856 -0.0238  0.3816
 7481TIP3    H143858   2.823   0.052  16.023  1.1752 -0.1486  2.4126
 7481TIP3    H243859   2.882   0.125  15.904 -5.4677  0.3114 -0.8498
 7482TIP3   OH243860   2.284   1.907  15.133  0.3059  0.3592 -0.4814
 7482TIP3    H143861   2.356   1.889  15.192  1.5533 -0.0227 -2.0820
 7482TIP3    H243862   2.284   2.002  15.122  0.8605  0.3251 -0.8143
 7483TIP3   OH243863   0.471   3.672  15.997  0.0525 -0.0157 -0.0799
 7483TIP3    H143864   0.402   3.616  15.960  1.0827 -0.5038 -1.2930
 7483TIP3    H243865   0.471   3.749  15.940  0.0607  0.2892  0.3294
 7484TIP3   OH243866   4.648   3.854  14.744  0.1078 -0.0015  0.1713
 7484TIP3    H143867   4.657   3.888  14.833 -0.1433 -1.2873  0.7030
 7484TIP3    H243868   4.703   3.775  14.743 -1.1691 -0.9094 -0.3148
 7485TIP3   OH243869   1.269   1.615   0.813 -0.6065  0.5563  0.0022
 7485TIP3    H143870   1.313   1.574   0.739 -0.1300 -0.3584  0.7780
 7485TIP3    H243871   1.327   1.686   0.839 -0.0918  0.0198  0.3484
 7486TIP3   OH243872   4.038   1.544  15.110 -0.6714 -0.5769  0.2187
 7486TIP3    H143873   3.956   1.503  15.082 -1.1279 -0.3169  1.1529
 7486TIP3    H243874   4.013   1.633  15.136 -0.0995 -0.5017  0.5272
 7487TIP3   OH243875   3.917   1.021  14.686  0.1776  0.2125  0.0989
 7487TIP3    H143876   3.939   1.000  14.777  1.6592 -0.8320 -0.4770
 7487TIP3    H243877   3.879   0.941  14.651  0.6117  0.2619 -0.5000
 7488TIP3   OH243878   5.754   2.487   1.042  0.3516  0.3459 -0.0135
 7488TIP3    H143879   5.667   2.451   1.060  0.7656 -0.1138  1.1484
 7488TIP3    H243880   5.788   2.433   0.971 -0.0760  0.1534 -0.0754
 7489TIP3   OH243881   1.593   4.391  12.554  0.2588 -0.3869  0.3418
 7489TIP3    H143882   1.568   4.467  12.606  1.3016 -0.2865  0.7087
 7489TIP3    H243883   1.646   4.338  12.614 -1.6485 -2.1080  0.5556
 7490TIP3   OH243884   4.028   4.306  13.071 -0.0262 -0.1487  0.2113
 7490TIP3    H143885   4.119   4.302  13.102  0.8202  1.3930 -1.9908
 7490TIP3    H243886   3.999   4.395  13.093 -1.6745 -1.2176  2.5973
 7491TIP3   OH243887   1.037   0.725  14.535  0.4594  0.1735 -0.1573
 7491TIP3    H143888   1.026   0.761  14.623 -0.4903  0.2850 -0.3211
 7491TIP3    H243889   1.011   0.796  14.476  0.7946 -0.0032 -0.5229
 7492TIP3   OH243890   1.975   3.085   0.107 -0.1804  0.4736  0.8693
 7492TIP3    H143891   1.959   3.012   0.048 -6.3035  2.1770  0.0380
 7492TIP3    H243892   1.979   3.162   0.050 -0.7420  1.5116  2.1966
 7493TIP3   OH243893   0.914   4.593  15.662  0.1389  0.0053  0.4882
 7493TIP3    H143894   0.883   4.514  15.618 -1.4442  0.2863  1.0471
 7493TIP3    H243895   0.925   4.657  15.592 -0.4330 -0.1444  0.2602
 7494TIP3   OH243896   5.519   2.782  12.423 -0.1982  0.6693 -0.2911
 7494TIP3    H143897   5.438   2.769  12.473  1.0479 -0.1642  1.5612
 7494TIP3    H243898   5.516   2.874  12.396 -2.3315  0.3410 -1.2899
 7495TIP3   OH243899   5.240   3.763  15.033 -0.3537 -0.4062  0.0265
 7495TIP3    H143900   5.234   3.683  15.087 -1.1424  0.0604  0.6373
 7495TIP3    H243901   5.332   3.789  15.040 -0.4032 -0.4571  1.0080
 7496TIP3   OH243902   5.621   1.008   0.080  0.3058 -0.5843 -0.2627
 7496TIP3    H143903   5.576   0.931   0.115  0.5539 -1.7640 -2.4675
 7496TIP3    H243904   5.703   1.011   0.128 -0.5725 -0.4924  1.2717
 7497TIP3   OH243905   1.318   1.818  15.341 -0.3383 -0.4823  0.2173
 7497TIP3    H143906   1.280   1.905  15.352 -0.0173 -0.2836 -0.2703
 7497TIP3    H243907   1.279   1.766  15.412  1.3753  0.6891  2.0894
 7498TIP3   OH243908   2.935   4.177  13.741  0.2961 -0.3384 -0.4920
 7498TIP3    H143909   2.914   4.138  13.826 -0.9211 -0.8885 -1.0353
 7498TIP3    H243910   2.951   4.269  13.761  3.3225 -1.0924  0.8250
 7499TIP3   OH243911   7.081   0.850  13.249 -0.2394 -0.4014  0.7291
 7499TIP3    H143912   6.987   0.833  13.250 -0.0256 -1.6425  0.3069
 7499TIP3    H243913   7.095   0.903  13.170 -0.7986  1.0820  1.6222
 7500TIP3   OH243914   4.775   0.448   1.266  0.4355 -0.0187 -0.3291
 7500TIP3    H143915   4.851   0.455   1.208  0.5789  2.4156  0.0900
 7500TIP3    H243916   4.728   0.531   1.253 -1.1683 -0.7241  0.7923
 7501TIP3   OH243917   2.803   2.191   1.197 -0.3012  0.1676 -0.6000
 7501TIP3    H143918   2.735   2.156   1.139 -0.9897  0.6313 -0.0896
 7501TIP3    H243919   2.795   2.139   1.277 -2.4574  2.4919  0.8046
 7502TIP3   OH243920   5.551   5.367   0.734 -0.1893  0.3013 -1.0556
 7502TIP3    H143921   5.482   5.427   0.707  0.6054  0.9839 -1.6102
 7502TIP3    H243922   5.570   5.391   0.825 -0.8816 -0.0764 -0.8160
 7503TIP3   OH243923   4.087   2.489  13.890  0.6880  0.2016 -0.6138
 7503TIP3    H143924   4.097   2.464  13.982  0.1862  1.9212 -0.0732
 7503TIP3    H243925   4.174   2.477  13.853  1.2266  0.7530  0.4222
 7504TIP3   OH243926   7.303   1.313  15.946 -0.2768 -0.5511 -0.3740
 7504TIP3    H143927   7.287   1.278  15.858 -0.5352  0.0843 -0.5879
 7504TIP3    H243928   7.219   1.353  15.971  0.0559  0.0415 -0.2001
 7505TIP3   OH243929   1.006   5.767  13.386  0.2886 -0.5103  0.2870
 7505TIP3    H143930   1.073   5.830  13.360  1.9136 -2.4958 -0.4333
 7505TIP3    H243931   0.953   5.814  13.450  1.3167  1.6634 -0.3936
 7506TIP3   OH243932   2.764   6.485  11.862 -0.7835 -0.5344 -0.6645
 7506TIP3    H143933   2.675   6.514  11.883  0.2591  2.0979  0.2910
 7506TIP3    H243934   2.780   6.412  11.922 -1.3991  0.6061  0.9274
 7507TIP3   OH243935   1.910   6.100  14.508  0.1106  0.6356  0.2899
 7507TIP3    H143936   1.970   6.157  14.460  3.2818 -1.8946  1.1302
 7507TIP3    H243937   1.922   6.125  14.600 -0.0000  0.0251  0.4727
 7508TIP3   OH243938   2.650   4.445   0.311 -0.5538  0.5682  0.3504
 7508TIP3    H143939   2.658   4.478   0.401  1.5580 -0.2447  0.4914
 7508TIP3    H243940   2.715   4.495   0.262 -0.8898  0.1783 -0.5025
 7509TIP3   OH243941   3.932   2.117  14.712 -0.7870  0.0220  0.2916
 7509TIP3    H143942   3.950   2.061  14.788  2.2565  0.9987  0.3170
 7509TIP3    H243943   3.933   2.206  14.747  1.8676  0.5624 -1.0664
 7510TIP3   OH243944   2.918   3.966  14.272  0.2384  0.0455  0.3331
 7510TIP3    H143945   2.966   3.982  14.353 -1.2798 -1.7037  1.6220
 7510TIP3    H243946   2.829   3.999  14.289  0.3626  1.2442 -1.2310
 7511TIP3   OH243947   4.247   4.350  12.586 -0.8438 -0.0151 -0.0720
 7511TIP3    H143948   4.215   4.363  12.675  0.6517 -0.5931  0.5632
 7511TIP3    H243949   4.337   4.383  12.588 -1.1380  0.9725 -1.6534
 7512TIP3   OH243950   0.912   1.047  14.857 -0.4064 -0.3946 -0.5389
 7512TIP3    H143951   0.846   1.020  14.793 -0.5314  1.1476 -1.0739
 7512TIP3    H243952   0.866   1.107  14.916  0.0485 -0.7738  0.2140
 7513TIP3   OH243953   4.733   3.607   1.395  0.0607 -0.7550  0.7668
 7513TIP3    H143954   4.700   3.518   1.381 -0.7300 -0.4753  0.8408
 7513TIP3    H243955   4.721   3.651   1.311  0.2127 -0.6345  0.8074
 7514TIP3   OH243956   2.904   6.879  13.373 -0.1171 -1.0100  0.0726
 7514TIP3    H143957   2.944   6.796  13.347 -2.9357 -1.6983 -2.2649
 7514TIP3    H243958   2.815   6.875  13.338 -0.9822  2.1217  1.7571
 7515TIP3   OH243959   5.448   2.179  12.312  0.2942 -0.1329  0.6295
 7515TIP3    H143960   5.528   2.203  12.265 -0.1613  1.0555  0.4328
 7515TIP3    H243961   5.474   2.107  12.369  0.4812 -2.6821 -2.5727
 7516TIP3   OH243962   5.396   1.378  15.174 -0.3524 -0.4257  0.4111
 7516TIP3    H143963   5.331   1.397  15.242 -0.4902  0.1032  0.1335
 7516TIP3    H243964   5.373   1.291  15.142 -2.0238  0.4870 -0.9401
 7517TIP3   OH243965   3.764   3.055  11.778 -0.2545  0.0639 -0.6559
 7517TIP3    H143966   3.810   2.974  11.754  1.0259 -0.0390  1.9289
 7517TIP3    H243967   3.673   3.029  11.788 -0.0907 -0.7597 -1.2355
 7518TIP3   OH243968   2.194   4.842  13.283  0.0632  0.0507  0.1090
 7518TIP3    H143969   2.128   4.906  13.309 -0.6972 -0.8872  0.5277
 7518TIP3    H243970   2.148   4.758  13.285  1.4168 -0.6993  1.0093
 7519TIP3   OH243971   1.810   2.655  11.905 -0.3821 -0.2209  0.2230
 7519TIP3    H143972   1.901   2.623  11.901 -0.0269  0.3961  2.6889
 7519TIP3    H243973   1.813   2.727  11.968 -1.9858  2.0324 -2.1803
 7520TIP3   OH243974   0.506   1.184  15.561 -0.2439 -0.3806  0.5661
 7520TIP3    H143975   0.440   1.164  15.628  1.1883  0.7438  2.3228
 7520TIP3    H243976   0.588   1.189  15.608  0.5942  1.8598 -1.0410
 7521TIP3   OH243977   3.957   3.956  13.742  0.3299  0.4912 -0.0384
 7521TIP3    H143978   3.961   3.964  13.837 -2.9203  0.8195  0.1165
 7521TIP3    H243979   3.882   4.009  13.716  2.0442  1.6125 -2.9694
 7522TIP3   OH243980   4.969   6.920  15.034  0.0600 -0.1913 -0.0152
 7522TIP3    H143981   4.903   6.952  15.095 -1.7050 -4.5283  0.5745
 7522TIP3    H243982   5.030   6.870  15.088  0.6257 -0.9110 -1.2851
 7523TIP3   OH243983   0.965   6.888  15.369  0.0048  0.3399 -0.2577
 7523TIP3    H143984   1.043   6.842  15.399 -3.1746 -4.1402  1.7621
 7523TIP3    H243985   0.939   6.943  15.443  0.1406  0.2801 -0.1669
 7524TIP3   OH243986   3.520   5.275  15.746  0.5442  0.0177 -0.3252
 7524TIP3    H143987   3.574   5.354  15.753  0.0918  0.2170  1.1006
 7524TIP3    H243988   3.498   5.270  15.653  0.6181  1.5400 -0.4497
 7525TIP3   OH243989   5.208   3.498  15.153 -0.1723 -0.0895 -0.2165
 7525TIP3    H143990   5.235   3.498  15.244 -1.4176 -2.6990  0.2080
 7525TIP3    H243991   5.266   3.434  15.111 -1.7020 -1.3083 -0.5380
 7526TIP3   OH243992   3.431   6.355   0.048 -0.5996 -0.2462 -0.0681
 7526TIP3    H143993   3.363   6.421   0.062 -0.8794 -0.4983 -0.2232
 7526TIP3    H243994   3.423   6.332  -0.045  1.5585  1.7779 -0.7804
 7527TIP3   OH243995   4.905   2.719  11.148 -0.0833  0.5404  0.8081
 7527TIP3    H143996   4.881   2.695  11.238 -2.8159  2.6670  0.7055
 7527TIP3    H243997   4.834   2.683  11.095  2.0882 -1.6961 -0.6879
 7528TIP3   OH243998   1.781   2.614   1.464  0.6536 -0.0765  0.2638
 7528TIP3    H143999   1.749   2.702   1.488  0.0533 -0.3972  0.6498
 7528TIP3    H244000   1.719   2.554   1.506  0.1556 -0.6715 -1.2677
 7529TIP3   OH244001   2.379   1.291  13.103  0.3788 -0.0367  0.3907
 7529TIP3    H144002   2.422   1.207  13.121  0.9992 -0.0947 -1.3160
 7529TIP3    H244003   2.426   1.326  13.027 -1.0502  1.0200 -0.0097
 7530TIP3   OH244004   0.997   5.005  13.990 -0.8438  0.1021 -0.0989
 7530TIP3    H144005   1.011   5.083  14.045 -1.6523  0.4556 -0.3759
 7530TIP3    H244006   0.909   4.976  14.013 -0.2653 -1.1732  0.5290
 7531TIP3   OH244007   5.929   4.552  14.188 -0.4327 -0.9230 -0.0705
 7531TIP3    H144008   5.847   4.602  14.184 -0.3396 -0.7401  0.2558
 7531TIP3    H244009   5.979   4.595  14.258  0.8848  0.3723 -1.7588
 7532TIP3   OH244010   1.664   5.581  13.829  0.0445 -0.7282  0.2227
 7532TIP3    H144011   1.709   5.659  13.862  0.3102 -1.1126  0.7794
 7532TIP3    H244012   1.597   5.615  13.770  0.5132 -0.1053  0.0442
 7533TIP3   OH244013   1.037   2.993  13.471 -0.4416 -0.0312  0.0983
 7533TIP3    H144014   1.112   2.944  13.437 -0.7721  0.0116 -0.7000
 7533TIP3    H244015   1.047   2.989  13.566  0.8397  0.3832 -0.0095
 7534TIP3   OH244016   4.238   0.151  14.372  0.1470 -0.4678  0.0639
 7534TIP3    H144017   4.195   0.068  14.395  0.2060 -0.5308 -0.0535
 7534TIP3    H244018   4.288   0.174  14.451 -0.5760 -0.0898  0.4102
 7535TIP3   OH244019   6.141   4.675  13.808  0.0092 -0.0274  0.5074
 7535TIP3    H144020   6.080   4.658  13.735  0.0505  0.6622  0.3082
 7535TIP3    H244021   6.176   4.762  13.790  0.4377 -0.0820  1.0654
 7536TIP3   OH244022   3.504   7.003  15.216  0.2878  0.0081 -0.2842
 7536TIP3    H144023   3.574   7.020  15.154  0.5101 -1.4634 -0.4544
 7536TIP3    H244024   3.437   6.957  15.165 -0.9230  1.6137 -0.1873
 7537TIP3   OH244025   5.835   2.345   0.806 -0.0853 -0.6111 -0.1941
 7537TIP3    H144026   5.797   2.264   0.770 -1.3394  0.5761 -1.5857
 7537TIP3    H244027   5.830   2.408   0.734 -1.5020  1.4711  1.6783
 7538TIP3   OH244028   2.447   1.520   1.377  0.5214  0.1730 -0.3442
 7538TIP3    H144029   2.444   1.463   1.300  1.5195 -0.1875 -0.1180
 7538TIP3    H244030   2.538   1.549   1.382  0.0077  1.8737 -0.5123
 7539TIP3   OH244031   2.031   3.853  13.841 -0.3163 -0.3266 -0.0510
 7539TIP3    H144032   2.004   3.882  13.929  0.3806  1.7239 -0.4791
 7539TIP3    H244033   2.096   3.785  13.857 -0.7583 -0.5203  1.0125
 7540TIP3   OH244034   2.107   0.360  15.360  0.2736  0.5778 -0.1407
 7540TIP3    H144035   2.137   0.450  15.344 -1.0011  0.6959 -1.9808
 7540TIP3    H244036   2.175   0.305  15.322  1.0745  0.7448  1.0171
 7541TIP3   OH244037   4.992   3.940  13.458  0.9876 -0.3154  0.7202
 7541TIP3    H144038   5.073   3.921  13.410  0.6483 -1.5300  0.6033
 7541TIP3    H244039   5.005   3.900  13.543  0.2573 -1.0712  0.4799
 7542TIP3   OH244040   4.202   0.987  12.501 -0.6123 -0.4843  1.0029
 7542TIP3    H144041   4.265   1.056  12.520 -1.7697  0.5928  0.9651
 7542TIP3    H244042   4.255   0.908  12.493  0.6446  0.2620  1.7930
 7543TIP3   OH244043   0.986   3.144  13.917  0.3999 -0.0412 -0.2690
 7543TIP3    H144044   0.933   3.203  13.970  0.5966 -1.6663  1.8251
 7543TIP3    H244045   0.924   3.081  13.881  0.3932  0.4979 -1.2281
 7544TIP3   OH244046   3.563   4.865  14.231  0.0300 -0.1962 -0.2932
 7544TIP3    H144047   3.648   4.840  14.194  0.2477 -0.9582  0.7027
 7544TIP3    H244048   3.500   4.809  14.186 -0.3757  2.6309 -3.4365
 7545TIP3   OH244049   3.151   2.543  14.833 -0.0346 -0.6042  0.0191
 7545TIP3    H144050   3.224   2.481  14.832  0.7559  0.3100 -0.2042
 7545TIP3    H244051   3.129   2.552  14.926  0.7687 -0.1627  0.1711
 7546TIP3   OH244052   4.172   0.102  15.355 -0.0449 -0.1989 -0.4933
 7546TIP3    H144053   4.220   0.177  15.391  1.9991 -1.3759 -0.6966
 7546TIP3    H244054   4.092   0.098  15.408 -0.2588  2.1912 -0.5769
 7547TIP3   OH244055   2.731   6.670  13.936  0.3945 -0.4163  0.0418
 7547TIP3    H144056   2.655   6.613  13.944  0.7859 -0.7074  2.0998
 7547TIP3    H244057   2.788   6.628  13.872 -0.1436 -1.3760  0.1987
 7548TIP3   OH244058   2.485   4.605  10.322  0.7965 -0.2939 -0.0554
 7548TIP3    H144059   2.500   4.515  10.350  1.9007 -0.6566 -1.7139
 7548TIP3    H244060   2.533   4.613  10.239 -0.3453  1.4379 -0.5911
 7549TIP3   OH244061   1.428   3.939   1.098 -0.0228  0.0148 -0.9895
 7549TIP3    H144062   1.491   3.997   1.056  0.8799 -0.6714 -0.6005
 7549TIP3    H244063   1.427   3.967   1.190  0.4620 -0.6109 -0.7886
 7550TIP3   OH244064   3.790   7.183   2.374  0.5177  0.1118 -0.3558
 7550TIP3    H144065   3.769   7.253   2.435  0.6761  1.6831 -2.0787
 7550TIP3    H244066   3.747   7.207   2.292 -1.0061 -2.7620 -0.4570
 7551TIP3   OH244067   5.436   1.223  13.970  0.6637 -0.1449 -0.2769
 7551TIP3    H144068   5.356   1.180  13.941  0.0323 -0.4778  1.8245
 7551TIP3    H244069   5.423   1.316  13.948 -1.4359  0.2387  2.2881
 7552TIP3   OH244070   2.627   3.847  13.599 -0.2401  0.3707 -0.1471
 7552TIP3    H144071   2.588   3.766  13.567 -1.9348  1.3153 -0.5727
 7552TIP3    H244072   2.707   3.857  13.546 -0.6062 -0.4409 -0.8745
 7553TIP3   OH244073   0.916   5.818  11.581  0.2055  0.2908 -0.7061
 7553TIP3    H144074   1.000   5.796  11.620 -0.1346 -0.6159 -0.4752
 7553TIP3    H244075   0.851   5.793  11.647 -0.2342  1.2293 -0.7704
 7554TIP3   OH244076   4.537   5.439   5.295 -0.0504  0.0986 -0.0190
 7554TIP3    H144077   4.544   5.347   5.322  2.3395  0.0076 -0.7809
 7554TIP3    H244078   4.492   5.437   5.211 -2.6327 -0.0909  1.3238
 7555TIP3   OH244079   0.923   3.464  11.972  0.1888 -0.0565 -0.2911
 7555TIP3    H144080   0.871   3.529  12.019 -0.1214 -0.5901  0.1107
 7555TIP3    H244081   0.886   3.465  11.883 -1.2329 -1.1906  0.2672
 7556TIP3   OH244082   0.119   0.198  13.024 -0.3592 -0.2502  0.0143
 7556TIP3    H144083   0.082   0.218  12.938  2.7444 -1.1652 -1.5761
 7556TIP3    H244084   0.057   0.137  13.063 -0.5467 -1.8343 -2.6333
 7557TIP3   OH244085   4.898   2.387  13.547 -0.6744  0.1240 -0.2435
 7557TIP3    H144086   4.937   2.395  13.635 -0.1296 -1.8171 -0.2855
 7557TIP3    H244087   4.817   2.437  13.553 -1.4875 -1.3633  1.8961
 7558TIP3   OH244088   6.836   3.006  13.317 -0.0039  0.6938  0.2107
 7558TIP3    H144089   6.816   3.095  13.286  0.9819  0.6714 -0.5203
 7558TIP3    H244090   6.811   3.007  13.409 -1.5047  1.2444 -0.1916
 7559TIP3   OH244091   6.138   3.976   1.080  0.0965 -0.3753 -0.4013
 7559TIP3    H144092   6.191   4.006   1.005  1.1046 -0.7449  0.1480
 7559TIP3    H244093   6.049   3.973   1.046  0.1235  2.1290 -0.7969
 7560TIP3   OH244094   3.564   2.352  10.531  0.3266  0.1078  0.3143
 7560TIP3    H144095   3.491   2.323  10.476  0.1198 -1.4163  1.3881
 7560TIP3    H244096   3.525   2.366  10.617  0.6306  2.6055  0.0867
 7561TIP3   OH244097   5.558   4.719  14.777  0.1326  0.1057  0.2676
 7561TIP3    H144098   5.650   4.738  14.795  0.3478 -0.3072 -0.3942
 7561TIP3    H244099   5.559   4.660  14.702 -0.5963 -1.3277  1.3546
 7562TIP3   OH244100   4.535   6.658  10.743  0.0788 -0.5844 -0.4156
 7562TIP3    H144101   4.596   6.727  10.716  0.4089 -1.0862 -0.9696
 7562TIP3    H244102   4.565   6.580  10.696  0.2995 -1.3390  0.9543
 7563TIP3   OH244103   3.756   5.486   2.155  0.5407 -0.5597  0.0538
 7563TIP3    H144104   3.767   5.489   2.060  3.2951 -0.9061  0.3138
 7563TIP3    H244105   3.789   5.400   2.180 -0.3284 -0.5384  1.3149
 7564TIP3   OH244106   4.660   6.277  12.756 -0.3045 -0.2188  0.4390
 7564TIP3    H144107   4.747   6.314  12.742 -0.4646  1.1820  2.8379
 7564TIP3    H244108   4.677   6.192  12.797 -0.0371 -0.7913 -0.8469
 7565TIP3   OH244109   5.406   3.061  13.565  0.6228  0.1356 -0.4033
 7565TIP3    H144110   5.378   2.985  13.515  0.3314  0.5581 -0.8927
 7565TIP3    H244111   5.343   3.068  13.637 -1.7757  2.2278 -2.5878
 7566TIP3   OH244112   4.785   2.820   0.186  0.6025  0.2915  0.4209
 7566TIP3    H144113   4.752   2.798   0.099  0.8653 -0.1648  0.4369
 7566TIP3    H244114   4.878   2.840   0.173  0.2680  1.8526  0.3330
 7567TIP3   OH244115   2.870   3.589  11.975  0.1329  0.4811 -0.0384
 7567TIP3    H144116   2.891   3.495  11.978 -0.8646  0.1953 -1.5156
 7567TIP3    H244117   2.775   3.593  11.971  0.2078  1.5066 -1.2847
 7568TIP3   OH244118   0.481   4.793  14.063 -0.5248  0.1514 -0.0334
 7568TIP3    H144119   0.414   4.860  14.079 -0.5981  0.0009  0.2987
 7568TIP3    H244120   0.495   4.796  13.968 -0.0719  1.0763  0.0554
 7569TIP3   OH244121   3.139   3.590  14.743  0.4538 -0.1326  0.2947
 7569TIP3    H144122   3.216   3.534  14.742  2.1787  2.1447  1.0346
 7569TIP3    H244123   3.152   3.648  14.819 -2.0632  0.1720  0.5409
 7570TIP3   OH244124   0.689   2.917  13.177 -0.4093  0.1467 -0.2255
 7570TIP3    H144125   0.626   2.927  13.249 -2.1023 -0.9975 -1.5216
 7570TIP3    H244126   0.715   2.825  13.180 -1.0517 -0.0745 -1.5469
 7571TIP3   OH244127   3.863   2.783  13.534  0.4071 -0.1458  0.5403
 7571TIP3    H144128   3.950   2.788  13.495 -0.4243 -0.8526 -1.4503
 7571TIP3    H244129   3.869   2.839  13.612  1.9799  1.6485 -0.8108
 7572TIP3   OH244130   0.067   1.033  15.255 -0.1632 -0.7336  0.1029
 7572TIP3    H144131   0.160   1.012  15.253 -0.2558 -1.2309  0.8181
 7572TIP3    H244132   0.064   1.129  15.247  0.3340 -0.8343 -1.3475
 7573TIP3   OH244133   4.096   3.056   2.065  0.1634 -0.4013 -0.1903
 7573TIP3    H144134   4.032   3.080   1.999 -0.8215  0.4206  1.0433
 7573TIP3    H244135   4.107   2.961   2.055  0.2330 -0.2398 -1.6914
 7574TIP3   OH244136   1.681   0.161   0.877 -0.0737 -0.1283 -0.0688
 7574TIP3    H144137   1.751   0.180   0.939  0.9418 -0.8406 -0.9746
 7574TIP3    H244138   1.636   0.245   0.865  1.8678  0.8198 -0.9852
 7575TIP3   OH244139   3.528   5.837   1.006  0.3994  0.2203  0.7796
 7575TIP3    H144140   3.553   5.912   0.951  0.3411  0.1906  0.7115
 7575TIP3    H244141   3.591   5.838   1.077  0.3058  0.4284  0.8619
 7576TIP3   OH244142   3.654   3.640  12.165  0.4798 -0.4078  0.0657
 7576TIP3    H144143   3.582   3.586  12.132 -0.4149  1.8037 -1.7264
 7576TIP3    H244144   3.695   3.676  12.087  0.9844  1.5908  1.2060
 7577TIP3   OH244145   1.555   3.596   0.357  0.1037 -0.1709 -0.4146
 7577TIP3    H144146   1.477   3.649   0.343  0.0680 -0.6297 -2.0125
 7577TIP3    H244147   1.548   3.567   0.448 -2.6818 -1.9858 -1.1539
 7578TIP3   OH244148   5.793   5.206  13.481 -0.0556  0.4651 -0.2657
 7578TIP3    H144149   5.728   5.153  13.526  0.7648  0.4087  0.8740
 7578TIP3    H244150   5.833   5.260  13.550  3.7336 -2.1595 -0.2377
 7579TIP3   OH244151   2.087   3.775  12.830 -0.1968  0.3837  0.1000
 7579TIP3    H144152   2.055   3.691  12.797  1.9486 -0.4616  0.0716
 7579TIP3    H244153   2.008   3.824  12.851 -1.5226 -0.9914 -1.5014
 7580TIP3   OH244154   1.219   5.151  13.884 -0.0980  0.2512  0.2772
 7580TIP3    H144155   1.227   5.136  13.790 -0.2644  0.3103  0.2526
 7580TIP3    H244156   1.182   5.070  13.919 -0.4439  0.3890  0.2301
 7581TIP3   OH244157   6.630   4.926   0.007 -0.0880  0.3186  0.2513
 7581TIP3    H144158   6.626   4.925   0.102  0.7939  1.3828  0.3087
 7581TIP3    H244159   6.669   4.841  -0.016 -0.1128  0.1450  0.8460
 7582TIP3   OH244160   3.049   5.992   2.039 -0.2740  0.7616 -0.5791
 7582TIP3    H144161   2.976   6.032   2.086 -0.7034  0.2370 -0.7958
 7582TIP3    H244162   3.032   5.898   2.043 -0.6946  0.7347 -2.3929
 7583TIP3   OH244163   2.803   1.963  14.094 -0.0122  0.1773 -0.2078
 7583TIP3    H144164   2.781   2.005  14.011 -0.7664 -0.1572 -0.1771
 7583TIP3    H244165   2.895   1.984  14.108  0.5039 -0.9386 -1.8271
 7584TIP3   OH244166   3.167   0.539   0.580  0.2508 -0.1569  0.2857
 7584TIP3    H144167   3.075   0.543   0.554  0.7551 -2.9839 -2.1386
 7584TIP3    H244168   3.176   0.455   0.625  1.3353  0.7707  1.8347
 7585TIP3   OH244169   3.639   2.677  12.583 -0.6912 -0.0910 -0.2388
 7585TIP3    H144170   3.593   2.680  12.499  0.2681 -1.1734 -0.8241
 7585TIP3    H244171   3.715   2.734  12.571 -0.4878 -0.3430 -0.1453
 7586TIP3   OH244172   6.638   7.088  14.265 -0.1378 -0.2657  0.2624
 7586TIP3    H144173   6.625   7.167  14.317  3.3452 -0.0377  0.8544
 7586TIP3    H244174   6.625   7.016  14.326 -0.0230 -0.0815  0.5044
 7587TIP3   OH244175   3.167   5.213  14.742 -0.3757 -0.6754  0.1306
 7587TIP3    H144176   3.190   5.304  14.720 -2.9748  0.3783  1.5257
 7587TIP3    H244177   3.160   5.169  14.657 -0.6467  0.8578 -0.6730
 7588TIP3   OH244178   6.110   0.984  15.776  0.2276 -0.0427 -0.3320
 7588TIP3    H144179   6.150   1.001  15.691  2.3199 -0.8272  0.4506
 7588TIP3    H244180   6.052   1.058  15.791  2.3776  1.8256 -0.9511
 7589TIP3   OH244181   3.544   2.914   1.412  0.5735  0.1807  0.0770
 7589TIP3    H144182   3.629   2.956   1.406  0.7798 -0.2039  0.2710
 7589TIP3    H244183   3.487   2.965   1.355 -0.0352  2.8160  2.9335
 7590TIP3   OH244184   3.441   0.089  11.594 -0.1553 -0.4926 -0.5536
 7590TIP3    H144185   3.350   0.102  11.620 -0.2682 -2.2104 -0.0199
 7590TIP3    H244186   3.457  -0.004  11.609  1.5495 -0.3013 -1.0894
 7591TIP3   OH244187   4.767   1.614  11.301 -0.0555 -0.1215  0.6610
 7591TIP3    H144188   4.781   1.678  11.231 -0.6716  0.1167  0.7518
 7591TIP3    H244189   4.775   1.529  11.258 -1.8302  0.0312  0.0166
 7592TIP3   OH244190   5.028   1.234  11.764 -0.4031  0.3144 -0.2154
 7592TIP3    H144191   4.980   1.154  11.784  0.6368 -0.3047 -0.1617
 7592TIP3    H244192   5.034   1.280  11.848 -0.2078  0.0156 -0.0667
 7593TIP3   OH244193   5.243   2.431  12.252 -0.5522 -0.4329  0.4247
 7593TIP3    H144194   5.209   2.476  12.330  1.7592  1.6104  0.3103
 7593TIP3    H244195   5.289   2.355  12.287 -1.4334 -0.7838  0.8629
 7594TIP3   OH244196   3.668   4.468   2.904 -0.4242 -0.7974  0.0319
 7594TIP3    H144197   3.578   4.437   2.898 -0.6767 -0.0555  0.0321
 7594TIP3    H244198   3.700   4.434   2.988 -0.4235 -1.7941 -0.3692
 7595TIP3   OH244199   2.757   2.049  15.198 -0.4426  0.2565 -0.2722
 7595TIP3    H144200   2.720   2.137  15.198  1.8017  1.2509  0.7853
 7595TIP3    H244201   2.743   2.017  15.287  0.1703  0.1990 -0.1887
 7596TIP3   OH244202   5.923   3.529  13.808 -0.7441  0.4592  0.0235
 7596TIP3    H144203   5.880   3.527  13.723  0.0486 -1.2482 -0.3541
 7596TIP3    H244204   5.883   3.457  13.857  0.0172  0.3467  0.4852
 7597TIP3   OH244205   1.975   0.642  12.225 -0.4578 -0.1758  0.2708
 7597TIP3    H144206   1.918   0.719  12.232 -0.5437 -0.1574 -0.5417
 7597TIP3    H244207   2.059   0.671  12.262 -0.5133  0.2882  0.0385
 7598TIP3   OH244208   2.700   4.157   0.378 -0.4756  0.3878 -0.6682
 7598TIP3    H144209   2.696   4.230   0.439  1.3511  0.8389 -1.0522
 7598TIP3    H244210   2.619   4.108   0.393 -1.9020  2.6788 -0.6665
 7599TIP3   OH244211   0.931   5.291  15.000  0.6873  0.4493 -0.0806
 7599TIP3    H144212   1.010   5.344  15.014  0.3404  0.7888  0.6317
 7599TIP3    H244213   0.883   5.297  15.083 -0.7835  1.4134 -0.9740
 7600TIP3   OH244214   4.526   5.044   2.143 -0.2121  0.9101  0.4059
 7600TIP3    H144215   4.443   5.011   2.111 -1.1394  2.9812  0.5733
 7600TIP3    H244216   4.513   5.139   2.150  2.7513  1.5287 -1.4210
 7601TIP3   OH244217   2.807   0.248  12.727 -0.4607  0.0545 -0.0048
 7601TIP3    H144218   2.788   0.342  12.734  2.2193  0.5729  0.7232
 7601TIP3    H244219   2.783   0.225  12.637 -3.5401  0.8217  0.5395
 7602TIP3   OH244220   1.622   0.800  13.607 -0.7434  0.3076 -0.2196
 7602TIP3    H144221   1.669   0.772  13.686  0.0891 -1.1802 -1.1965
 7602TIP3    H244222   1.688   0.848  13.556 -0.6218 -0.7072 -1.0317
 7603TIP3   OH244223   2.759   5.336  15.084 -0.2155  0.3911  0.5833
 7603TIP3    H144224   2.795   5.321  14.996 -1.4705  1.5765 -0.1599
 7603TIP3    H244225   2.703   5.260  15.101 -0.6872  0.6011 -0.0269
 7604TIP3   OH244226   3.672   0.227  15.963 -0.5544 -0.0261  0.6004
 7604TIP3    H144227   3.633   0.201  15.880  0.3853 -0.8993  0.4245
 7604TIP3    H244228   3.657   0.152  16.021  0.7772 -0.3428  0.5528
 7605TIP3   OH244229   4.264   2.497  13.197  0.2730  0.3265 -0.5102
 7605TIP3    H144230   4.216   2.475  13.277 -0.7662 -0.2191 -1.2823
 7605TIP3    H244231   4.331   2.428  13.190  0.1867  0.2167 -0.2667
 7606TIP3   OH244232   3.385   5.654  14.708 -0.6634 -0.2449 -0.4613
 7606TIP3    H144233   3.421   5.573  14.673  1.1049  0.8763 -1.2848
 7606TIP3    H244234   3.332   5.689  14.636  0.1766  0.3145 -0.8163
 7607TIP3   OH244235   4.813   3.763   0.595  0.2244  0.1815 -0.0579
 7607TIP3    H144236   4.818   3.833   0.530 -0.5403 -0.1391 -0.4657
 7607TIP3    H244237   4.775   3.805   0.672  2.2086  0.8464  0.5934
 7608TIP3   OH244238   1.909   1.115   1.114 -0.3380 -0.4474 -0.3233
 7608TIP3    H144239   1.829   1.082   1.075 -0.5582  0.0322 -0.2798
 7608TIP3    H244240   1.977   1.053   1.085 -0.6695 -0.6814 -0.6078
 7609TIP3   OH244241   2.288   2.276  12.618 -0.5095  0.2258 -0.3006
 7609TIP3    H144242   2.335   2.209  12.568 -0.4872 -0.7345  0.9757
 7609TIP3    H244243   2.273   2.346  12.555  1.4393 -0.0286 -1.0875
 7610TIP3   OH244244   6.985   2.708  15.641  0.2599 -0.4146  0.2251
 7610TIP3    H144245   7.061   2.676  15.688 -0.7473 -1.6534  1.0277
 7610TIP3    H244246   6.975   2.799  15.670  0.8198 -0.5637  0.8875
 7611TIP3   OH244247   2.217   2.921  13.978 -0.1378  0.1455 -0.7846
 7611TIP3    H144248   2.196   2.983  13.908 -0.1452  1.0324 -0.0080
 7611TIP3    H244249   2.308   2.898  13.962  0.4586  1.8316  0.0110
 7612TIP3   OH244250   4.786   5.448  13.002 -0.1512 -0.6201 -0.3782
 7612TIP3    H144251   4.864   5.399  12.975  1.2454  0.9707  0.6510
 7612TIP3    H244252   4.793   5.452  13.097 -1.0156  0.3112 -0.3540
 7613TIP3   OH244253   1.423   2.426  11.751 -0.4474  0.1910  0.2367
 7613TIP3    H144254   1.386   2.409  11.838  0.3964 -0.6407  0.4418
 7613TIP3    H244255   1.498   2.366  11.744  1.0114  2.0016 -0.0805
 7614TIP3   OH244256   1.693   4.387   3.268  0.4838 -0.0544 -0.2711
 7614TIP3    H144257   1.654   4.399   3.354 -0.1260 -1.0798 -0.3890
 7614TIP3    H244258   1.728   4.472   3.245  0.0487  0.3910  0.7038
 7615TIP3   OH244259   4.993   2.066  14.177 -0.2898 -0.2983  0.2627
 7615TIP3    H144260   5.058   1.996  14.184  1.4028  1.0615 -1.5137
 7615TIP3    H244261   4.911   2.024  14.203  0.8626 -2.6713  0.2630
 7616TIP3   OH244262   2.568   2.111  15.909 -0.3518  0.2209 -0.5594
 7616TIP3    H144263   2.602   2.024  15.933 -2.2237 -0.4729 -0.3503
 7616TIP3    H244264   2.598   2.168  15.980 -0.1459 -0.4904 -0.0588
 7617TIP3   OH244265   2.392   2.968  11.710 -0.2592 -0.0460  0.3537
 7617TIP3    H144266   2.422   2.969  11.619  1.2141 -1.4586  0.7956
 7617TIP3    H244267   2.367   2.877  11.727  1.6600 -0.3082  2.0168
 7618TIP3   OH244268   2.654   1.427  15.134  0.0382 -0.1686  0.2228
 7618TIP3    H144269   2.570   1.452  15.174 -0.3349 -0.9406 -0.0779
 7618TIP3    H244270   2.697   1.511  15.117 -0.9829  0.2667 -0.2834
 7619TIP3   OH244271   5.176   3.834  13.286  0.2021  0.2946  0.2248
 7619TIP3    H144272   5.171   3.756  13.342  0.2213 -0.5888 -0.9825
 7619TIP3    H244273   5.234   3.809  13.214 -0.9617  0.9016 -0.9632
 7620TIP3   OH244274   4.417   3.931  14.582  0.0843 -0.1128 -0.3339
 7620TIP3    H144275   4.490   3.889  14.627 -0.0509  0.2428  0.2279
 7620TIP3    H244276   4.445   4.022  14.570  0.0043 -0.1383 -0.7131
 7621TIP3   OH244277   3.215   1.682  12.299 -0.0351 -0.3296 -0.4139
 7621TIP3    H144278   3.262   1.664  12.217  2.9825 -2.2713  1.6167
 7621TIP3    H244279   3.179   1.597  12.325 -1.3213  0.3573  0.0890
 7622TIP3   OH244280   2.521   7.214   0.789 -0.1312 -0.1810  0.2375
 7622TIP3    H144281   2.452   7.195   0.853 -0.0480  0.8464  0.6511
 7622TIP3    H244282   2.474   7.229   0.707 -0.4823  1.3114  0.6940
 7623TIP3   OH244283   5.288   4.418  15.537 -0.2796  0.0721 -0.0503
 7623TIP3    H144284   5.375   4.446  15.510 -0.3774  0.4021 -0.0193
 7623TIP3    H244285   5.259   4.359  15.467 -1.1340  2.0679 -1.4502
 7624TIP3   OH244286   5.539   1.051   0.856 -0.6051 -0.1766 -0.1327
 7624TIP3    H144287   5.603   1.102   0.906  0.2526 -2.4705  1.1895
 7624TIP3    H244288   5.494   0.998   0.922 -0.8912 -1.7499 -1.5622
 7625TIP3   OH244289   4.184   3.443  13.836  0.0485  0.4416  0.1650
 7625TIP3    H144290   4.160   3.530  13.802  1.2146  0.8703  0.4273
 7625TIP3    H244291   4.187   3.454  13.931 -1.3675 -0.2990  0.3187
 7626TIP3   OH244292   2.775   1.189  15.717 -0.2101  0.4331 -0.5912
 7626TIP3    H144293   2.741   1.122  15.658 -1.3154  0.5565 -0.1040
 7626TIP3    H244294   2.780   1.147  15.802 -0.6960  0.9003 -0.3283
 7627TIP3   OH244295   0.010   3.925  14.708 -0.2559 -0.0906  0.3638
 7627TIP3    H144296   0.028   3.936  14.614 -0.6546  1.2660  0.4315
 7627TIP3    H244297   0.021   3.832  14.724 -1.6458 -0.5779 -1.3516
 7628TIP3   OH244298   3.168   1.092  12.032  0.6627  0.3592  0.2388
 7628TIP3    H144299   3.175   1.099  11.937  1.6518  0.5709  0.3269
 7628TIP3    H244300   3.111   1.164  12.058  0.8592  0.6464 -0.1352
 7629TIP3   OH244301   1.093   2.124  14.111 -0.2495 -0.2356  0.1563
 7629TIP3    H144302   1.125   2.187  14.046  0.7527  0.4053  1.2561
 7629TIP3    H244303   1.022   2.078  14.066  0.9709 -0.3678 -1.6847
 7630TIP3   OH244304   3.353   6.622  12.225  0.7218 -0.0438  0.0135
 7630TIP3    H144305   3.358   6.648  12.317 -0.2548 -0.7930  0.2914
 7630TIP3    H244306   3.285   6.678  12.187  0.7320 -0.1171 -0.1126
 7631TIP3   OH244307   4.421   5.097  11.609  0.1301 -0.3040 -0.0613
 7631TIP3    H144308   4.487   5.062  11.669  0.9926 -0.5478 -1.1322
 7631TIP3    H244309   4.399   5.023  11.553  1.9230  0.7863 -2.3169
 7632TIP3   OH244310   4.163   1.697  11.190  0.4068 -0.1024  0.5502
 7632TIP3    H144311   4.224   1.640  11.144  1.3072  0.7085  0.7148
 7632TIP3    H244312   4.154   1.773  11.133 -0.1575 -0.0569  0.7015
 7633TIP3   OH244313   3.299   1.092  15.039 -0.3832 -0.2043 -0.0221
 7633TIP3    H144314   3.236   1.021  15.047 -1.4918  0.6824 -0.7578
 7633TIP3    H244315   3.336   1.101  15.127 -0.8764 -1.0934  0.2791
 7634TIP3   OH244316   0.865   0.313  13.774  0.3599  0.4618 -0.7042
 7634TIP3    H144317   0.791   0.304  13.715  1.3419 -0.6118 -1.7988
 7634TIP3    H244318   0.904   0.398  13.751 -1.1127  1.5355  0.5974
 7635TIP3   OH244319   0.602   1.368  12.310 -0.3483  0.7936  0.6483
 7635TIP3    H144320   0.653   1.378  12.391 -0.6650  0.8025  0.8477
 7635TIP3    H244321   0.511   1.381  12.338 -0.5896 -0.6399  0.5573
 7636TIP3   OH244322   1.858   1.590  13.077  0.0556 -0.5628 -0.0175
 7636TIP3    H144323   1.801   1.537  13.133 -2.2088  0.7216 -1.0126
 7636TIP3    H244324   1.876   1.534  13.001  2.4705 -2.0079  1.5666
 7637TIP3   OH244325   1.764   4.371   0.422  0.0106  1.3940 -0.1301
 7637TIP3    H144326   1.770   4.452   0.472 -0.0940  1.6814 -0.5759
 7637TIP3    H244327   1.794   4.303   0.482 -0.3390  1.7027  0.3981
 7638TIP3   OH244328   3.013   3.097   1.689 -0.4586  0.6125  0.0614
 7638TIP3    H144329   2.954   3.170   1.708 -0.5580 -0.1258  2.8038
 7638TIP3    H244330   3.093   3.117   1.739 -0.9653 -1.7263  1.9157
 7639TIP3   OH244331   3.490   3.574  14.911  0.5533  0.0380  0.2436
 7639TIP3    H144332   3.482   3.574  14.815  0.5202 -1.7637  0.2254
 7639TIP3    H244333   3.566   3.519  14.929  0.0423 -0.3339  1.2918
 7640TIP3   OH244334   4.929   2.884  12.497 -0.0310  0.6254  0.0351
 7640TIP3    H144335   5.024   2.876  12.499 -0.0968 -0.0494  0.5937
 7640TIP3    H244336   4.906   2.916  12.585 -0.4632 -0.8791  0.4791
 7641TIP3   OH244337   3.370   3.946  12.635  0.9671  0.6504 -0.2282
 7641TIP3    H144338   3.355   3.891  12.558 -0.2870  0.5782  0.0428
 7641TIP3    H244339   3.311   3.909  12.701  0.3764  2.1059  0.0634
 7642TIP3   OH244340   4.881   1.011   0.894 -1.1023  0.3454 -0.3553
 7642TIP3    H144341   4.829   0.946   0.847 -1.7747  0.2037  0.5555
 7642TIP3    H244342   4.972   0.981   0.885 -1.4651 -1.1124  0.6382
 7643TIP3   OH244343   4.249   2.124  12.994  0.2368  0.0039  1.0997
 7643TIP3    H144344   4.333   2.140  12.951 -0.7192  3.6221  0.3730
 7643TIP3    H244345   4.206   2.059  12.938  0.7733  1.4632 -1.0993
 7644TIP3   OH244346   4.942   2.570  14.823  0.2956 -0.5859 -0.5097
 7644TIP3    H144347   4.892   2.559  14.742 -0.4766  1.1870 -0.3153
 7644TIP3    H244348   5.022   2.616  14.795  0.4001 -0.6991 -0.3952
 7645TIP3   OH244349   1.315   0.583  10.774 -0.0313 -0.2407  0.1976
 7645TIP3    H144350   1.245   0.523  10.801 -0.2255 -0.4098 -0.6405
 7645TIP3    H244351   1.273   0.640  10.710  0.9289 -1.2515 -1.3729
 7646TIP3   OH244352   6.523   5.079  15.266 -0.0766  0.2157 -0.1798
 7646TIP3    H144353   6.440   5.036  15.287 -0.8754  1.4247 -0.7754
 7646TIP3    H244354   6.500   5.172  15.257  1.3717  0.5827 -0.2049
 7647TIP3   OH244355   1.857   1.719  14.980  0.1460 -0.6066  0.0712
 7647TIP3    H144356   1.801   1.724  14.903 -1.4879 -0.8366  1.2296
 7647TIP3    H244357   1.904   1.636  14.970 -0.5941 -0.9830 -0.3191
 7648TIP3   OH244358   1.502   3.245  14.973 -0.2395 -0.0764 -0.6188
 7648TIP3    H144359   1.549   3.289  14.902  0.4001 -0.9125 -0.7225
 7648TIP3    H244360   1.410   3.264  14.956 -0.1987 -1.3952 -2.4635
 7649TIP3   OH244361   4.101   2.657  14.383 -0.0526  0.0764  0.3875
 7649TIP3    H144362   4.026   2.673  14.440  0.1937  0.0021  0.7411
 7649TIP3    H244363   4.164   2.611  14.439  0.7273  1.1915  0.4517
 7650TIP3   OH244364   3.777   2.392  15.608 -0.6249 -0.6295  0.1316
 7650TIP3    H144365   3.857   2.442  15.626 -1.3784  1.6412 -2.5470
 7650TIP3    H244366   3.727   2.397  15.689  0.7452  0.1925  0.9515
 7651TIP3   OH244367   5.270   2.841  13.420  0.0660  0.4612 -0.4280
 7651TIP3    H144368   5.290   2.791  13.341  0.4793 -0.4149  0.2203
 7651TIP3    H244369   5.211   2.785  13.470 -1.1454  1.5145 -0.6514
 7652TIP3   OH244370   3.289   3.093  10.776  0.1289 -0.3427  0.3545
 7652TIP3    H144371   3.295   3.108  10.682  2.2077  0.7538  0.6405
 7652TIP3    H244372   3.231   3.163  10.808  0.4904  0.0894  0.0668
 7653TIP3   OH244373   4.250   6.113  13.239 -0.5130  0.0249 -0.1866
 7653TIP3    H144374   4.325   6.125  13.296 -0.5858 -0.5673  0.0348
 7653TIP3    H244375   4.218   6.202  13.223  0.9269  0.3575 -1.2327
 7654TIP3   OH244376   3.200   2.177  13.628  0.1032 -0.4568  0.5706
 7654TIP3    H144377   3.284   2.213  13.600 -0.4345  0.6651  0.3854
 7654TIP3    H244378   3.218   2.138  13.713  1.0056 -1.0123  0.1403
 7655TIP3   OH244379   7.247   2.930   1.090 -0.3746 -0.0185  0.3240
 7655TIP3    H144380   7.336   2.938   1.124  0.5149 -0.9157 -1.6723
 7655TIP3    H244381   7.214   3.019   1.089  0.9520  0.4854 -0.0448
 7656TIP3   OH244382   2.581   2.566   0.851  0.3534 -0.3033  0.0000
 7656TIP3    H144383   2.558   2.521   0.932 -2.7778 -0.3740 -0.8949
 7656TIP3    H244384   2.594   2.496   0.787 -1.2614 -0.1138 -0.5617
 7657TIP3   OH244385   2.747   1.681  15.143  0.5562  0.5703 -0.2931
 7657TIP3    H144386   2.807   1.740  15.098  0.9712  1.2256  1.1010
 7657TIP3    H244387   2.689   1.739  15.193  0.4237 -0.1636  0.4200
 7658TIP3   OH244388   4.059   4.119  12.602 -0.0578  0.0307 -0.6734
 7658TIP3    H144389   3.972   4.127  12.641  0.9506  3.2757  1.0532
 7658TIP3    H244390   4.120   4.132  12.674  1.9299 -2.6517 -1.7730
 7659TIP3   OH244391   0.853   1.800  15.465  0.2934  0.6328 -0.2760
 7659TIP3    H144392   0.850   1.747  15.385  1.6667  2.3330 -1.4886
 7659TIP3    H244393   0.813   1.883  15.440  0.6574  1.1505  0.8451
 7660TIP3   OH244394   4.601   1.444  13.639 -0.0108 -0.0662  0.2902
 7660TIP3    H144395   4.588   1.373  13.576 -0.7599  0.7296 -0.4641
 7660TIP3    H244396   4.692   1.435  13.667  0.3384 -0.4004 -0.9362
 7661TIP3   OH244397   4.104   0.402   3.113  0.3309  0.0235  0.1502
 7661TIP3    H144398   4.109   0.310   3.138  0.1447  0.1588  0.6831
 7661TIP3    H244399   4.039   0.404   3.043 -0.3803 -0.1059  0.8115
 7662TIP3   OH244400   3.125   6.016  13.914  0.3226 -0.7169 -0.1344
 7662TIP3    H144401   3.037   6.023  13.877  0.3502 -1.0309 -0.2523
 7662TIP3    H244402   3.164   5.941  13.870  0.7208 -0.4555 -0.2246
 7663TIP3   OH244403   1.482   2.998  12.608 -0.0155  0.5105  0.6988
 7663TIP3    H144404   1.472   2.962  12.696 -0.9992 -0.4448  0.2156
 7663TIP3    H244405   1.489   3.092  12.621  0.0277  0.3596  1.8120
 7664TIP3   OH244406   6.687   2.473  13.862 -0.0698  0.0103 -0.0323
 7664TIP3    H144407   6.657   2.382  13.871  1.2889 -0.4746 -0.2475
 7664TIP3    H244408   6.700   2.484  13.768 -0.3980  0.4885 -0.0206
 7665TIP3   OH244409   5.281   3.046  14.774 -0.4108  0.2731 -0.6454
 7665TIP3    H144410   5.245   3.100  14.844  1.3739 -0.2427  0.7008
 7665TIP3    H244411   5.373   3.037  14.796 -0.0851 -0.9235 -2.4220
 7666TIP3   OH244412   5.813   4.498  14.949 -0.0948 -0.3310  0.1063
 7666TIP3    H144413   5.847   4.429  15.006  1.3600  0.5346  0.3220
 7666TIP3    H244414   5.739   4.535  14.997  0.8818  0.1384  1.3027
 7667TIP3   OH244415   0.098   4.546  13.789 -0.0190 -0.2350 -0.4780
 7667TIP3    H144416   0.029   4.612  13.795 -1.7787 -2.0607 -0.3568
 7667TIP3    H244417   0.077   4.496  13.711  0.3021 -1.7928  0.4271
 7668TIP3   OH244418   3.032   2.585  14.350 -0.7436  0.1183 -0.5429
 7668TIP3    H144419   3.107   2.615  14.298  0.2288 -2.5756 -0.7494
 7668TIP3    H244420   2.978   2.535  14.289 -2.0453  0.8781 -0.0522
 7669TIP3   OH244421   5.340   0.340  12.536  0.1590 -0.2733  0.5990
 7669TIP3    H144422   5.390   0.258  12.538  0.7477  0.0696  0.0622
 7669TIP3    H244423   5.283   0.331  12.460 -1.0734 -0.9317  1.5728
 7670TIP3   OH244424   6.126   5.226  14.697 -0.3074  0.8423 -0.0910
 7670TIP3    H144425   6.061   5.295  14.686 -2.1806 -0.6944  1.0713
 7670TIP3    H244426   6.180   5.232  14.618 -1.8498  2.1554 -1.0917
 7671TIP3   OH244427   6.930   2.772   0.197 -0.2862 -0.2446  0.4126
 7671TIP3    H144428   6.873   2.698   0.220 -0.7146  0.0189  0.2183
 7671TIP3    H244429   7.019   2.739   0.208 -0.4346 -1.4787 -1.7860
 7672TIP3   OH244430   1.793   3.107  15.632  0.2283  0.3917 -0.2819
 7672TIP3    H144431   1.736   3.183  15.641  0.2369  0.6144 -1.8611
 7672TIP3    H244432   1.738   3.041  15.589  1.0186  0.4512 -1.3949
 7673TIP3   OH244433   4.072   2.015   1.472  0.4143 -0.0298  0.1336
 7673TIP3    H144434   4.051   1.924   1.491 -1.7406  0.3260 -0.3682
 7673TIP3    H244435   4.166   2.022   1.488  0.6517 -2.3862 -0.0313
 7674TIP3   OH244436   5.924   3.677   0.564 -0.1695  0.1715  0.1942
 7674TIP3    H144437   5.876   3.743   0.513  1.6848  0.6792 -0.9616
 7674TIP3    H244438   6.013   3.710   0.566  0.5782 -1.8412  0.4300
 7675TIP3   OH244439   0.625   4.074  13.504 -0.1630 -0.0965  0.1991
 7675TIP3    H144440   0.530   4.077  13.492 -0.4863 -0.5330  2.4371
 7675TIP3    H244441   0.656   4.154  13.461 -1.9180  1.8437  2.3639
 7676TIP3   OH244442   4.749   3.951  15.006 -0.6714 -0.1691 -0.2777
 7676TIP3    H144443   4.839   3.924  15.028  0.1965  2.1756 -0.8533
 7676TIP3    H244444   4.731   4.024  15.064 -1.7070  0.2626 -1.1291
 7677TIP3   OH244445   0.021   2.239  11.456 -0.3564  0.4670  0.2916
 7677TIP3    H144446  -0.010   2.237  11.365  0.0639  0.5838  0.1459
 7677TIP3    H244447   0.099   2.183  11.455  0.6389  1.8405  0.2162
 7678TIP3   OH244448   5.645   3.707  12.813 -0.2561  0.1651  0.0169
 7678TIP3    H144449   5.612   3.765  12.881 -0.8264 -0.6429  0.4387
 7678TIP3    H244450   5.592   3.628  12.821 -1.2269  0.5330 -2.1951
 7679TIP3   OH244451   4.223   3.663  14.908  0.2905 -0.2689 -0.1895
 7679TIP3    H144452   4.209   3.719  14.831 -0.6654 -1.6203 -1.0164
 7679TIP3    H244453   4.167   3.701  14.976  0.5330  0.4662 -0.4004
 7680TIP3   OH244454   4.385   4.119  14.937  0.2205 -0.1304  0.0098
 7680TIP3    H144455   4.428   4.051  14.884  0.1437 -1.3276  1.4553
 7680TIP3    H244456   4.455   4.180  14.959  1.0642 -1.6516  1.6926
 7681TIP3   OH244457   3.633   3.794  13.605 -0.4339 -0.0192  0.1926
 7681TIP3    H144458   3.719   3.831  13.581 -0.0352 -0.8492  0.3113
 7681TIP3    H244459   3.585   3.792  13.522 -0.6331  1.2019  0.2699
 7682TIP3   OH244460   3.290   3.111  14.621 -0.7991 -0.4028  0.3429
 7682TIP3    H144461   3.206   3.094  14.663 -0.9868  0.6436  0.4268
 7682TIP3    H244462   3.277   3.088  14.529 -0.3879 -2.7098  0.8343
 7683TIP3   OH244463   4.257   1.609  14.912  0.3642  0.0727 -0.0033
 7683TIP3    H144464   4.196   1.560  14.966 -0.6817  2.4870  1.0819
 7683TIP3    H244465   4.206   1.683  14.878  1.8652  0.4215 -1.6247
 7684TIP3   OH244466   5.329   2.324  14.982 -0.1234  0.2507  0.6375
 7684TIP3    H144467   5.263   2.274  15.030  2.1454 -2.0359  1.5064
 7684TIP3    H244468   5.408   2.317  15.035  0.9482  2.6106 -0.5555
 7685TIP3   OH244469   0.624   3.694   0.234  0.0300  0.6842 -0.5246
 7685TIP3    H144470   0.592   3.725   0.150 -0.3784  1.0600 -0.2311
 7685TIP3    H244471   0.666   3.610   0.214 -3.0031 -0.8793 -0.5813
 7686TIP3   OH244472   0.663   3.963  14.150 -0.3102 -0.4896  0.1482
 7686TIP3    H144473   0.576   3.979  14.112  0.1432  0.9881 -0.2872
 7686TIP3    H244474   0.645   3.932  14.239 -1.2855 -0.5046 -0.0450
 7687TIP3   OH244475   3.771   3.024   0.598 -0.1117  0.4069 -0.0083
 7687TIP3    H144476   3.780   3.086   0.526  0.8549 -0.6200 -0.7988
 7687TIP3    H244477   3.860   2.995   0.617 -0.7452 -2.8246 -1.5392
 7688TIP3   OH244478   6.051   2.386   0.624  0.1680 -1.0132  0.2582
 7688TIP3    H144479   6.003   2.303   0.626  1.4671 -1.8043 -0.3420
 7688TIP3    H244480   5.984   2.452   0.607 -0.8799 -1.9410  0.6887
 7689TIP3   OH244481   4.534   2.118   0.158 -0.6812 -0.2001 -0.1060
 7689TIP3    H144482   4.626   2.122   0.133 -0.6062  0.0051  0.2016
 7689TIP3    H244483   4.487   2.122   0.075 -0.5421  4.0503 -0.1021
 7690TIP3   OH244484   4.879   4.213   1.591  0.4358  0.8062  0.6179
 7690TIP3    H144485   4.788   4.215   1.561 -0.2122 -0.4426  2.3705
 7690TIP3    H244486   4.872   4.202   1.686  2.4201  1.4922  0.8594
 7691TIP3   OH244487   6.075   4.904  15.977  0.2978 -0.1940 -0.1521
 7691TIP3    H144488   6.134   4.955  16.033 -0.9167  1.0595  0.0127
 7691TIP3    H244489   6.014   4.969  15.942 -1.3163 -1.5562  0.0953
 7692TIP3   OH244490   4.579   6.332  12.485 -0.1834 -0.1996 -0.5382
 7692TIP3    H144491   4.589   6.326  12.580 -0.4905  2.0338 -0.3447
 7692TIP3    H244492   4.668   6.326  12.451  0.4666  3.6920  0.2190
 7693TIP3   OH244493   4.851   4.296  12.425  0.0233  0.0900 -0.2402
 7693TIP3    H144494   4.804   4.290  12.508  1.0423 -1.4136  0.2586
 7693TIP3    H244495   4.942   4.275  12.447  0.0220 -1.9932 -1.9714
 7694TIP3   OH244496   0.934   0.962  15.345  0.3000 -0.1692 -0.2739
 7694TIP3    H144497   0.882   0.987  15.421  0.6560 -0.5977  0.1147
 7694TIP3    H244498   0.962   1.045  15.306  0.3305  0.0454  0.2065
 7695TIP3   OH244499   2.482   1.800  15.319  0.5329  0.2045  0.4340
 7695TIP3    H144500   2.408   1.781  15.378  0.5457  1.2820  0.8161
 7695TIP3    H244501   2.558   1.805  15.377  0.7287  0.1718  0.1801
 7696TIP3   OH244502   4.158   5.105  14.901 -0.1930 -0.6051  0.5495
 7696TIP3    H144503   4.212   5.044  14.951  0.4027  0.5787  1.3452
 7696TIP3    H244504   4.081   5.053  14.877  0.2270 -1.6278  1.3692
 7697TIP3   OH244505   4.295   3.038   2.485  0.1095 -0.5509  0.0565
 7697TIP3    H144506   4.311   3.089   2.406 -2.1672 -1.0354 -0.7589
 7697TIP3    H244507   4.268   3.102   2.551  0.2445 -0.3624 -0.0703
 7698TIP3   OH244508   1.197   4.360  14.815 -0.0378 -0.2122 -0.2113
 7698TIP3    H144509   1.288   4.380  14.793  0.1126  2.1440  2.2809
 7698TIP3    H244510   1.194   4.264  14.822  2.0128 -0.3673 -1.2386
 7699TIP3   OH244511   5.491   2.050  15.187  0.3687  0.1110  0.0609
 7699TIP3    H144512   5.442   2.035  15.268 -2.9669  2.9310 -1.3308
 7699TIP3    H244513   5.446   1.999  15.121  1.1194  0.3570 -0.6583
 7700TIP3   OH244514   2.705   3.616   0.956 -0.4761  0.5787  0.1236
 7700TIP3    H144515   2.763   3.621   1.032 -1.3270  0.6369  0.7759
 7700TIP3    H244516   2.669   3.704   0.947  0.9033  0.9982 -1.3652
 7701TIP3   OH244517   0.326   4.348  14.216  0.7407 -0.3564  0.2866
 7701TIP3    H144518   0.305   4.323  14.127  0.5087  1.2283 -0.1231
 7701TIP3    H244519   0.242   4.373  14.255  0.9858  0.0053  0.5975
 7702TIP3   OH244520   3.166   3.500  15.788 -0.2941 -0.3607 -0.3943
 7702TIP3    H144521   3.255   3.485  15.757  0.2298 -2.0133  1.8011
 7702TIP3    H244522   3.119   3.419  15.770 -0.9669 -0.0150 -0.2417
 7703TIP3   OH244523   3.161   0.043  13.630 -0.4364 -0.1995 -0.5433
 7703TIP3    H144524   3.103  -0.025  13.594  0.5282 -0.6549 -1.2821
 7703TIP3    H244525   3.220  -0.005  13.688 -0.3574  0.1549 -0.3336
 7704TIP3   OH244526   6.291   1.470   1.503 -0.5373  0.1622  0.0400
 7704TIP3    H144527   6.322   1.392   1.549  0.6493 -0.2339 -1.3968
 7704TIP3    H244528   6.304   1.542   1.565 -0.3114 -0.5752  0.8497
 7705TIP3   OH244529   4.309   0.347  10.449  0.2380  0.1668  0.0009
 7705TIP3    H144530   4.346   0.292  10.380 -1.6767 -1.8558  0.5168
 7705TIP3    H244531   4.232   0.388  10.408 -1.0797 -1.2731  0.9931
 7706TIP3   OH244532   5.827   5.634  12.331  0.3008 -0.7831  0.3390
 7706TIP3    H144533   5.732   5.620  12.332  0.0275  0.7799 -1.2311
 7706TIP3    H244534   5.863   5.549  12.307 -0.7293 -1.3146  0.6527
 7707TIP3   OH244535   1.072   1.070  11.309  0.0725 -0.4600 -1.0366
 7707TIP3    H144536   1.113   1.045  11.227  2.0289 -0.1268 -0.1824
 7707TIP3    H244537   1.087   0.996  11.368  1.0066  0.3826 -0.1888
 7708TIP3   OH244538   3.305   1.869  13.104  0.3480 -0.3359  0.4553
 7708TIP3    H144539   3.230   1.921  13.075  1.1865  0.6148  0.0032
 7708TIP3    H244540   3.320   1.898  13.194  0.7568  0.1292  0.2355
 7709TIP3   OH244541   4.433   3.241   0.751  0.0484 -0.4439  0.1840
 7709TIP3    H144542   4.359   3.271   0.699  0.5936 -1.1458 -1.0186
 7709TIP3    H244543   4.477   3.321   0.779 -0.6208 -0.0480  0.1188
 7710TIP3   OH244544   5.918   1.719   0.393  0.0512 -0.8386  0.4404
 7710TIP3    H144545   5.948   1.696   0.305  0.0192 -1.0728  0.4912
 7710TIP3    H244546   5.951   1.808   0.407 -0.1142 -0.7228  0.1134
 7711TIP3   OH244547   3.264   1.463  15.133 -0.0207  0.2997  0.0172
 7711TIP3    H144548   3.260   1.390  15.195 -0.5073  0.4369  0.1475
 7711TIP3    H244549   3.267   1.421  15.047 -0.0662  0.1236  0.1012
 7712TIP3   OH244550   4.614   1.749  11.890  0.0186 -0.0913 -0.5976
 7712TIP3    H144551   4.694   1.799  11.877 -0.7780  0.8278 -2.1488
 7712TIP3    H244552   4.616   1.683  11.820 -1.0356  0.5610 -1.2604
 7713TIP3   OH244553   1.433   3.304  13.676  0.5001  0.1527 -0.0583
 7713TIP3    H144554   1.422   3.352  13.593  1.3251 -0.5998 -0.6114
 7713TIP3    H244555   1.344   3.299  13.712  0.0022 -0.2100 -1.2910
 7714TIP3   OH244556   6.365   4.886  13.054 -0.3604 -0.1898 -0.1654
 7714TIP3    H144557   6.347   4.832  13.131  1.1045 -0.3915  0.0547
 7714TIP3    H244558   6.280   4.922  13.029 -0.7306  0.4312  1.9567
 7715TIP3   OH244559   3.214   2.339  11.184  0.1926 -0.0599  0.3048
 7715TIP3    H144560   3.231   2.268  11.121 -0.9478 -0.5473  0.5241
 7715TIP3    H244561   3.181   2.294  11.262 -0.2237  0.6894  0.5685
 7716TIP3   OH244562   1.351   1.448   1.961  0.0674 -0.2642  0.1200
 7716TIP3    H144563   1.327   1.383   2.028  0.6669  0.7932  1.3818
 7716TIP3    H244564   1.278   1.448   1.900  0.4348 -2.7525 -0.3704
 7717TIP3   OH244565   1.666   3.431  14.786 -0.1377 -0.0666  0.2140
 7717TIP3    H144566   1.646   3.520  14.757 -0.2927  0.2502  1.2684
 7717TIP3    H244567   1.703   3.442  14.874  2.5775 -0.8388 -0.8038
 7718TIP3   OH244568   5.448   2.817  15.379 -1.0587 -0.0184  0.5790
 7718TIP3    H144569   5.476   2.895  15.427  0.3702 -0.1688  0.0211
 7718TIP3    H244570   5.457   2.841  15.287 -0.3483 -0.9315  0.4095
 7719TIP3   OH244571   1.821   3.266  13.898  0.7384  0.6724 -0.0499
 7719TIP3    H144572   1.762   3.323  13.849  1.3583 -1.5572 -3.5062
 7719TIP3    H244573   1.763   3.211  13.951 -0.0150  1.9707  0.4976
 7720TIP3   OH244574   6.023   4.465  14.570  0.3753  0.3204 -0.2579
 7720TIP3    H144575   5.929   4.461  14.589  0.1377 -2.1657 -1.6886
 7720TIP3    H244576   6.036   4.554  14.536 -1.2271  1.0678  0.9651
 7721TIP3   OH244577   6.447   1.745  12.091 -0.1403 -0.3707  0.0512
 7721TIP3    H144578   6.353   1.725  12.096  0.0409 -1.0235  0.8772
 7721TIP3    H244579   6.450   1.839  12.073 -0.9608 -0.5347 -1.0535
 7722TIP3   OH244580   3.082   3.256  15.756 -0.2417  0.2050  0.1636
 7722TIP3    H144581   3.149   3.221  15.697  0.1091  1.5160 -0.2202
 7722TIP3    H244582   3.069   3.186  15.821  0.9036 -0.3849 -0.2268
 7723TIP3   OH244583   5.497   2.318  11.586 -0.6535 -0.1136 -0.5748
 7723TIP3    H144584   5.577   2.370  11.588 -0.7541  0.0784 -1.3311
 7723TIP3    H244585   5.436   2.366  11.641 -0.1672 -0.4018  0.2275
 7724TIP3   OH244586   6.382   4.361  13.066 -0.0661 -0.1122 -0.0143
 7724TIP3    H144587   6.468   4.403  13.062 -0.3533  0.4385 -0.3467
 7724TIP3    H244588   6.402   4.267  13.068  0.5650  0.0345  0.6660
 7725TIP3   OH244589   4.714   1.419  15.521  0.0113  0.1759  0.4381
 7725TIP3    H144590   4.701   1.376  15.606  0.5431  2.5289  1.7535
 7725TIP3    H244591   4.796   1.381  15.488  0.1920 -0.2310  1.3292
 7726TIP3   OH244592   7.006   3.686  11.286 -0.1925  0.7884  0.0895
 7726TIP3    H144593   7.000   3.643  11.371  0.1807 -0.6908 -0.6113
 7726TIP3    H244594   7.073   3.636  11.239 -2.9849 -0.7340 -2.4020
 7727TIP3   OH244595   6.139   0.781  10.899 -0.0407  0.3081 -0.3331
 7727TIP3    H144596   6.114   0.689  10.906  1.9913 -0.2757 -0.4035
 7727TIP3    H244597   6.069   0.828  10.944 -0.3217 -1.3961  1.0670
 7728TIP3   OH244598   3.991   1.567  13.734 -0.2068 -0.1399 -0.3044
 7728TIP3    H144599   4.035   1.652  13.734  0.2035 -0.3509  1.3360
 7728TIP3    H244600   3.924   1.575  13.666 -1.3978  2.1322  1.1012
 7729TIP3   OH244601   2.766   3.006   1.913  0.1857  0.2782  0.3082
 7729TIP3    H144602   2.725   3.066   1.849  0.6750 -0.2962 -0.5567
 7729TIP3    H244603   2.789   3.062   1.987 -3.6938  0.3446  1.5718
 7730TIP3   OH244604   1.249   5.233  14.526 -0.0895 -0.7334  0.3175
 7730TIP3    H144605   1.211   5.154  14.488 -0.3522  0.0256 -1.0666
 7730TIP3    H244606   1.261   5.292  14.451  2.2746 -0.3399  0.9707
 7731TIP3   OH244607   5.338   2.432  11.783 -0.1523 -0.0895  0.6932
 7731TIP3    H144608   5.285   2.406  11.858  0.1219 -1.2295  0.4969
 7731TIP3    H244609   5.386   2.509  11.813 -1.3328  0.4834  1.1208
 7732TIP3   OH244610   2.860   6.998   0.263  0.3791 -0.3699  0.2363
 7732TIP3    H144611   2.870   6.930   0.196 -2.0209  0.6137 -1.2147
 7732TIP3    H244612   2.790   6.966   0.319 -0.4309  0.6501 -0.1666
 7733TIP3   OH244613   5.077   0.148   1.234 -0.0997  0.1193  0.9241
 7733TIP3    H144614   4.995   0.151   1.184  0.9812 -0.0764 -0.9068
 7733TIP3    H244615   5.081   0.059   1.268 -0.0748 -0.2372  0.0050
 7734TIP3   OH244616   6.831   1.681   1.265 -0.0951  0.3567  0.4014
 7734TIP3    H144617   6.896   1.717   1.204  1.6858 -0.4870  1.7572
 7734TIP3    H244618   6.810   1.595   1.229  1.6546 -0.5317  1.4348
 7735TIP3   OH244619   4.733   5.445  15.637  0.3802  0.4191  0.1901
 7735TIP3    H144620   4.742   5.446  15.541 -0.1277 -2.5534  0.0555
 7735TIP3    H244621   4.650   5.402  15.653  0.3093  1.1805  1.9964
 7736TIP3   OH244622   5.169   7.149  10.613 -0.1516 -0.4199  0.0721
 7736TIP3    H144623   5.230   7.148  10.539  0.0764  0.6520  0.2245
 7736TIP3    H244624   5.188   7.070  10.662  0.3268 -0.6737 -0.5237
 7737TIP3   OH244625   3.947   1.780   0.486 -0.2696  0.1130 -0.1959
 7737TIP3    H144626   3.889   1.734   0.426  0.4431  0.1345 -0.9052
 7737TIP3    H244627   4.035   1.765   0.451  0.2483 -0.7656  1.4374
 7738TIP3   OH244628   2.730   1.971  14.759 -0.3965 -0.2840 -0.0872
 7738TIP3    H144629   2.656   2.018  14.797 -2.4165 -2.1742 -1.5991
 7738TIP3    H244630   2.714   1.971  14.665  2.1383  0.2452 -0.5711
 7739TIP3   OH244631   3.942   5.789   0.812  0.0990 -0.1023 -0.2670
 7739TIP3    H144632   3.899   5.749   0.888  0.0279  0.7498  0.1458
 7739TIP3    H244633   3.883   5.772   0.739 -0.3380 -0.0235  0.0659
 7740TIP3   OH244634   4.545   3.407   1.972  0.2017 -0.5210 -0.2520
 7740TIP3    H144635   4.619   3.378   2.024 -0.9526 -0.4448  1.4941
 7740TIP3    H244636   4.539   3.501   1.990 -2.1256 -1.0383  2.0759
 7741TIP3   OH244637   0.364   0.221  14.805 -0.4926  0.3289 -0.4607
 7741TIP3    H144638   0.437   0.166  14.776  1.1426  2.1994 -0.0327
 7741TIP3    H244639   0.294   0.204  14.742  0.0422 -2.0380 -0.4653
 7742TIP3   OH244640   0.368   3.262  13.139  0.3698  0.7380  0.2470
 7742TIP3    H144641   0.319   3.271  13.057  1.2462 -1.6680 -0.5837
 7742TIP3    H244642   0.301   3.244  13.205 -0.2553  1.7839 -0.0970
 7743TIP3   OH244643   5.723   0.293  15.375  0.7205  0.1562  0.4152
 7743TIP3    H144644   5.792   0.341  15.329 -0.5274  1.1910 -0.4096
 7743TIP3    H244645   5.738   0.201  15.352  3.2372  0.0953  2.1449
 7744TIP3   OH244646   2.757   2.130  13.884  0.4197 -0.9570  0.2291
 7744TIP3    H144647   2.748   2.140  13.789  0.1745 -1.4440  0.1948
 7744TIP3    H244648   2.684   2.179  13.920  1.1814  0.2069  0.2236
 7745TIP3   OH244649   0.242   4.509  15.216 -0.6466 -0.0705  0.1674
 7745TIP3    H144650   0.179   4.515  15.288 -0.2039 -2.0501  0.7317
 7745TIP3    H244651   0.188   4.505  15.137 -1.1428  1.7122  0.3966
 7746TIP3   OH244652   1.079   1.837   0.241 -0.5225 -0.3742  0.3747
 7746TIP3    H144653   1.063   1.769   0.306  0.5137 -1.0790 -0.0911
 7746TIP3    H244654   1.145   1.800   0.183 -0.8677  0.5418 -0.6351
 7747TIP3   OH244655   3.074   4.314   4.776  0.0507  0.0112 -0.0955
 7747TIP3    H144656   3.082   4.232   4.825 -0.9264  0.7588  1.3503
 7747TIP3    H244657   3.165   4.342   4.762  0.3744 -0.9333  0.0367
 7748TIP3   OH244658   2.851   7.242  13.738  0.6317 -0.7706 -0.1657
 7748TIP3    H144659   2.887   7.328  13.757  1.5838 -1.2318  0.1294
 7748TIP3    H244660   2.850   7.197  13.823 -3.8119  0.3709  0.5572
 7749TIP3   OH244661   7.096   1.871  13.548 -0.1428  0.0499  0.5719
 7749TIP3    H144662   7.089   1.845  13.456  1.6411 -0.3818  0.5331
 7749TIP3    H244663   7.114   1.965  13.545 -1.6131  0.3421  0.5455
 7750TIP3   OH244664   5.676   3.082   1.743 -0.8104 -0.1206  0.1197
 7750TIP3    H144665   5.659   3.021   1.671 -0.4214  0.9210 -0.8814
 7750TIP3    H244666   5.704   3.162   1.699  2.6669 -0.4679  1.5356
 7751TIP3   OH244667   4.982   6.592  11.784 -0.0066  0.1234 -0.7328
 7751TIP3    H144668   4.898   6.600  11.738 -0.1806  2.7566 -0.0392
 7751TIP3    H244669   5.034   6.667  11.752  0.5186  0.9595  1.9786
 7752TIP3   OH244670   4.932   1.003  11.874 -0.0750  0.0568  0.0262
 7752TIP3    H144671   4.869   0.994  11.945  1.0539  2.0493  1.3203
 7752TIP3    H244672   5.006   0.948  11.900  0.0419  0.2263  0.0551
 7753TIP3   OH244673   4.891   2.149  11.244  0.0319 -0.1911  0.5177
 7753TIP3    H144674   4.953   2.133  11.315  0.9858  3.4188  0.5790
 7753TIP3    H244675   4.857   2.237  11.260 -2.7650 -0.8485 -1.3050
 7754TIP3   OH244676   2.999   6.539   0.335  0.1736 -0.4090  0.1441
 7754TIP3    H144677   3.001   6.607   0.268  0.2367  0.1574  0.7231
 7754TIP3    H244678   2.986   6.458   0.285  1.3646 -0.1225 -0.6489
 7755TIP3   OH244679   7.095   3.477  12.914 -0.2949 -0.4509  0.0602
 7755TIP3    H144680   7.011   3.434  12.899 -0.7510  0.5887 -0.3861
 7755TIP3    H244681   7.152   3.408  12.949 -1.1502 -1.3014 -0.2298
 7756TIP3   OH244682   6.463   3.237  15.080 -0.1088  0.0140 -0.2520
 7756TIP3    H144683   6.507   3.241  14.995  1.8528  1.1530  0.7835
 7756TIP3    H244684   6.438   3.328  15.098  0.5032 -0.0410  0.8977
 7757TIP3   OH244685   5.809   2.633  14.606 -0.5266  0.0347  0.1981
 7757TIP3    H144686   5.889   2.674  14.641 -0.1247  0.6328 -1.3824
 7757TIP3    H244687   5.838   2.548  14.573  0.0309  1.3408 -2.8275
 7758TIP3   OH244688   6.304   7.296   1.294 -0.1728 -0.0336  0.1190
 7758TIP3    H144689   6.212   7.275   1.308 -0.2022  0.5595  0.7909
 7758TIP3    H244690   6.344   7.291   1.381  0.5145 -0.6670 -0.2201
 7759TIP3   OH244691   3.985   3.986  10.278 -0.0737  0.8249  0.4297
 7759TIP3    H144692   4.006   3.893  10.283  2.8856  1.4199 -0.0783
 7759TIP3    H244693   3.935   3.996  10.197  2.1419  0.0832 -1.0766
 7760TIP3   OH244694   4.434   3.730  15.095 -1.2927 -0.1075  0.1805
 7760TIP3    H144695   4.528   3.717  15.081 -0.8879  1.2334  1.4771
 7760TIP3    H244696   4.394   3.706  15.012  0.1625 -1.1181 -0.2475
 7761TIP3   OH244697   4.076   2.323  15.664  0.0597 -0.4303  0.6376
 7761TIP3    H144698   4.039   2.368  15.740 -2.6299 -1.3699 -0.0816
 7761TIP3    H244699   4.081   2.231  15.691  0.6188 -0.5214  0.2374
 7762TIP3   OH244700   0.075   3.425   0.413  0.6310 -0.7442  0.1525
 7762TIP3    H144701   0.079   3.482   0.336  0.7344 -0.6632  0.2172
 7762TIP3    H244702   0.033   3.345   0.382  1.4126 -1.0251 -0.1852
 7763TIP3   OH244703   4.212   1.759  14.305  0.5417 -0.5864 -0.3182
 7763TIP3    H144704   4.129   1.791  14.340 -0.6643 -0.7242 -2.9358
 7763TIP3    H244705   4.262   1.839  14.286  0.7061 -0.4898  0.4817
 7764TIP3   OH244706   2.957   3.226   0.726 -0.5718  0.0209 -0.3467
 7764TIP3    H144707   2.953   3.196   0.635  0.0874  1.0758 -0.7384
 7764TIP3    H244708   2.880   3.283   0.736 -0.1693  0.6087 -0.5220
 7765TIP3   OH244709   5.070   5.578   0.563 -0.6973 -0.7241 -0.0611
 7765TIP3    H144710   5.121   5.574   0.482 -0.0934 -1.3808  0.3453
 7765TIP3    H244711   4.983   5.546   0.538 -0.5470 -0.8130 -0.4747
 7766TIP3   OH244712   6.270   5.633  15.679  0.0914 -0.2378 -0.2882
 7766TIP3    H144713   6.256   5.559  15.620 -1.2136  0.2399 -0.5736
 7766TIP3    H244714   6.230   5.708  15.635 -0.9042  0.1187  1.1891
 7767TIP3   OH244715   3.201   1.004  14.627 -0.7198 -0.0580  0.8376
 7767TIP3    H144716   3.194   1.050  14.710  0.8669 -0.5454  1.2451
 7767TIP3    H244717   3.281   1.038  14.587 -1.7788  0.6052 -0.7597
 7768TIP3   OH244718   2.374   1.505   1.804 -0.3307 -0.0102  0.2335
 7768TIP3    H144719   2.320   1.526   1.728  0.1174  1.8596  0.3937
 7768TIP3    H244720   2.462   1.533   1.779 -0.0762  0.0973  1.2322
 7769TIP3   OH244721   6.491   0.610  10.751  0.0569 -0.5975 -0.0381
 7769TIP3    H144722   6.456   0.594  10.664 -0.7863  0.1254  0.1622
 7769TIP3    H244723   6.433   0.561  10.809  0.8456 -1.3885  0.0825
 7770TIP3   OH244724   4.465   4.877  15.596  0.3288  0.7274 -0.2754
 7770TIP3    H144725   4.537   4.814  15.591 -0.0834  0.2289  0.0057
 7770TIP3    H244726   4.506   4.962  15.581  1.3274  0.6973  2.1665
 7771TIP3   OH244727   4.562   6.256  14.307 -0.4015 -0.3573  0.4503
 7771TIP3    H144728   4.587   6.237  14.216  4.8096  2.7406  0.9972
 7771TIP3    H244729   4.511   6.337  14.301  2.4285  1.4819  0.4138
 7772TIP3   OH244730   4.072   3.308   0.651  0.2517  0.3441 -0.2613
 7772TIP3    H144731   4.060   3.362   0.730 -1.1856 -0.6390  0.2140
 7772TIP3    H244732   4.015   3.349   0.586  0.4677  0.4042 -0.4127
 7773TIP3   OH244733   3.723   3.258  14.658  0.1652 -0.5405 -0.6066
 7773TIP3    H144734   3.641   3.218  14.687  0.7431 -1.8122 -0.6465
 7773TIP3    H244735   3.788   3.187  14.667  0.9482 -0.0221 -2.0210
 7774TIP3   OH244736   5.802   1.677  13.552  0.3110  0.0974  0.4549
 7774TIP3    H144737   5.823   1.609  13.615 -0.8872  0.1961  0.9630
 7774TIP3    H244738   5.871   1.671  13.486  0.9424 -0.7310  1.1922
 7775TIP3   OH244739   4.325   4.211  15.603 -0.1692 -0.2126  0.5132
 7775TIP3    H144740   4.335   4.275  15.533 -1.0273  1.8272  2.1795
 7775TIP3    H244741   4.409   4.212  15.649 -1.2561  2.2520  2.5545
 7776TIP3   OH244742   7.034   7.039  13.830  0.1444  0.1387  0.4179
 7776TIP3    H144743   6.952   6.990  13.822 -0.1534  0.5742  0.7715
 7776TIP3    H244744   7.080   7.022  13.748 -0.7770  0.7529 -0.2420
 7777TIP3   OH244745   4.161   1.125  15.144 -0.2469 -0.1616  0.1095
 7777TIP3    H144746   4.192   1.197  15.088  0.9141 -1.6085 -1.1642
 7777TIP3    H244747   4.242   1.083  15.174 -0.9214 -0.7424  1.1228
 7778TIP3   OH244748   0.348   2.606  15.756  0.1142 -0.0537 -0.3680
 7778TIP3    H144749   0.286   2.624  15.686  0.4428  2.8183  0.0229
 7778TIP3    H244750   0.299   2.553  15.819 -0.8127 -0.8739 -1.7560
 7779TIP3   OH244751   0.612   1.248  11.292 -0.2645  1.1590  0.0268
 7779TIP3    H144752   0.685   1.216  11.239 -1.1244  0.3294 -0.6806
 7779TIP3    H244753   0.650   1.266  11.378  0.5387 -0.3223 -0.0076
 7780TIP3   OH244754   1.374   4.408  11.825 -0.6360  0.3019 -0.4677
 7780TIP3    H144755   1.442   4.440  11.885 -1.3771 -0.1868  0.6418
 7780TIP3    H244756   1.353   4.484  11.771  1.7928  0.1052 -1.7849
 7781TIP3   OH244757   6.248   3.095  15.158 -0.0564  0.5348 -0.1424
 7781TIP3    H144758   6.202   3.147  15.093  1.3999  0.4141 -1.2782
 7781TIP3    H244759   6.335   3.134  15.163  0.0766  0.0909  1.2080
 7782TIP3   OH244760   3.766   2.124  11.882 -0.2027 -0.2294  0.0632
 7782TIP3    H144761   3.704   2.051  11.878 -1.2060  0.5676  0.4804
 7782TIP3    H244762   3.845   2.087  11.921 -0.2052 -1.4133 -1.0337
 7783TIP3   OH244763   4.750   3.947   0.825  0.2299 -0.3615 -0.0791
 7783TIP3    H144764   4.800   3.997   0.761 -1.5059 -0.7711 -1.8059
 7783TIP3    H244765   4.695   4.011   0.869  1.5263 -0.0584  1.1479
 7784TIP3   OH244766   5.860   6.295   2.717  0.0169 -0.3581 -0.1111
 7784TIP3    H144767   5.815   6.306   2.633 -0.4502 -0.3524  0.1396
 7784TIP3    H244768   5.953   6.307   2.696  0.1848 -3.0003 -1.1205
 7785TIP3   OH244769   3.497   4.694  14.501 -0.3657  0.2595  0.1671
 7785TIP3    H144770   3.444   4.751  14.446  0.1062  1.2070  0.6772
 7785TIP3    H244771   3.577   4.743  14.516  0.8329 -1.2904 -0.8851
 7786TIP3   OH244772   5.181   3.032  14.212  0.1222  0.0760  0.2293
 7786TIP3    H144773   5.157   2.945  14.245  1.0747 -0.3097 -0.0985
 7786TIP3    H244774   5.236   3.015  14.136 -0.9171  0.9719 -0.7416
 7787TIP3   OH244775   3.753   1.110   2.927  0.0165 -0.3829  0.3089
 7787TIP3    H144776   3.830   1.055   2.944 -0.0856 -0.9079 -0.8352
 7787TIP3    H244777   3.682   1.069   2.975  0.3084 -0.2794  0.8292
 7788TIP3   OH244778   5.130   2.848   0.442 -0.3539  0.6861 -0.1445
 7788TIP3    H144779   5.089   2.774   0.398 -1.8911 -0.4238  2.9762
 7788TIP3    H244780   5.059   2.913   0.449 -0.1008  0.8955  0.5344
 7789TIP3   OH244781   0.335   1.565   0.196 -0.4102 -0.0222 -0.1161
 7789TIP3    H144782   0.304   1.633   0.256  1.0607  1.6171 -1.1519
 7789TIP3    H244783   0.264   1.500   0.195 -1.3730  0.9482  1.7382
 7790TIP3   OH244784   5.796   4.050  15.020 -0.3163 -0.0978 -0.2743
 7790TIP3    H144785   5.790   4.007  14.934  1.1036 -0.9226  0.0280
 7790TIP3    H244786   5.886   4.037  15.047 -1.1076 -1.0443  1.9913
 7791TIP3   OH244787   3.282   2.783  15.162 -0.1695  0.0254 -0.3043
 7791TIP3    H144788   3.307   2.829  15.081 -0.1855 -2.3641 -1.6967
 7791TIP3    H244789   3.363   2.779  15.213  0.3937 -0.4634 -1.2183
 7792TIP3   OH244790   2.321   1.822   3.316 -0.2930 -0.5858  0.0188
 7792TIP3    H144791   2.364   1.908   3.323 -1.5467  0.3444 -2.8422
 7792TIP3    H244792   2.370   1.776   3.249 -3.4261  0.3938 -3.1110
 7793TIP3   OH244793   6.690   2.250  15.463  0.5266  0.5315 -0.6398
 7793TIP3    H144794   6.711   2.270  15.372  0.7651  1.4553 -0.3795
 7793TIP3    H244795   6.724   2.161  15.476  3.1882  1.5147 -0.5819
 7794TIP3   OH244796   0.756   7.194  15.941 -0.6212  0.3215  0.0151
 7794TIP3    H144797   0.737   7.285  15.917  0.3821 -0.0987 -2.5035
 7794TIP3    H244798   0.851   7.191  15.953 -0.6587 -0.3772  0.1757
 7795TIP3   OH244799   2.080   2.825  14.435  0.0033 -0.2071  0.7951
 7795TIP3    H144800   2.168   2.861  14.423  0.2302 -0.6878  0.9963
 7795TIP3    H244801   2.040   2.831  14.348  1.1350 -2.3141  0.0747
 7796TIP3   OH244802   2.838   2.779  13.409 -0.1746  0.3606 -1.0718
 7796TIP3    H144803   2.815   2.750  13.498 -1.1014  1.8817 -0.7889
 7796TIP3    H244804   2.831   2.700  13.355 -0.1325 -0.4697  0.1109
 7797TIP3   OH244805   4.146   0.561  15.991  0.2444 -0.1553  0.0765
 7797TIP3    H144806   4.106   0.474  15.986  0.5344 -0.2704 -0.2618
 7797TIP3    H244807   4.112   0.607  15.915 -0.3454  0.2164  0.5575
 7798TIP3   OH244808   7.289   4.540  15.299 -0.0138 -0.0284  0.2355
 7798TIP3    H144809   7.195   4.554  15.290  0.2375  1.0922 -0.6748
 7798TIP3    H244810   7.298   4.445  15.304 -1.0330 -0.2518 -1.6317
 7799TIP3   OH244811   3.813   3.210   0.395 -0.0854  0.4869 -0.4419
 7799TIP3    H144812   3.743   3.205   0.331 -0.8857  1.5721  0.3250
 7799TIP3    H244813   3.837   3.303   0.397  2.2271 -0.0616 -1.5843
 7800TIP3   OH244814   1.603   4.081  14.424  0.1994 -0.0925 -0.0398
 7800TIP3    H144815   1.547   4.012  14.388  0.4240  0.4559 -1.4921
 7800TIP3    H244816   1.682   4.036  14.452  0.1062 -0.5113 -0.4430
 7801TIP3   OH244817   5.429   1.533  14.740  0.2155  0.2378 -0.0901
 7801TIP3    H144818   5.461   1.451  14.779  0.6928  0.3571 -0.2241
 7801TIP3    H244819   5.501   1.595  14.753 -0.5758  0.9471  1.0194
 7802TIP3   OH244820   7.043   7.166  11.785  0.1281  0.2194  0.1124
 7802TIP3    H144821   6.966   7.170  11.728 -0.6930  0.4716  1.2057
 7802TIP3    H244822   7.082   7.081  11.766  0.4572  0.7292 -1.5572
 7803TIP3   OH244823   6.664   1.935  10.964 -0.6007  0.4491 -0.1355
 7803TIP3    H144824   6.685   1.933  10.871  4.2934 -1.2373  0.8407
 7803TIP3    H244825   6.632   1.847  10.984  0.9019 -0.0108  0.2698
 7804TIP3   OH244826   5.407   3.235  15.327 -0.6973 -0.7186  0.0978
 7804TIP3    H144827   5.339   3.167  15.324  0.3813 -1.7627 -2.0076
 7804TIP3    H244828   5.472   3.202  15.389 -1.6282 -0.1610  1.3904
 7805TIP3   OH244829   4.514   3.520  15.295 -0.1345 -0.9844 -0.7378
 7805TIP3    H144830   4.482   3.594  15.242  0.3593  0.7001  1.2329
 7805TIP3    H244831   4.596   3.494  15.253  0.2863  0.3594 -0.7718
 7806TIP3   OH244832   5.378   0.545  10.957  0.2019 -0.8135  0.1877
 7806TIP3    H144833   5.434   0.594  10.896  0.1254 -1.0549 -0.0746
 7806TIP3    H244834   5.290   0.580  10.941  0.0170 -1.6095 -0.5800
 7807TIP3   OH244835   0.447   1.712  12.795 -0.3353 -0.1845 -0.7020
 7807TIP3    H144836   0.406   1.758  12.869  0.2133 -0.5593 -0.1615
 7807TIP3    H244837   0.374   1.694  12.736 -1.0347 -1.1486  0.4145
 7808TIP3   OH244838   6.926   1.263  15.720 -0.0047  0.1078 -0.5734
 7808TIP3    H144839   6.937   1.344  15.670 -0.1582  0.3263 -0.2615
 7808TIP3    H244840   6.950   1.288  15.809 -1.3088  0.1482 -0.2148
 7809TIP3   OH244841   4.313   3.265   0.094  0.1843 -0.1318 -0.5382
 7809TIP3    H144842   4.357   3.349   0.108 -2.2939  1.0213  0.5944
 7809TIP3    H244843   4.333   3.214   0.172  0.6147 -0.1041 -0.6295
 7810TIP3   OH244844   2.713   0.367   0.330  0.1130  0.0840 -0.1451
 7810TIP3    H144845   2.640   0.307   0.344 -0.0830  0.1788 -0.7393
 7810TIP3    H244846   2.786   0.311   0.306  0.6745 -0.1527  2.0452
 7811TIP3   OH244847   4.684   3.771  11.120  0.5352  0.4470  0.2569
 7811TIP3    H144848   4.655   3.782  11.211 -0.7775 -1.2301  0.0814
 7811TIP3    H244849   4.702   3.859  11.089  0.1196  1.1193  1.8808
 7812TIP3   OH244850   4.906   4.311  14.950  0.2792 -0.3125  0.1061
 7812TIP3    H144851   4.917   4.253  15.025  0.1134 -1.9925 -1.1248
 7812TIP3    H244852   4.967   4.276  14.884  0.8282  1.4668 -0.3406
 7813TIP3   OH244853   6.616   2.432   0.473 -0.3812 -0.3120 -0.2098
 7813TIP3    H144854   6.681   2.500   0.493 -0.2021 -0.7851  0.8850
 7813TIP3    H244855   6.532   2.473   0.493 -0.3113 -0.2234 -0.0993
 7814TIP3   OH244856   7.126   4.396   0.050  0.0149 -0.0984 -0.2656
 7814TIP3    H144857   7.076   4.478   0.048  0.6946  0.3212 -0.2099
 7814TIP3    H244858   7.207   4.419   0.095  0.9244 -0.3919 -1.7273
 7815TIP3   OH244859   4.639   3.240  14.227 -0.5599  0.1258 -0.6791
 7815TIP3    H144860   4.603   3.182  14.294  2.1863  1.8155  2.3899
 7815TIP3    H244861   4.663   3.181  14.155 -0.2066 -2.2527  1.3055
 7816TIP3   OH244862   4.042   6.048   1.205  0.4511  0.3504 -0.7550
 7816TIP3    H144863   3.970   6.005   1.159  0.5599 -0.5839 -0.0715
 7816TIP3    H244864   4.098   5.976   1.234  0.4900  0.9309  0.6408
 7817TIP3   OH244865   3.769   6.843  13.241 -0.0825 -0.5057 -0.2074
 7817TIP3    H144866   3.863   6.863  13.235 -0.4446  0.6119 -2.6260
 7817TIP3    H244867   3.729   6.891  13.169 -2.9355  1.2283  2.3998
 7818TIP3   OH244868   4.884   1.076  14.992  0.0619  0.3328 -0.6493
 7818TIP3    H144869   4.789   1.077  15.002  0.1600 -0.7211  0.7379
 7818TIP3    H244870   4.916   1.056  15.080  1.4882 -0.9019 -1.4209
 7819TIP3   OH244871   3.570   4.071   0.303 -0.1005  0.4362 -0.0681
 7819TIP3    H144872   3.505   4.001   0.298 -1.1520  1.2731  1.6763
 7819TIP3    H244873   3.625   4.047   0.377 -0.6481  1.5879  0.7260
 7820TIP3   OH244874   4.188   1.739  15.510  0.0014  0.4543  0.0533
 7820TIP3    H144875   4.228   1.723  15.425 -0.2727  0.4848 -0.0825
 7820TIP3    H244876   4.241   1.689  15.572  1.4783  2.1052  0.1562
 7821TIP3   OH244877   4.795   1.221   0.024 -0.7395 -0.2905 -0.0926
 7821TIP3    H144878   4.742   1.297   0.049 -1.2188 -0.3913 -0.7904
 7821TIP3    H244879   4.823   1.184   0.108  0.0059  0.9969  0.2488
 7822TIP3   OH244880   0.480   2.680  15.384 -0.6397  0.5611  0.7820
 7822TIP3    H144881   0.502   2.627  15.460 -1.8151 -0.2875  0.5542
 7822TIP3    H244882   0.540   2.754  15.387  2.1629 -1.6142  0.1893
 7823TIP3   OH244883   4.853   3.014  13.539 -0.3921 -0.0624  0.1242
 7823TIP3    H144884   4.855   2.924  13.507 -1.3573  0.1257 -0.5067
 7823TIP3    H244885   4.938   3.051  13.513 -0.3953 -0.4966 -0.5056
 7824TIP3   OH244886   4.556   2.207  14.885  0.2545 -0.6350 -0.4824
 7824TIP3    H144887   4.552   2.303  14.877  0.7145 -0.5849 -0.1277
 7824TIP3    H244888   4.638   2.190  14.931 -0.2354 -1.1538  0.2051
 7825TIP3   OH244889   3.906   3.106   1.871  0.7008  0.9002  0.0470
 7825TIP3    H144890   3.870   3.185   1.911 -1.6721 -0.4413  0.6178
 7825TIP3    H244891   3.861   3.100   1.787 -0.2326 -0.6745  0.6616
 7826TIP3   OH244892   4.632   2.017  15.655 -0.1196  0.1850  0.1819
 7826TIP3    H144893   4.675   2.103  15.660  0.8474 -0.3257  0.8637
 7826TIP3    H244894   4.604   2.010  15.564  1.0670  0.6219 -0.2234
 7827TIP3   OH244895   2.862   2.360   2.494  0.0518 -0.1571 -0.7998
 7827TIP3    H144896   2.938   2.363   2.436  0.0258  0.9111 -0.7956
 7827TIP3    H244897   2.794   2.408   2.447  0.0476  0.7552  0.1243
 7828TIP3   OH244898   4.318   1.265  14.961 -0.1002 -0.0455 -0.1311
 7828TIP3    H144899   4.374   1.306  14.894  0.0426  0.5539  0.3496
 7828TIP3    H244900   4.332   1.171  14.950 -1.1812 -0.0301 -1.9179
 7829TIP3   OH244901   4.474   4.404   1.029  0.4911 -0.6333 -0.0151
 7829TIP3    H144902   4.480   4.470   1.097 -0.1815 -2.1259  1.5312
 7829TIP3    H244903   4.558   4.359   1.031  0.7240 -0.2439 -0.6574
 7830TIP3   OH244904   2.782   1.944  14.475  0.3723  0.1501 -0.1071
 7830TIP3    H144905   2.716   1.950  14.407 -0.3261 -0.5079  0.5105
 7830TIP3    H244906   2.807   1.852  14.476  0.2816  0.1329  0.6181
 7831TIP3   OH244907   6.029   3.787  14.192 -0.3644 -0.1800  0.1705
 7831TIP3    H144908   6.074   3.758  14.113 -1.3088  0.0967 -0.4629
 7831TIP3    H244909   6.089   3.850  14.231 -0.3303  0.4186 -0.8373
 7832TIP3   OH244910   1.153   1.778   1.637  0.0452  0.4299  0.4259
 7832TIP3    H144911   1.132   1.789   1.729 -0.2200  3.0091  0.1133
 7832TIP3    H244912   1.249   1.788   1.633  0.1264 -0.3155  0.4986
 7833TIP3   OH244913   4.239   4.837  15.011  0.3057  0.6167 -0.3507
 7833TIP3    H144914   4.189   4.820  15.090 -0.6706  1.1058 -0.8529
 7833TIP3    H244915   4.330   4.838  15.039  0.1477 -1.6159  0.3485
 7834TIP3   OH244916   0.079   2.623  11.274 -0.7653 -0.7113  0.1460
 7834TIP3    H144917   0.113   2.641  11.361 -0.7633 -0.0153  0.0016
 7834TIP3    H244918   0.155   2.592  11.224 -0.4363  0.3923 -0.0459
 7835TIP3   OH244919   4.907   3.704   1.800  0.0224 -0.4921 -0.7723
 7835TIP3    H144920   4.970   3.768   1.832  0.4902 -0.2121 -2.2260
 7835TIP3    H244921   4.885   3.734   1.711 -0.6225 -1.7081 -1.0356
 7836TIP3   OH244922   5.055   2.778  13.624  0.1723 -0.3845 -0.2368
 7836TIP3    H144923   5.027   2.790  13.533 -0.9430 -0.3704  0.0990
 7836TIP3    H244924   5.009   2.699  13.653 -0.4716  0.3146  0.6984
 7837TIP3   OH244925   6.798   1.218  13.737  0.2795  0.3077 -0.0705
 7837TIP3    H144926   6.869   1.224  13.674  0.5575  2.4048  0.3965
 7837TIP3    H244927   6.841   1.214  13.822 -0.1396  1.2225  0.1925
 7838TIP3   OH244928   6.255   3.417   0.579  0.5549  0.1320 -0.0670
 7838TIP3    H144929   6.159   3.416   0.577  0.5503  0.3252  0.0142
 7838TIP3    H244930   6.277   3.393   0.670  0.5847  0.0438 -0.0973
 7839TIP3   OH244931   5.342   3.632  14.505  0.4687 -0.6473  0.5539
 7839TIP3    H144932   5.351   3.725  14.484 -0.5547 -0.6615  0.0422
 7839TIP3    H244933   5.300   3.630  14.591 -0.0452 -0.6378  0.3057
 7840TIP3   OH244934   6.466   1.873  13.266  0.0880 -0.6101  0.0175
 7840TIP3    H144935   6.506   1.796  13.225  0.9356 -0.8865  1.3261
 7840TIP3    H244936   6.540   1.920  13.306 -0.0534  2.2157 -2.8524
 7841TIP3   OH244937   0.582   0.872   2.299 -0.0166  0.3517  0.2338
 7841TIP3    H144938   0.512   0.877   2.364 -0.3308  1.5771 -0.1831
 7841TIP3    H244939   0.616   0.783   2.306 -2.6332 -0.7387 -0.6043
 7842TIP3   OH244940   6.701   3.286  15.701  0.1490 -0.1528  0.5559
 7842TIP3    H144941   6.794   3.299  15.720 -0.4030  2.7873  1.5057
 7842TIP3    H244942   6.692   3.192  15.687  2.7630 -0.8452  3.1052
 7843TIP3   OH244943   1.647   3.618   1.081  0.2013 -0.1591  0.0994
 7843TIP3    H144944   1.555   3.594   1.070  0.6716 -1.6014 -0.8036
 7843TIP3    H244945   1.657   3.699   1.031 -1.2236  1.5682  2.5318
 7844TIP3   OH244946   5.992   0.290  13.268  0.1388 -0.1418 -0.5425
 7844TIP3    H144947   6.009   0.330  13.183 -1.7137  0.0826 -0.8311
 7844TIP3    H244948   6.067   0.316  13.322  2.0581 -1.4854 -2.4868
 7845TIP3   OH244949   0.067   1.085  14.328  0.2196  0.1386  0.2249
 7845TIP3    H144950   0.067   1.113  14.420  0.1922 -3.0205  1.2444
 7845TIP3    H244951   0.113   1.155  14.282  0.7868  1.4885  2.7320
 7846TIP3   OH244952   4.972   5.734  15.146  0.0175 -0.0155 -0.4189
 7846TIP3    H144953   4.932   5.813  15.181  0.5513  0.7937 -1.5778
 7846TIP3    H244954   5.060   5.732  15.183 -0.0182 -0.0926 -0.3390
 7847TIP3   OH244955   4.424   1.447  14.754  0.1319  0.7334 -0.1321
 7847TIP3    H144956   4.377   1.517  14.798  1.8525  2.1203 -0.4573
 7847TIP3    H244957   4.484   1.492  14.695  3.1477 -0.9155  1.5788
 7848TIP3   OH244958   4.532   3.665  14.380 -0.0579  0.7239 -0.8057
 7848TIP3    H144959   4.534   3.668  14.476  1.9692 -0.4979 -0.7718
 7848TIP3    H244960   4.599   3.728  14.353 -0.0497  0.4709 -1.3798
 7849TIP3   OH244961   4.850   4.391  12.977  0.1334  0.0543  0.1203
 7849TIP3    H144962   4.793   4.314  12.981  1.7394 -1.1577 -0.0689
 7849TIP3    H244963   4.833   4.429  12.891  1.2135 -1.5552 -0.8192
 7850TIP3   OH244964   5.641   1.920  11.430 -0.1859  0.3658  0.0258
 7850TIP3    H144965   5.595   1.941  11.348 -0.3902 -0.0283  0.0351
 7850TIP3    H244966   5.723   1.881  11.402  0.3964  1.6008  0.0063
 7851TIP3   OH244967   6.555   4.465  15.507  0.2681 -0.7009 -0.0645
 7851TIP3    H144968   6.644   4.454  15.541  0.7792  0.1597 -1.1299
 7851TIP3    H244969   6.513   4.381  15.525  1.0943 -0.9043  1.0103
 7852TIP3   OH244970   3.977   0.001  13.731  0.0578 -0.4840  0.0975
 7852TIP3    H144971   4.071  -0.008  13.748 -0.1899 -1.8650  0.8400
 7852TIP3    H244972   3.936  -0.026  13.813 -1.0197 -1.4327 -0.7326
 7853TIP3   OH244973   6.571   3.669  12.389 -0.3493  0.8031  0.0151
 7853TIP3    H144974   6.641   3.732  12.371  0.9417 -0.3635  0.8517
 7853TIP3    H244975   6.577   3.605  12.318  0.1611  0.0883  0.6970
 7854TIP3   OH244976   3.295   4.227  14.097  0.2135  0.2743 -0.4037
 7854TIP3    H144977   3.256   4.143  14.074 -1.2375  0.1630  2.2909
 7854TIP3    H244978   3.374   4.205  14.145  0.5776  0.4735 -0.9048
 7855TIP3   OH244979   2.776   3.433  13.618 -1.0228  0.2946 -0.1619
 7855TIP3    H144980   2.792   3.353  13.568  0.6725 -0.0483  0.8724
 7855TIP3    H244981   2.782   3.503  13.553 -0.1188 -0.2369 -0.6673
 7856TIP3   OH244982   1.962   5.121  14.776  0.6431 -0.1652  0.1200
 7856TIP3    H144983   1.891   5.129  14.712 -0.4675 -1.2304  1.1990
 7856TIP3    H244984   1.933   5.172  14.851  0.8685 -0.8613  0.6919
 7857TIP3   OH244985   4.718   2.527  12.359 -0.5718 -0.7169  0.0683
 7857TIP3    H144986   4.751   2.617  12.366 -2.1048 -0.1369  0.2173
 7857TIP3    H244987   4.702   2.515  12.266  0.4299 -1.1328 -0.0494
 7858TIP3   OH244988   4.686   3.359  12.170 -0.2483 -0.2488  0.3576
 7858TIP3    H144989   4.602   3.402  12.153 -0.0748  0.2497  0.7464
 7858TIP3    H244990   4.692   3.291  12.104 -0.6088  0.2169 -0.1556
 7859TIP3   OH244991   6.667   7.013  15.547  0.3822  0.3911  0.7386
 7859TIP3    H144992   6.649   7.106  15.563 -0.2026  0.6504 -1.3256
 7859TIP3    H244993   6.756   7.000  15.579  1.2214  2.1424 -0.8265
 7860TIP3   OH244994   5.985   6.158   0.651 -0.1225  0.2659 -0.3907
 7860TIP3    H144995   5.917   6.201   0.599 -0.0669 -2.4542 -2.7985
 7860TIP3    H244996   6.067   6.192   0.616 -0.1590  1.5362  0.7243
 7861TIP3   OH244997   5.816   1.667  14.170 -0.4738  0.2593  0.7238
 7861TIP3    H144998   5.726   1.697  14.154 -1.1556 -2.9026 -1.9479
 7861TIP3    H244999   5.814   1.635  14.260 -1.7671  1.0581  1.0083
 7862TIP3   OH245000   4.818   6.801  14.557 -0.0183  0.1781  0.2899
 7862TIP3    H145001   4.852   6.787  14.645 -0.9403 -1.2946  0.4224
 7862TIP3    H245002   4.889   6.847  14.512  1.6574 -1.6559  0.9497
 7863TIP3   OH245003   5.916   5.934   0.083  0.4117  0.1233  0.4296
 7863TIP3    H145004   5.854   5.919   0.011  2.9082 -1.3225 -1.4866
 7863TIP3    H245005   5.901   5.860   0.142 -0.3073  0.2669  0.4346
 7864TIP3   OH245006   3.339   5.647   1.290 -0.1620  0.4303 -0.2615
 7864TIP3    H145007   3.404   5.673   1.355 -2.1785  0.5004  1.7965
 7864TIP3    H245008   3.315   5.728   1.246  1.7950  0.2656 -1.7035
 7865TIP3   OH245009   6.690   3.066  11.957 -0.3992 -0.0672  0.1739
 7865TIP3    H145010   6.709   3.159  11.972 -0.8675  0.3149 -1.5114
 7865TIP3    H245011   6.653   3.036  12.040  2.2867  0.5438  1.6423
 7866TIP3   OH245012   4.366   1.533   0.677  0.2134  0.3517  0.1701
 7866TIP3    H145013   4.409   1.519   0.762  0.1541  2.4064  0.5654
 7866TIP3    H245014   4.413   1.608   0.639 -2.0031  1.6731 -0.0505
 7867TIP3   OH245015   6.183   3.781   0.271 -0.0693  0.5945 -0.4506
 7867TIP3    H145016   6.149   3.692   0.260 -0.0984  0.3620  1.3907
 7867TIP3    H245017   6.275   3.775   0.246  0.0981 -0.1002  0.3291
 7868TIP3   OH245018   3.935   0.434  12.364 -0.2438  0.2270  0.3990
 7868TIP3    H145019   3.986   0.381  12.303 -0.1496 -1.0561  1.5686
 7868TIP3    H245020   3.999   0.465  12.428 -0.9955 -1.9415  2.2574
 7869TIP3   OH245021   5.574   5.592  13.568 -0.6389 -0.4996  0.2008
 7869TIP3    H145022   5.590   5.543  13.488 -2.1682 -2.4202  1.0399
 7869TIP3    H245023   5.551   5.680  13.537 -0.2423 -0.9433 -1.4162
 7870TIP3   OH245024   7.267   2.982  14.456  0.4973  0.5683 -0.3143
 7870TIP3    H145025   7.314   3.056  14.417  0.6740  0.1879 -0.8345
 7870TIP3    H245026   7.187   3.020  14.491  0.5320  0.9843 -0.6855
 7871TIP3   OH245027   1.187   5.518  12.561  0.5941  0.7479 -0.4235
 7871TIP3    H145028   1.214   5.607  12.538  0.6645  0.0244 -3.2748
 7871TIP3    H245029   1.140   5.487  12.484 -0.4863 -1.2605  1.0320
 7872TIP3   OH245030   0.667   0.710  14.319 -0.1636 -0.3558 -0.1754
 7872TIP3    H145031   0.634   0.683  14.233 -2.9386  0.3406  0.6048
 7872TIP3    H245032   0.716   0.634  14.350 -0.1144 -1.0441 -1.8698
 7873TIP3   OH245033   6.548   4.792  11.021  0.1296 -0.0374 -0.5901
 7873TIP3    H145034   6.561   4.788  10.927  1.9823 -0.0402 -0.3553
 7873TIP3    H245035   6.596   4.716  11.055  0.2241  0.4631  0.4149
 7874TIP3   OH245036   6.857   6.558  13.275  0.4107  0.1198  0.7617
 7874TIP3    H145037   6.814   6.616  13.338 -0.5687  0.2363 -0.0175
 7874TIP3    H245038   6.905   6.617  13.217  0.5664  0.0640  0.8331
 7875TIP3   OH245039   4.315   3.412  13.588  0.0341 -0.0716  0.7704
 7875TIP3    H145040   4.262   3.419  13.668 -0.3724  0.0940  0.4841
 7875TIP3    H245041   4.273   3.472  13.526 -0.8715 -1.7344 -0.2524
 7876TIP3   OH245042   5.520   3.566   1.251  0.2041 -0.3850 -0.0551
 7876TIP3    H145043   5.562   3.642   1.212 -0.7198  0.1936  0.0524
 7876TIP3    H245044   5.511   3.503   1.179  1.7287 -0.7324  0.0458
 7877TIP3   OH245045   6.206   3.738  10.261  0.1225 -0.2514  0.0127
 7877TIP3    H145046   6.192   3.681  10.337  1.0823 -0.5759 -0.0386
 7877TIP3    H245047   6.231   3.678  10.191  0.4632  0.1615 -0.2242
 7878TIP3   OH245048   0.247   3.193   0.147 -0.3066 -0.3559  0.3308
 7878TIP3    H145049   0.187   3.242   0.204 -0.4319  2.1854 -1.8997
 7878TIP3    H245050   0.196   3.174   0.069  0.7761 -1.1022 -0.2086
 7879TIP3   OH245051   4.574   0.519  15.919  0.3452 -0.1072 -0.1899
 7879TIP3    H145052   4.504   0.576  15.949 -0.2810 -0.7864 -0.3532
 7879TIP3    H245053   4.646   0.536  15.980  0.1163  0.7418 -0.1526
 7880TIP3   OH245054   4.342   4.847  14.746 -0.1276  0.2562 -0.4360
 7880TIP3    H145055   4.307   4.863  14.834  0.8511  1.2927 -0.2271
 7880TIP3    H245056   4.267   4.857  14.688 -0.9355 -1.1504  0.3347
 7881TIP3   OH245057   4.029   1.426  15.460  0.3044 -0.5523 -0.8208
 7881TIP3    H145058   3.976   1.358  15.418  1.6835 -0.6314 -2.5212
 7881TIP3    H245059   4.079   1.465  15.388 -0.0364  1.8923  0.2102
 7882TIP3   OH245060   3.064   1.530   2.328  0.4238  0.5144  0.4647
 7882TIP3    H145061   3.087   1.578   2.407  1.6388 -0.0933  0.4929
 7882TIP3    H245062   2.978   1.492   2.347  1.1563 -0.4735  1.8797
 7883TIP3   OH245063   0.806   7.030  14.775 -0.3333  0.4651 -0.1521
 7883TIP3    H145064   0.780   6.977  14.850  0.4721 -0.1512 -0.3013
 7883TIP3    H245065   0.887   7.073  14.804  1.0079 -1.2274 -1.3175
 7884TIP3   OH245066   6.352   2.143  10.602  0.1212 -0.3099  0.8087
 7884TIP3    H145067   6.335   2.233  10.573  0.1818 -0.3649  0.6013
 7884TIP3    H245068   6.439   2.146  10.641  0.5165 -0.4826 -0.0609
 7885TIP3   OH245069   0.894   0.527  14.416 -0.7466  0.3065 -0.1715
 7885TIP3    H145070   0.953   0.590  14.457  0.2573 -0.3186 -0.6219
 7885TIP3    H245071   0.918   0.529  14.323  0.1830 -1.6737  0.0084
 7886TIP3   OH245072   0.573   3.212  14.642 -0.4574  0.4961 -0.7129
 7886TIP3    H145073   0.636   3.266  14.594 -0.4583  1.1486  0.0134
 7886TIP3    H245074   0.626   3.161  14.703 -0.4321 -0.5156 -1.5626
 7887TIP3   OH245075   2.858   1.049  11.752  0.3991  0.8908 -0.1026
 7887TIP3    H145076   2.833   1.073  11.841 -0.1652 -0.7889  0.2120
 7887TIP3    H245077   2.952   1.068  11.747  0.3763  1.2377  0.7604
 7888TIP3   OH245078   6.821   3.719  15.955  0.0257  0.7875 -0.1954
 7888TIP3    H145079   6.890   3.754  16.012  0.8482 -0.9718 -0.0628
 7888TIP3    H245080   6.802   3.633  15.991 -0.7449  0.3996 -1.4930
 7889TIP3   OH245081   0.510   0.757  11.923  0.2158  0.7790  0.0162
 7889TIP3    H145082   0.523   0.752  11.828 -0.7569 -1.6781 -0.0200
 7889TIP3    H245083   0.462   0.677  11.945 -2.4715  2.8633  2.1302
 7890TIP3   OH245084   7.117   6.998  14.940 -0.2175  0.0609 -0.3965
 7890TIP3    H145085   7.204   6.967  14.965 -1.1563 -1.3812  1.1512
 7890TIP3    H245086   7.134   7.076  14.886  1.9922  0.2839  0.5814
 7891TIP3   OH245087   4.056   4.796   2.062 -0.0682 -0.4414 -0.1323
 7891TIP3    H145088   3.961   4.782   2.051 -0.0493 -0.6018 -0.0953
 7891TIP3    H245089   4.076   4.754   2.146 -0.0445 -0.0217  0.0704
 7892TIP3   OH245090   7.132   0.441  13.270 -0.6334  0.0222 -0.2452
 7892TIP3    H145091   7.113   0.349  13.286 -0.2148  0.1137  0.8272
 7892TIP3    H245092   7.047   0.484  13.272 -0.8932 -0.4337 -1.3924
 7893TIP3   OH245093   7.164   4.328   0.455  0.0565  0.0662 -0.0224
 7893TIP3    H145094   7.128   4.355   0.540  1.3840  2.3752 -0.1510
 7893TIP3    H245095   7.113   4.377   0.391 -1.0111 -1.7539 -0.6018
 7894TIP3   OH245096   6.864   3.315   1.307  0.6025 -0.1427 -0.4585
 7894TIP3    H145097   6.939   3.283   1.356  0.2630 -1.4010 -0.7354
 7894TIP3    H245098   6.839   3.396   1.351 -0.0658 -1.5423  1.8318
 7895TIP3   OH245099   3.446   1.769   0.787  0.0775 -0.4873 -0.0033
 7895TIP3    H145100   3.496   1.698   0.827  0.5724 -0.0089  0.2262
 7895TIP3    H245101   3.365   1.774   0.839  0.5714 -0.0870  0.7324
 7896TIP3   OH245102   5.323   2.787  15.828 -0.4220 -0.5231  0.1635
 7896TIP3    H145103   5.310   2.868  15.779  0.1406 -0.3226  0.3423
 7896TIP3    H245104   5.417   2.783  15.843 -0.3112 -1.7588 -0.7923
 7897TIP3   OH245105   5.824   1.984  14.174 -0.4295  0.3017 -0.1670
 7897TIP3    H145106   5.781   1.907  14.138 -0.3430 -1.3340  3.0692
 7897TIP3    H245107   5.838   2.042  14.098 -4.0118 -1.1502 -2.0419
 7898TIP3   OH245108   7.102   6.719   2.804  0.1218 -0.2662  0.0704
 7898TIP3    H145109   7.019   6.701   2.758 -0.9126 -1.7254  2.4003
 7898TIP3    H245110   7.139   6.632   2.821  0.3411  0.2232  2.1926
 7899TIP3   OH245111   6.962   4.801  13.930 -0.1407 -0.3728 -0.2018
 7899TIP3    H145112   6.942   4.753  13.850  0.0520 -0.2745 -0.3083
 7899TIP3    H245113   6.884   4.853  13.947 -0.4255 -0.8638  0.0185
 7900TIP3   OH245114   6.662   3.784   1.027 -0.2573  0.3333 -0.1088
 7900TIP3    H145115   6.698   3.698   1.047  1.5149  1.0298 -0.2136
 7900TIP3    H245116   6.571   3.779   1.055  0.7615 -0.3974  3.3394
 7901TIP3   OH245117   5.723   5.106  15.891  0.7099  0.5747 -0.4852
 7901TIP3    H145118   5.743   5.193  15.925 -0.5359  1.6205 -2.3024
 7901TIP3    H245119   5.688   5.058  15.966  1.9885  1.4482  0.6753
 7902TIP3   OH245120   0.882   2.976  12.764  0.1672 -0.3667 -0.4826
 7902TIP3    H145121   0.973   2.981  12.735  0.9534 -2.5874  1.5044
 7902TIP3    H245122   0.881   3.022  12.848 -0.4926 -0.5597 -0.3807
 7903TIP3   OH245123   7.273   4.195  14.174  0.3770  0.4775  0.2240
 7903TIP3    H145124   7.281   4.181  14.079 -2.5421  3.4661 -0.5907
 7903TIP3    H245125   7.275   4.291  14.183  0.1434  0.2311  3.1387
 7904TIP3   OH245126   1.447   4.499  15.242  0.7336 -0.3712 -0.0605
 7904TIP3    H145127   1.428   4.510  15.335 -0.9165  2.1391 -0.6217
 7904TIP3    H245128   1.361   4.491  15.201  1.4600 -2.1071 -1.3364
 7905TIP3   OH245129   0.077   1.417  12.593  0.0187  0.0617  0.3798
 7905TIP3    H145130   0.122   1.374  12.521 -0.7167  0.2324 -0.1779
 7905TIP3    H245131   0.143   1.423  12.662  0.7815  0.0709 -0.3438
 7906TIP3   OH245132   4.171   2.474   0.528 -0.2468  0.0807 -0.5169
 7906TIP3    H145133   4.253   2.424   0.523  0.1238  0.6804 -0.5603
 7906TIP3    H245134   4.193   2.551   0.581 -1.3178 -0.7562  1.1571
 7907TIP3   OH245135   7.231   5.193   0.269 -0.1346 -0.4026 -0.2453
 7907TIP3    H145136   7.298   5.240   0.318 -0.7170  0.7437 -0.5321
 7907TIP3    H245137   7.166   5.260   0.246  0.3058 -0.8018 -2.8988
 7908TIP3   OH245138   3.576   2.481   0.132 -0.5635  0.0514  0.0908
 7908TIP3    H145139   3.501   2.423   0.117  0.0417 -0.9502  0.8659
 7908TIP3    H245140   3.594   2.473   0.226  0.0963  0.7962  0.0263
 7909TIP3   OH245141   3.359   1.790  11.811  0.0323 -0.0894  0.0804
 7909TIP3    H145142   3.341   1.705  11.852 -0.8655 -0.8608 -1.8246
 7909TIP3    H245143   3.290   1.848  11.843 -1.3367 -0.9837 -1.1808
 7910TIP3   OH245144   0.361   4.247  11.893 -0.2207 -0.4478 -0.0393
 7910TIP3    H145145   0.433   4.200  11.850  1.4753  1.9547  0.0444
 7910TIP3    H245146   0.380   4.239  11.987  0.4314  0.8723 -0.0429
 7911TIP3   OH245147   3.555   4.238  13.625 -0.5228  0.0091  0.1486
 7911TIP3    H145148   3.486   4.300  13.603  0.9476  0.9448 -1.9704
 7911TIP3    H245149   3.634   4.292  13.633  0.6527 -1.4983 -1.0709
 7912TIP3   OH245150   0.853   6.894  12.136  0.2534 -0.1677 -0.0033
 7912TIP3    H145151   0.854   6.862  12.226 -0.4488  2.0600  0.8135
 7912TIP3    H245152   0.790   6.838  12.091 -0.7146 -0.1692  1.3280
 7913TIP3   OH245153   0.456   3.372   0.094 -0.5675 -0.0495  0.3606
 7913TIP3    H145154   0.417   3.452   0.131  1.2232 -0.6592  3.7712
 7913TIP3    H245155   0.383   3.310   0.090 -1.0851  0.4470  1.6926
 7914TIP3   OH245156   0.470   0.250  14.387 -0.0430  0.1680 -0.2226
 7914TIP3    H145157   0.418   0.172  14.369  0.3292  0.0505 -0.7852
 7914TIP3    H245158   0.508   0.274  14.302  1.1481  0.0248  0.2694
 7915TIP3   OH245159   6.441   4.399  12.461 -0.8742 -0.3580 -0.1994
 7915TIP3    H145160   6.369   4.415  12.400 -0.5630  0.9262 -0.2409
 7915TIP3    H245161   6.443   4.476  12.517  0.6206 -0.2700 -0.3512
 7916TIP3   OH245162   1.074   4.412   0.994 -0.0295  0.9465  0.0475
 7916TIP3    H145163   1.015   4.407   0.918 -0.0816 -1.2662  0.2001
 7916TIP3    H245164   1.047   4.340   1.050  0.1176  2.4675  2.1344
 7917TIP3   OH245165   5.377   2.731  11.896 -0.2683 -0.0668 -0.1915
 7917TIP3    H145166   5.403   2.680  11.972 -0.9757  0.0744  0.1510
 7917TIP3    H245167   5.456   2.779  11.871 -0.8912  2.5821  2.5871
 7918TIP3   OH245168   6.631   3.233  12.437  0.6127  0.1763  0.9608
 7918TIP3    H145169   6.617   3.313  12.489  0.6969  0.8198  0.0112
 7918TIP3    H245170   6.666   3.170  12.500  0.7954  0.9693  1.6741
 7919TIP3   OH245171   0.368   4.079  13.442 -0.3511  0.1550  0.1148
 7919TIP3    H145172   0.289   4.040  13.478 -1.1024  1.8066  0.2940
 7919TIP3    H245173   0.348   4.093  13.349 -0.5434  1.2426  0.3164
 7920TIP3   OH245174   1.507   3.357   1.358  0.5740 -0.4050 -0.5452
 7920TIP3    H145175   1.474   3.445   1.378 -0.3660 -0.7950 -0.3276
 7920TIP3    H245176   1.495   3.307   1.439  2.4368 -0.3596 -0.2309
 7921TIP3   OH245177   3.547   2.892   2.575  0.1806  0.2779 -0.2510
 7921TIP3    H145178   3.460   2.925   2.598  0.0898 -1.6185  2.2948
 7921TIP3    H245179   3.534   2.847   2.492 -1.0089  1.0912 -0.5182
 7922TIP3   OH245180   5.748   3.220  12.308 -0.6062 -0.0725  0.5140
 7922TIP3    H145181   5.831   3.262  12.334 -0.7089 -0.0181  0.7556
 7922TIP3    H245182   5.680   3.280  12.340 -0.7359 -0.0337  0.1667
 7923TIP3   OH245183   3.810   0.233  15.144  0.3748  0.0692  0.1984
 7923TIP3    H145184   3.901   0.252  15.120 -0.0160  0.0640 -1.3431
 7923TIP3    H245185   3.809   0.236  15.240  1.8356  0.8141  0.1993
 7924TIP3   OH245186   3.730   3.065  13.607 -0.4156 -0.3288 -0.1892
 7924TIP3    H145187   3.648   3.021  13.627 -0.2413 -0.1919  0.9039
 7924TIP3    H245188   3.770   3.079  13.693  0.3245  0.4119 -0.6514
 7925TIP3   OH245189   6.845   7.263  13.534  0.1595 -0.1680 -0.8327
 7925TIP3    H145190   6.780   7.315  13.582  1.4512 -0.4044  1.2215
 7925TIP3    H245191   6.926   7.272  13.585  0.7920 -2.9635 -1.2611
 7926TIP3   OH245192   7.251   3.968  15.545  0.0916  0.3381 -0.3701
 7926TIP3    H145193   7.176   3.947  15.490 -0.4135 -1.0136  0.8159
 7926TIP3    H245194   7.257   3.895  15.607  1.4599  1.1784  0.5139
 7927TIP3   OH245195   5.508   4.490  14.292  0.2464 -0.2339 -0.3833
 7927TIP3    H145196   5.520   4.398  14.315 -0.1864 -0.1827  0.0540
 7927TIP3    H245197   5.426   4.515  14.335  0.0797  0.2053 -0.9492
 7928TIP3   OH245198   4.913   1.403  12.270 -0.5650  0.1139 -0.3784
 7928TIP3    H145199   4.876   1.410  12.182  0.5509 -0.8856 -0.9542
 7928TIP3    H245200   4.952   1.488  12.287 -1.7268  0.6612 -0.4035
 7929TIP3   OH245201   0.604   0.624  14.043  0.3343 -0.2616 -0.5743
 7929TIP3    H145202   0.529   0.636  13.985 -0.5324 -1.9660  0.1733
 7929TIP3    H245203   0.677   0.606  13.984 -0.4844 -1.7062 -1.1641
 7930TIP3   OH245204   0.979   4.481  14.403  0.1696 -0.0074 -0.3444
 7930TIP3    H145205   1.016   4.529  14.477 -0.1436 -1.9081  1.1087
 7930TIP3    H245206   1.016   4.393  14.411 -1.8907 -0.9642 -0.8995
 7931TIP3   OH245207   6.165   2.508  13.913 -0.8074 -0.3242  0.1959
 7931TIP3    H145208   6.145   2.425  13.956 -1.3103 -0.1155  0.3641
 7931TIP3    H245209   6.154   2.489  13.819  0.5568 -0.8501  0.1252
 7932TIP3   OH245210   2.299   0.768   0.221 -0.0807  0.2490  0.1997
 7932TIP3    H145211   2.343   0.821   0.156  0.5890 -0.6035 -0.0504
 7932TIP3    H245212   2.363   0.759   0.292 -0.9976  1.6184  1.2109
 7933TIP3   OH245213   5.628   3.718   0.246 -0.5305 -0.1943  0.2289
 7933TIP3    H145214   5.566   3.727   0.173 -0.1906  0.3596  0.0045
 7933TIP3    H245215   5.684   3.645   0.221  0.1220  0.5366 -0.4613
 7934TIP3   OH245216   6.446   6.744   1.132  0.0576 -0.4484  0.0732
 7934TIP3    H145217   6.364   6.723   1.176 -0.0848  1.1750  0.6070
 7934TIP3    H245218   6.430   6.828   1.089  1.5983  0.1677  0.6655
 7935TIP3   OH245219   0.007   1.732  11.676 -0.3120  0.4117 -0.0921
 7935TIP3    H145220   0.018   1.826  11.689  2.1043  0.3974 -1.6811
 7935TIP3    H245221   0.088   1.694  11.711 -0.7869 -0.9728 -0.4814
 7936TIP3   OH245222   1.952   1.843  15.762  0.3292  0.2358 -0.4334
 7936TIP3    H145223   1.961   1.759  15.716 -2.0528 -0.3774  0.1577
 7936TIP3    H245224   1.945   1.908  15.692 -0.1490 -0.3190 -0.9069
 7937TIP3   OH245225   7.272   4.454  11.948 -0.1143  0.8980 -0.3236
 7937TIP3    H145226   7.310   4.375  11.909 -5.1439 -1.6030 -0.6118
 7937TIP3    H245227   7.322   4.467  12.028  1.3611 -2.2102 -0.6396
 7938TIP3   OH245228   0.696   3.983   1.143 -0.1074 -0.0787  0.3453
 7938TIP3    H145229   0.769   3.929   1.175 -0.2303 -1.6500 -1.8814
 7938TIP3    H245230   0.618   3.947   1.185  0.2239  0.8248  1.7835
 7939TIP3   OH245231   1.559   0.825   2.809 -0.2043  0.4079 -0.4294
 7939TIP3    H145232   1.509   0.764   2.863 -0.8105  1.0623 -0.2435
 7939TIP3    H245233   1.590   0.772   2.735  0.4128 -0.4218  0.4245
 7940TIP3   OH245234   5.591   4.992   2.670  0.2680  0.4498  0.1018
 7940TIP3    H145235   5.628   4.920   2.619  0.5239  0.7307 -0.1135
 7940TIP3    H245236   5.667   5.044   2.695  0.1620  0.2182  0.9231
 7941TIP3   OH245237   2.350   5.525   1.031 -1.0316 -0.0867 -0.1528
 7941TIP3    H145238   2.415   5.595   1.038 -0.6352 -0.6881  2.7824
 7941TIP3    H245239   2.400   5.449   1.003 -0.7245 -0.1500  0.5440
 7942TIP3   OH245240   1.568   4.420  13.336 -0.1576  0.2539  0.4130
 7942TIP3    H145241   1.541   4.338  13.378 -0.5582  0.4786  0.6003
 7942TIP3    H245242   1.487   4.459  13.304  0.2335 -0.2654 -1.2426
 7943TIP3   OH245243   0.093   3.587  11.695 -0.2952  1.0179  0.0314
 7943TIP3    H145244   0.160   3.650  11.719  0.1559  0.1980  0.9186
 7943TIP3    H245245   0.022   3.640  11.660  1.1988  1.8253 -1.8555
 7944TIP3   OH245246   4.884   0.036  15.577  0.8986 -0.6909 -0.2059
 7944TIP3    H145247   4.917   0.061  15.663 -1.8154 -0.6633  0.8568
 7944TIP3    H245248   4.962   0.009  15.528  2.5392 -0.0713  2.0320
 7945TIP3   OH245249   6.309   1.514   0.908 -0.2788  0.1415 -1.2423
 7945TIP3    H145250   6.333   1.488   0.998 -1.5035  0.2459 -0.8828
 7945TIP3    H245251   6.367   1.461   0.852  1.2920  0.8975 -0.3792
 7946TIP3   OH245252   7.246   4.172  13.424  0.4655  0.1227 -0.2954
 7946TIP3    H145253   7.237   4.203  13.333  0.5000  1.2600  0.0829
 7946TIP3    H245254   7.303   4.236  13.465 -0.5703  0.3026  0.8758
 7947TIP3   OH245255   4.909   0.693  11.366  0.0054 -0.0518 -0.7075
 7947TIP3    H145256   4.984   0.749  11.346  1.7129 -2.5337 -1.4529
 7947TIP3    H245257   4.910   0.685  11.462  1.3274 -0.8758 -0.7767
 7948TIP3   OH245258   2.027   3.696  15.710 -0.2625  0.0433  0.3653
 7948TIP3    H145259   1.995   3.771  15.759 -0.9794  0.0889 -0.1745
 7948TIP3    H245260   1.952   3.665  15.660 -0.2457 -1.6145  1.2968
 7949TIP3   OH245261   7.049   2.665  15.367 -0.5151 -0.4445  0.1368
 7949TIP3    H145262   7.028   2.719  15.443 -2.2107 -0.6048 -0.2066
 7949TIP3    H245263   7.039   2.575  15.399  0.5061 -0.5489  0.1934
 7950TIP3   OH245264   4.744   2.824  14.224 -0.2091 -0.2602 -0.4673
 7950TIP3    H145265   4.836   2.801  14.228 -0.6212 -1.6917  2.0085
 7950TIP3    H245266   4.704   2.754  14.173 -0.3566 -1.3176  1.0504
 7951TIP3   OH245267   6.047   2.743   0.483  0.3869 -0.2173 -0.0134
 7951TIP3    H145268   6.023   2.804   0.413 -0.7042 -1.8195 -1.0550
 7951TIP3    H245269   6.104   2.679   0.440  1.1146 -0.2330  0.9645
 7952TIP3   OH245270   0.339   2.418  15.430 -0.4286 -0.3194  0.0485
 7952TIP3    H145271   0.388   2.491  15.391 -0.0206 -0.1578  0.8397
 7952TIP3    H245272   0.247   2.440  15.414 -0.2967  0.1886 -0.0399
 7953TIP3   OH245273   7.257   4.250  15.338 -0.2975 -0.7469  0.0021
 7953TIP3    H145274   7.249   4.160  15.309 -0.6906 -0.1175 -1.9232
 7953TIP3    H245275   7.212   4.253  15.422 -0.9660 -2.1713 -0.3026
 7954TIP3   OH245276   0.145   6.654  12.395  0.5721 -0.1429 -0.2200
 7954TIP3    H145277   0.234   6.681  12.418  1.3715 -1.0572 -2.0826
 7954TIP3    H245278   0.157   6.572  12.346 -1.2951 -0.2548 -0.5288
 7955TIP3   OH245279   4.784   2.410  11.183 -0.2548 -1.0451  0.2569
 7955TIP3    H145280   4.855   2.447  11.236 -0.4989 -2.1139  1.3472
 7955TIP3    H245281   4.815   2.418  11.092  0.2345  0.6462  0.5585
 7956TIP3   OH245282   4.954   1.374  14.439 -0.7639  0.6530  0.0675
 7956TIP3    H145283   4.908   1.312  14.382 -0.9139  1.3853 -0.6234
 7956TIP3    H245284   5.007   1.319  14.496 -1.3413 -0.1386 -0.1430
 7957TIP3   OH245285   4.878   1.513  14.771  0.1061  0.8001 -0.0883
 7957TIP3    H145286   4.970   1.540  14.767  0.6995 -1.1929 -0.8333
 7957TIP3    H245287   4.882   1.417  14.778 -1.8934  0.7803  1.1725
 7958TIP3   OH245288   2.679   1.721  14.094 -0.1984 -0.4156 -0.1007
 7958TIP3    H145289   2.668   1.675  14.011  0.5764 -0.8486  0.0309
 7958TIP3    H245290   2.739   1.793  14.075  1.7451 -1.8032  0.5282
 7959TIP3   OH245291   6.652   2.208   0.774 -0.3423  0.3896  0.1670
 7959TIP3    H145292   6.665   2.182   0.865 -1.6277  0.9371  0.5162
 7959TIP3    H245293   6.715   2.279   0.760 -1.5392  1.6980  1.2542
 7960TIP3   OH245294   6.043   4.158   0.657  0.2050  0.2168 -0.1703
 7960TIP3    H145295   5.958   4.138   0.617  0.1380  0.3909 -0.1146
 7960TIP3    H245296   6.055   4.252   0.643 -0.2217  0.4505  0.9766
 7961TIP3   OH245297   1.007   1.281  11.470  0.0670 -0.3080  0.6613
 7961TIP3    H145298   1.028   1.214  11.405 -1.3709 -0.8304  0.7247
 7961TIP3    H245299   1.034   1.243  11.554  3.0918  0.8618  0.2894
 7962TIP3   OH245300   3.502   3.817  15.480 -0.0811 -0.1156  0.5217
 7962TIP3    H145301   3.425   3.856  15.523 -0.7857 -0.2800 -0.5714
 7962TIP3    H245302   3.473   3.731  15.452  0.2398  0.1428 -0.6390
 7963TIP3   OH245303   0.167   0.844  14.531  0.3692  0.1227 -0.1001
 7963TIP3    H145304   0.131   0.788  14.462 -0.5094  0.8795 -0.2588
 7963TIP3    H245305   0.092   0.892  14.565  0.9266  0.3249  0.8625
 7964TIP3   OH245306   6.711   2.806  13.161  0.3156  0.1582  0.1269
 7964TIP3    H145307   6.796   2.783  13.124  0.4737  0.1958  0.4743
 7964TIP3    H245308   6.728   2.881  13.217 -0.4790  2.2901 -2.3511
 7965TIP3   OH245309   0.320   2.003  15.046  0.1438 -0.2967  0.7001
 7965TIP3    H145310   0.309   2.046  14.961  0.6431 -0.3252  0.6226
 7965TIP3    H245311   0.230   1.985  15.075 -0.0159 -2.0489 -0.7400
 7966TIP3   OH245312   5.032   4.960  15.800 -0.1943  0.6982  0.0756
 7966TIP3    H145313   4.969   5.003  15.741 -0.3259 -0.2754 -0.5043
 7966TIP3    H245314   5.101   5.025  15.812  0.0271  0.7825 -1.4791
 7967TIP3   OH245315   3.460   3.212  12.163 -0.5916  0.2173 -0.5373
 7967TIP3    H145316   3.398   3.188  12.095 -0.5102  1.5756 -1.1074
 7967TIP3    H245317   3.430   3.297  12.195  0.3735  0.4087 -0.0972
 7968TIP3   OH245318   6.923   2.297  14.000  0.3053  0.5631  0.1034
 7968TIP3    H145319   6.841   2.262  13.965  0.1330  0.6049  0.4596
 7968TIP3    H245320   6.951   2.362  13.936  0.3046  0.2139 -0.2537
 7969TIP3   OH245321   6.438   2.554  11.455  0.1739  0.2663  0.1154
 7969TIP3    H145322   6.396   2.485  11.404  1.3651 -0.8608  0.6541
 7969TIP3    H245323   6.381   2.566  11.531  0.5612 -0.9337  0.6072
 7970TIP3   OH245324   5.528   3.080   2.676  0.1349  0.7611 -0.7097
 7970TIP3    H145325   5.508   3.052   2.765  1.8899  0.4139 -0.3990
 7970TIP3    H245326   5.443   3.094   2.635 -0.6988 -0.0714  0.7036
 7971TIP3   OH245327   2.782   5.919   0.183  0.6828 -0.4202 -0.5590
 7971TIP3    H145328   2.706   5.933   0.127  1.7657  0.7300 -1.7886
 7971TIP3    H245329   2.782   5.995   0.242  0.2422 -1.0013  0.1986
 7972TIP3   OH245330   5.418   7.140   0.938  0.0484  0.6360 -0.0876
 7972TIP3    H145331   5.403   7.234   0.954 -1.5092  0.0471  2.2275
 7972TIP3    H245332   5.331   7.101   0.948  1.0612 -1.3293  1.2407
 7973TIP3   OH245333   5.883   1.597  13.001  0.5571 -0.2232 -0.5153
 7973TIP3    H145334   5.816   1.534  12.975  0.3907 -0.1063 -0.3694
 7973TIP3    H245335   5.836   1.680  13.008  0.4279 -0.4220  1.0426
 7974TIP3   OH245336   3.585   6.451  15.179  0.5173  0.4093  0.1014
 7974TIP3    H145337   3.525   6.524  15.195 -0.8044 -0.5678 -0.2030
 7974TIP3    H245338   3.638   6.479  15.105 -0.0044  1.0522 -0.0390
 7975TIP3   OH245339   3.622   4.738  13.857  0.0278  0.2510  0.8238
 7975TIP3    H145340   3.544   4.727  13.911 -0.1448 -1.2251  0.2974
 7975TIP3    H245341   3.590   4.777  13.775 -0.0035  0.5594  0.9798
 7976TIP3   OH245342   0.096   4.428   1.086  0.5320 -0.0874  0.3897
 7976TIP3    H145343   0.065   4.440   1.176 -0.4800  0.4863 -0.0193
 7976TIP3    H245344   0.028   4.470   1.032  1.7414  0.6556 -0.5772
 7977TIP3   OH245345   6.778   2.874  11.058 -0.3550 -0.3692  0.2463
 7977TIP3    H145346   6.705   2.936  11.049  1.8580  2.4297  0.6542
 7977TIP3    H245347   6.766   2.836  11.145 -2.3112 -1.3060 -0.4050
 7978TIP3   OH245348   5.057   1.598  13.676  0.0209  0.3321 -0.1922
 7978TIP3    H145349   5.124   1.642  13.624 -0.6843  0.4417 -1.0225
 7978TIP3    H245350   4.998   1.668  13.704  0.1975  0.2252  0.4690
 7979TIP3   OH245351   5.229   2.174  11.662 -0.3707 -0.0925  0.7985
 7979TIP3    H145352   5.289   2.103  11.687  0.2134  0.2845  0.4731
 7979TIP3    H245353   5.280   2.254  11.676 -1.0864  0.2728  1.3294
 7980TIP3   OH245354   6.366   3.121   2.505  0.0568 -0.1927  0.0165
 7980TIP3    H145355   6.309   3.117   2.428 -1.8928 -0.0456  1.4204
 7980TIP3    H245356   6.310   3.154   2.575  2.5289  2.4711  0.8605
 7981TIP3   OH245357   6.762   5.412  15.678  0.0217  0.1963 -0.2727
 7981TIP3    H145358   6.696   5.385  15.613  1.3733 -0.2127 -1.4970
 7981TIP3    H245359   6.818   5.335  15.689  1.2165  1.0304 -0.4173
 7982TIP3   OH245360   2.287   0.723   1.464  0.0915  0.2827 -0.1620
 7982TIP3    H145361   2.345   0.675   1.522  1.0245  0.7375 -0.6935
 7982TIP3    H245362   2.232   0.656   1.423 -1.1912  0.0358  1.8764
 7983TIP3   OH245363   5.505   1.654  13.048 -0.4043 -0.5355 -0.4710
 7983TIP3    H145364   5.441   1.723  13.032 -3.1555 -3.3261 -1.9300
 7983TIP3    H245365   5.465   1.598  13.114  1.0065 -1.6852 -0.5529
 7984TIP3   OH245366   6.531   3.149  13.691  0.1731  0.0092 -0.9010
 7984TIP3    H145367   6.531   3.243  13.706  0.0568 -0.0159 -0.7449
 7984TIP3    H245368   6.465   3.115  13.751 -0.8010 -0.0121 -1.9579
 7985TIP3   OH245369   0.002   0.789  15.163 -0.0388  0.0854 -0.0290
 7985TIP3    H145370  -0.002   0.874  15.208  0.2295  0.5974 -0.9537
 7985TIP3    H245371   0.063   0.737  15.215  1.7854  1.3372 -0.8538
 7986TIP3   OH245372   5.469   2.417   0.471 -0.2767 -0.1768  0.2983
 7986TIP3    H145373   5.500   2.328   0.483  1.4615  0.4870  1.0022
 7986TIP3    H245374   5.493   2.439   0.381 -1.0746 -0.5710 -0.0036
 7987TIP3   OH245375   1.613   1.643  13.235  0.0390  0.5300 -0.0460
 7987TIP3    H145376   1.584   1.732  13.255  0.4057  0.6025  0.1573
 7987TIP3    H245377   1.543   1.608  13.180 -0.3006  0.8067  0.2001
 7988TIP3   OH245378   0.925   0.382  15.358  0.2251  0.1018  0.3286
 7988TIP3    H145379   0.844   0.348  15.320  1.3765 -1.9419 -0.3576
 7988TIP3    H245380   0.897   0.427  15.437 -1.5893 -0.5862  0.1034
 7989TIP3   OH245381   6.542   2.296   2.890 -0.0043  0.6883 -0.4238
 7989TIP3    H145382   6.608   2.314   2.824  1.0362  0.6101  0.5926
 7989TIP3    H245383   6.461   2.330   2.853  0.7998  1.7377 -1.2172
 7990TIP3   OH245384   6.502   3.498   1.304  0.2740  0.3357 -0.7428
 7990TIP3    H145385   6.571   3.472   1.365 -0.9874 -0.6972  0.2853
 7990TIP3    H245386   6.463   3.576   1.343  0.2210  0.3489 -0.8213
 7991TIP3   OH245387   5.082   2.588   0.745  0.0383 -0.3083 -0.4230
 7991TIP3    H145388   5.071   2.499   0.778  1.8775 -0.7738 -0.9940
 7991TIP3    H245389   4.996   2.629   0.756  0.1935 -0.8487  3.6680
 7992TIP3   OH245390   6.288   1.428  14.967  0.5564 -0.5153  0.0072
 7992TIP3    H145391   6.213   1.469  14.926 -0.1746 -1.9543 -0.1238
 7992TIP3    H245392   6.314   1.488  15.037 -0.4296  0.1909 -0.2358
 7993TIP3   OH245393   4.964   2.835  12.931 -0.4836  0.7334 -0.6457
 7993TIP3    H145394   4.880   2.828  12.978 -0.1432 -0.1546 -0.1695
 7993TIP3    H245395   4.994   2.745  12.922  1.1698  1.1355  0.5462
 7994TIP3   OH245396   6.549   3.466  15.834 -0.2777 -0.3686  0.5668
 7994TIP3    H145397   6.604   3.464  15.912  2.2271  0.7114 -1.0995
 7994TIP3    H245398   6.562   3.381  15.793  0.1292 -0.1286  0.1951
 7995TIP3   OH245399   5.360   4.802   2.669 -0.1555 -0.4124 -0.0528
 7995TIP3    H145400   5.408   4.727   2.634 -0.6989 -0.6993 -0.1896
 7995TIP3    H245401   5.416   4.878   2.650 -0.7588 -0.4667 -2.1940
 7996TIP3   OH245402   0.106   2.924  14.098 -0.2587  0.6986  0.2367
 7996TIP3    H145403   0.066   2.844  14.063 -2.1904  1.2102  1.2355
 7996TIP3    H245404   0.178   2.892  14.152 -0.6868 -0.3486  0.2084
 7997TIP3   OH245405   1.238   4.333   0.760 -0.3586  0.0549 -0.2423
 7997TIP3    H145406   1.225   4.316   0.853 -0.4719 -0.4333 -0.3465
 7997TIP3    H245407   1.157   4.374   0.731 -0.1807  0.5483 -0.0448
 7998TIP3   OH245408   6.055   3.654  15.060  0.2594 -0.7364 -0.1513
 7998TIP3    H145409   6.047   3.680  14.968  0.3648 -0.4467 -0.0819
 7998TIP3    H245410   6.147   3.630  15.070  0.1818 -1.0430 -0.1931
 7999TIP3   OH245411   0.322   3.531  10.328  0.3131 -0.2470  0.4970
 7999TIP3    H145412   0.387   3.465  10.351  0.8824  0.2615  0.3735
 7999TIP3    H245413   0.277   3.551  10.410 -0.3665 -1.3183  0.3956
 8000TIP3   OH245414   5.175   2.078  12.319 -0.2748  0.5628  0.4055
 8000TIP3    H145415   5.210   2.015  12.382  2.2286  0.1332 -1.3048
 8000TIP3    H245416   5.236   2.152  12.323 -0.5991  0.9144 -0.8086
 8001TIP3   OH245417   7.118   5.857  15.807 -0.3647  0.3148 -0.3611
 8001TIP3    H145418   7.082   5.942  15.784 -0.9974  0.1312 -0.0648
 8001TIP3    H245419   7.208   5.860  15.777  0.1248  1.7285  1.1765
 8002TIP3   OH245420   5.726   3.832  15.345  0.3684  0.4867 -0.0677
 8002TIP3    H145421   5.670   3.894  15.300  0.4657  0.7403  0.1601
 8002TIP3    H245422   5.688   3.824  15.433  0.7240  0.7086  0.1085
 8003TIP3   OH245423   6.938   4.882  15.833 -0.6487 -0.0432  0.7825
 8003TIP3    H145424   6.912   4.847  15.747 -1.5600  0.8904  0.6692
 8003TIP3    H245425   7.030   4.856  15.842 -0.8866 -1.1869  0.0550
 8004TIP3   OH245426   6.899   2.904  13.973 -0.0431  0.5134 -0.5936
 8004TIP3    H145427   6.854   2.826  14.006  2.0734 -0.6084 -0.2875
 8004TIP3    H245428   6.944   2.940  14.050  0.7068  0.8312 -1.1753
 8005TIP3   OH245429   6.772   1.122  12.589  0.1651 -0.4343 -0.2015
 8005TIP3    H145430   6.855   1.102  12.631 -0.5521  0.5617  1.7021
 8005TIP3    H245431   6.793   1.189  12.524  0.8134 -0.1007  0.3570
 8006TIP3   OH245432   1.746   1.943  14.059  0.8966 -0.3528  0.4297
 8006TIP3    H145433   1.824   1.951  14.005  1.6136  0.2155  1.5187
 8006TIP3    H245434   1.777   1.961  14.148 -0.9733  2.5442  0.5413
 8007TIP3   OH245435   4.821   2.089  12.389 -0.7126 -0.1143  0.2268
 8007TIP3    H145436   4.896   2.115  12.443 -0.5593 -1.0240  0.4532
 8007TIP3    H245437   4.825   2.149  12.314 -0.3740  0.5269  0.7476
 8008TIP3   OH245438   6.400   3.089  14.359  0.1577 -0.4404 -0.7876
 8008TIP3    H145439   6.310   3.120  14.366  0.1150 -0.2260 -2.1459
 8008TIP3    H245440   6.392   2.994  14.357  0.0260 -0.4465 -0.0946
 8009TIP3   OH245441   6.147   0.542  15.919  0.2325 -0.1039 -0.1273
 8009TIP3    H145442   6.151   0.460  15.970 -1.7966 -1.2217 -1.7038
 8009TIP3    H245443   6.096   0.602  15.974  0.1310 -0.5102  0.2296
 8010TIP3   OH245444   5.347   2.276  13.889 -0.6896  0.1824 -0.7364
 8010TIP3    H145445   5.409   2.222  13.840 -0.4878 -1.7051  1.5188
 8010TIP3    H245446   5.366   2.366  13.861  3.2081 -0.3182  0.0037
 8011TIP3   OH245447   0.131   5.366   0.539 -0.1177 -0.2748  0.3452
 8011TIP3    H145448   0.198   5.395   0.601  1.2709 -0.4277 -1.0372
 8011TIP3    H245449   0.154   5.411   0.457 -3.1852  1.6356  0.4758
 8012TIP3   OH245450   5.462   0.912  10.886  0.5495 -0.2674  0.1551
 8012TIP3    H145451   5.387   0.970  10.877  0.2281 -0.6008  0.7147
 8012TIP3    H245452   5.488   0.893  10.795  1.1673  1.3878 -0.0299
 8013TIP3   OH245453   7.271   0.392  13.733 -0.3286  0.1718 -0.5585
 8013TIP3    H145454   7.227   0.346  13.804 -1.1226  1.6556 -0.0551
 8013TIP3    H245455   7.202   0.412  13.670  0.1735 -0.1504 -1.2227
 8014TIP3   OH245456   5.424   2.481  12.977 -0.1365  0.4454  0.1218
 8014TIP3    H145457   5.516   2.484  12.951  0.3418 -1.2849  1.4872
 8014TIP3    H245458   5.380   2.541  12.917  1.5123 -0.5065 -2.1028
 8015TIP3   OH245459   1.099   4.556  11.439 -0.7347 -0.4153  0.5677
 8015TIP3    H145460   1.078   4.502  11.515  1.5628 -3.3626 -0.7967
 8015TIP3    H245461   1.181   4.601  11.463 -0.6293 -0.4534  0.2840
 8016TIP3   OH245462   3.713   1.243  13.525  0.1536  0.4865 -0.2032
 8016TIP3    H145463   3.670   1.161  13.504 -0.3597  0.7723 -0.2787
 8016TIP3    H245464   3.748   1.274  13.441  1.3448 -0.2156  0.0209
 8017TIP3   OH245465   4.100   1.547  12.910 -0.4057  0.1781  0.0838
 8017TIP3    H145466   4.091   1.569  12.817 -1.6143  1.5524  0.5086
 8017TIP3    H245467   4.180   1.592  12.938 -0.0573 -0.2103 -0.2794
 8018TIP3   OH245468   1.923   5.344   2.314 -0.1666 -0.4641 -0.0425
 8018TIP3    H145469   1.868   5.268   2.298 -2.1608  1.6215 -3.7171
 8018TIP3    H245470   1.976   5.353   2.235  0.1471  1.8760  0.3971
 8019TIP3   OH245471   2.382   2.971  13.599  0.3484  0.0051 -0.3259
 8019TIP3    H145472   2.428   2.900  13.555  2.5909 -0.3402  2.4181
 8019TIP3    H245473   2.304   2.930  13.635  1.3548 -0.9649  0.7849
 8020TIP3   OH245474   4.970   0.462   0.934  1.0235 -0.1417  0.4112
 8020TIP3    H145475   5.048   0.516   0.922  0.5664  0.4548  0.0904
 8020TIP3    H245476   4.903   0.506   0.881  0.4969 -0.6981  0.6199
 8021TIP3   OH245477   1.114   0.623   2.910  0.0249 -0.4770  0.4964
 8021TIP3    H145478   1.018   0.616   2.914 -0.3458  2.8222 -1.3717
 8021TIP3    H245479   1.136   0.612   2.818  1.5747 -1.8553  0.9888
 8022TIP3   OH245480   6.574   0.352  14.536 -1.0228 -0.3891  0.1273
 8022TIP3    H145481   6.635   0.422  14.515  0.0553 -0.8908  1.4774
 8022TIP3    H245482   6.601   0.279  14.481  0.0767 -0.8322  1.2084
 8023TIP3   OH245483   4.692   4.004  12.129  0.6552  0.4077  0.5293
 8023TIP3    H145484   4.607   4.046  12.127  1.2309  1.5183 -0.9444
 8023TIP3    H245485   4.714   4.000  12.222 -0.7233  0.6580  0.8740
 8024TIP3   OH245486   4.305   3.803  13.087  0.3325 -0.0109  0.3260
 8024TIP3    H145487   4.226   3.811  13.140  0.5469  1.1739  0.4923
 8024TIP3    H245488   4.274   3.778  13.000 -0.5468  3.5962 -0.4858
 8025TIP3   OH245489   7.238   5.107  13.486 -0.2483 -0.2306  0.0193
 8025TIP3    H145490   7.242   5.189  13.535  1.1701 -0.5804  0.5001
 8025TIP3    H245491   7.171   5.055  13.531 -0.6007  0.3577  0.1739
 8026TIP3   OH245492   6.286   4.301  15.176 -0.4429  0.0382  0.8489
 8026TIP3    H145493   6.316   4.219  15.215 -2.1861 -0.7016  0.6777
 8026TIP3    H245494   6.323   4.301  15.088 -0.1411 -0.3751  0.9746
 8027TIP3   OH245495   6.451   4.085  12.037  0.1084  0.0172 -0.2058
 8027TIP3    H145496   6.489   4.147  12.099 -0.5115  1.5039 -1.2889
 8027TIP3    H245497   6.362   4.117  12.023 -0.1356 -0.9728 -0.9665
 8028TIP3   OH245498   4.149   5.828  15.123 -1.1829  0.8262 -0.5256
 8028TIP3    H145499   4.061   5.789  15.127 -0.6322 -0.5090 -1.3708
 8028TIP3    H245500   4.176   5.818  15.032  0.7335 -0.7591  0.1949
 8029TIP3   OH245501   5.946   3.517  13.479  0.3738  0.5306  0.1379
 8029TIP3    H145502   6.037   3.534  13.454  0.7561 -0.6526  0.7358
 8029TIP3    H245503   5.945   3.426  13.509 -0.7795  0.8783  1.1997
 8030TIP3   OH245504   1.219   1.527   1.337 -0.3301 -0.0756 -1.0879
 8030TIP3    H145505   1.275   1.565   1.269  0.2853  0.2712 -0.3957
 8030TIP3    H245506   1.160   1.598   1.363  0.9215  0.4833  0.3149
 8031TIP3   OH245507   3.948   3.973  15.296 -0.0208 -0.4845 -0.5022
 8031TIP3    H145508   4.030   3.996  15.339  0.9856 -0.9157 -2.1673
 8031TIP3    H245509   3.886   4.040  15.325  1.9626  2.2808 -2.4569
 8032TIP3   OH245510   5.558   2.594  15.480 -0.0310  0.3943  0.4400
 8032TIP3    H145511   5.518   2.507  15.484  0.1247  0.1519 -2.3681
 8032TIP3    H245512   5.501   2.644  15.421  1.5939  1.2281 -0.4589
 8033TIP3   OH245513   0.518   1.527  14.425  0.1536 -0.0768  0.1322
 8033TIP3    H145514   0.431   1.504  14.459  0.4009  1.7729  2.0795
 8033TIP3    H245515   0.579   1.482  14.482  0.5194  0.2928  0.0352
 8034TIP3   OH245516   6.618   4.027   0.303 -0.3372 -0.5810  0.2555
 8034TIP3    H145517   6.588   3.937   0.316  0.6538 -0.9009  0.3753
 8034TIP3    H245518   6.654   4.027   0.214 -0.0186 -0.3946  0.3862
 8035TIP3   OH245519   2.180   2.411  10.305  0.8307  0.1558  0.4900
 8035TIP3    H145520   2.274   2.430  10.305  1.2204 -1.6033 -1.2722
 8035TIP3    H245521   2.143   2.472  10.242  0.9556  0.0500  0.3154
 8036TIP3   OH245522   6.810   4.384  14.256  0.2706  0.0384 -0.1921
 8036TIP3    H145523   6.886   4.333  14.285  1.2686  0.8424 -1.3207
 8036TIP3    H245524   6.768   4.330  14.189  0.9579  0.4054 -0.9289
 8037TIP3   OH245525   4.797   1.010  14.468 -0.5240  0.4955  0.0926
 8037TIP3    H145526   4.815   1.062  14.390 -1.5215  0.0783 -0.4331
 8037TIP3    H245527   4.877   1.014  14.519  0.0794  0.9154 -0.8767
 8038TIP3   OH245528   4.569   2.505   0.750  0.4148 -0.3603 -0.3417
 8038TIP3    H145529   4.527   2.441   0.692 -0.2501 -0.6435  0.4381
 8038TIP3    H245530   4.563   2.465   0.837 -0.6100  1.0586  0.2644
 8039TIP3   OH245531   5.943   0.774  12.759 -0.6267 -0.1426 -0.0142
 8039TIP3    H145532   5.993   0.836  12.813  0.7221 -2.6524  1.6984
 8039TIP3    H245533   5.875   0.741  12.817 -0.1610 -1.6855 -0.3434
 8040TIP3   OH245534   5.841   3.556  15.416 -0.0855 -0.4117  0.2361
 8040TIP3    H145535   5.834   3.480  15.359  0.1686 -0.1147 -0.2000
 8040TIP3    H245536   5.871   3.521  15.500 -3.0128 -1.1872  0.9971
 8041TIP3   OH245537   4.439   2.163   0.403 -0.2228  0.3018  0.2537
 8041TIP3    H145538   4.479   2.180   0.317 -0.9137  2.1316  0.2722
 8041TIP3    H245539   4.345   2.175   0.389 -0.5250 -1.1691  0.8741
 8042TIP3   OH245540   6.956   4.426   0.307 -0.3609  0.0928  0.0851
 8042TIP3    H145541   6.892   4.365   0.344 -1.2963  0.4420 -0.9214
 8042TIP3    H245542   6.903   4.491   0.261  0.6722  1.1053  0.3019
 8043TIP3   OH245543   0.452   1.648  14.833 -0.3346  0.0669  0.3457
 8043TIP3    H145544   0.501   1.666  14.753  0.4168  0.0113  0.7808
 8043TIP3    H245545   0.372   1.606  14.804 -0.4106  0.7392 -0.4289
 8044TIP3   OH245546   5.881   4.972  13.794  0.2576  0.4784  0.3391
 8044TIP3    H145547   5.797   4.942  13.829  0.8582 -1.4096  0.2054
 8044TIP3    H245548   5.862   4.995  13.703 -0.1527  0.2141  0.3552
 8045TIP3   OH245549   4.350   2.850  11.908  0.4446 -0.2259 -0.5228
 8045TIP3    H145550   4.352   2.757  11.885 -0.9185 -0.5829  0.7194
 8045TIP3    H245551   4.325   2.851  12.001 -0.2452  1.4089 -0.7087
 8046TIP3   OH245552   2.399   5.985  15.918 -0.7159 -0.1969  0.2020
 8046TIP3    H145553   2.450   6.055  15.959  0.7117 -1.1234  0.0674
 8046TIP3    H245554   2.398   6.007  15.825 -1.5219  0.4178  0.3594
 8047TIP3   OH245555   2.693   5.091  12.700 -0.6263 -0.3806 -0.5303
 8047TIP3    H145556   2.775   5.138  12.711  0.3826 -2.1697 -0.3015
 8047TIP3    H245557   2.712   5.024  12.634 -2.4609  0.4888 -1.9898
 8048TIP3   OH245558   4.440   2.779  10.338 -1.1452  0.1185 -0.0002
 8048TIP3    H145559   4.378   2.772  10.266 -2.5886 -0.6955  1.3061
 8048TIP3    H245560   4.445   2.873  10.356 -0.5649  0.3467 -1.3390
 8049TIP3   OH245561   2.202   4.459  15.214  0.3890  0.1331  0.4555
 8049TIP3    H145562   2.186   4.494  15.126  0.2829  1.4389  0.9876
 8049TIP3    H245563   2.295   4.475  15.230  0.1034  1.1817  1.1275
 8050TIP3   OH245564   2.089   5.333  14.114 -0.2496  0.1063  0.0426
 8050TIP3    H145565   2.026   5.400  14.085  1.0121  0.0902 -2.9042
 8050TIP3    H245566   2.171   5.380  14.124  0.3434 -0.7467 -0.7575
 8051TIP3   OH245567   6.944   6.805  15.022 -0.0707  0.7128  0.1898
 8051TIP3    H145568   6.957   6.714  14.993  1.2805  0.4491  1.5929
 8051TIP3    H245569   7.027   6.848  15.005 -0.8283  1.8114 -0.8138
 8052TIP3   OH245570   1.160   3.527  11.421  0.0812 -0.3163  0.3950
 8052TIP3    H145571   1.101   3.487  11.485 -2.5072 -1.3833 -2.5389
 8052TIP3    H245572   1.121   3.612  11.402  0.4314 -0.3132 -0.3086
 8053TIP3   OH245573   1.864   2.629  14.745 -0.2451  0.0708 -0.0872
 8053TIP3    H145574   1.887   2.604  14.655  0.1356 -0.1928  0.0842
 8053TIP3    H245575   1.924   2.700  14.767  1.8710 -2.0466  1.1308
 8054TIP3   OH245576   0.815   7.189  15.185 -0.3901  0.0725  0.5173
 8054TIP3    H145577   0.728   7.188  15.145  0.3492 -0.8222 -1.1269
 8054TIP3    H245578   0.825   7.278  15.219 -1.2078  0.7528 -0.9783
 8055TIP3   OH245579   1.846   3.193  13.427  0.2082 -0.0161 -0.2712
 8055TIP3    H145580   1.793   3.253  13.375 -2.1612  0.4812  2.5419
 8055TIP3    H245581   1.782   3.131  13.464  1.9335 -0.9866  1.1453
 8056TIP3   OH245582   2.436   4.022   0.823 -0.8638 -0.1934  0.3017
 8056TIP3    H145583   2.447   3.932   0.855 -0.6892 -0.2832 -0.0091
 8056TIP3    H245584   2.521   4.044   0.785 -1.3590 -0.4187 -0.9410
 8057TIP3   OH245585   4.970   3.473  13.882 -0.3813 -0.0279  0.8089
 8057TIP3    H145586   4.914   3.460  13.958 -0.3805  1.4806  1.0844
 8057TIP3    H245587   4.978   3.568  13.874  1.5756 -0.2058  0.3708
 8058TIP3   OH245588   6.677   1.449  11.813  0.4629  0.0260  0.5124
 8058TIP3    H145589   6.640   1.536  11.831  2.7805  0.5997  2.7083
 8058TIP3    H245590   6.624   1.389  11.865  2.4136  0.8303  3.5519
 8059TIP3   OH245591   1.086   5.247  15.324  0.4594  0.6974  0.0048
 8059TIP3    H145592   1.128   5.306  15.262  1.4395 -3.2302 -3.2697
 8059TIP3    H245593   0.995   5.241  15.294  0.1559  1.1304  0.8206
 8060TIP3   OH245594   7.095   1.758  12.425  0.2115 -0.1244  0.1451
 8060TIP3    H145595   7.037   1.814  12.373 -0.2173 -0.3804  0.3470
 8060TIP3    H245596   7.138   1.820  12.485  1.6274  0.3434 -1.3255
 8061TIP3   OH245597   0.362   0.420   3.167 -0.0636 -0.1509  0.0113
 8061TIP3    H145598   0.366   0.493   3.229 -0.4245 -0.3118  0.2304
 8061TIP3    H245599   0.300   0.359   3.207 -1.0612  0.1843 -0.9765
 8062TIP3   OH245600   0.226   0.433  14.909 -0.4399 -0.2638 -0.1207
 8062TIP3    H145601   0.285   0.376  14.859 -2.3689 -1.3735 -1.1879
 8062TIP3    H245602   0.224   0.514  14.859  0.1617 -0.2126 -0.0732
 8063TIP3   OH245603   0.346   6.322   2.579  0.1168  0.3054  0.3748
 8063TIP3    H145604   0.396   6.340   2.659 -1.5473 -0.1973  1.5423
 8063TIP3    H245605   0.382   6.239   2.548 -0.5330 -0.4698  1.6569
 8064TIP3   OH245606   3.565   6.102  13.668 -0.3185 -0.1459  0.3859
 8064TIP3    H145607   3.527   6.138  13.748 -0.3420 -1.0666  0.7949
 8064TIP3    H245608   3.657   6.088  13.690 -0.7121 -2.0882  0.8444
 8065TIP3   OH245609   2.023   4.891  15.177  0.3881 -0.5024  0.0747
 8065TIP3    H145610   2.053   4.857  15.261 -0.5764 -2.3586 -0.3051
 8065TIP3    H245611   1.945   4.942  15.198  2.2228  2.1304  0.7330
 8066TIP3   OH245612   6.259   2.654   0.236  0.4561  0.3714 -0.3671
 8066TIP3    H145613   6.310   2.575   0.254  2.9664  2.1012  0.5318
 8066TIP3    H245614   6.313   2.702   0.173  0.4044  2.6570  1.2527
 8067TIP3   OH245615   1.360   1.257  12.869 -0.0136  0.4759 -0.6990
 8067TIP3    H145616   1.274   1.232  12.902  0.0030 -0.2198 -1.1776
 8067TIP3    H245617   1.411   1.277  12.948 -0.3323 -0.0061 -0.3688
 8068TIP3   OH245618   1.540   5.128   0.593 -0.2334 -0.0753  0.6634
 8068TIP3    H145619   1.530   5.033   0.594 -0.2896 -0.2246 -3.9803
 8068TIP3    H245620   1.453   5.161   0.570  0.4111  0.9288 -0.3834
 8069TIP3   OH245621   1.745   4.108  15.523  0.3900  0.3211 -0.1369
 8069TIP3    H145622   1.776   4.159  15.598  0.6811 -1.4924  1.0024
 8069TIP3    H245623   1.663   4.150  15.497 -0.3596  0.2327  1.9855
 8070TIP3   OH245624   1.082   2.781  11.487  0.2264  0.2770 -0.2978
 8070TIP3    H145625   1.104   2.732  11.566  2.2270  1.7485  0.0926
 8070TIP3    H245626   1.089   2.717  11.416 -0.9644 -0.9008  0.6018
 8071TIP3   OH245627   3.346   4.564  15.943 -0.1859 -0.0878  0.1677
 8071TIP3    H145628   3.433   4.552  15.980  0.8645  1.8635 -1.5110
 8071TIP3    H245629   3.318   4.476  15.917  1.8109 -0.5758 -0.3838
 8072TIP3   OH245630   3.189   6.825  13.032  0.4169  0.2937  0.0459
 8072TIP3    H145631   3.219   6.815  12.942  1.3528 -1.1758  0.4925
 8072TIP3    H245632   3.269   6.823  13.085 -0.1093  1.2325  0.9051
 8073TIP3   OH245633   0.078   7.018  14.629  0.3508 -0.0099 -0.4962
 8073TIP3    H145634  -0.017   7.002  14.623  0.6109 -2.0853  0.4898
 8073TIP3    H245635   0.112   6.996  14.543  0.0789 -0.2936 -0.5306
 8074TIP3   OH245636   2.743   6.118  10.632  0.5247 -0.2100 -0.2578
 8074TIP3    H145637   2.777   6.046  10.686  1.5578 -0.4695 -1.2376
 8074TIP3    H245638   2.816   6.142  10.576 -0.6276 -0.1116 -1.7361
 8075TIP3   OH245639   7.251   2.721   0.688  0.0001 -0.1085 -0.3456
 8075TIP3    H145640   7.310   2.711   0.613 -1.2191 -2.0570 -1.0721
 8075TIP3    H245641   7.193   2.793   0.663  0.5837  0.2759 -0.6032
 8076TIP3   OH245642   3.750   3.669  13.860  0.2676  0.4930  0.1157
 8076TIP3    H145643   3.660   3.636  13.854  1.0453 -1.5972 -0.2623
 8076TIP3    H245644   3.752   3.744  13.801 -0.5297 -1.0818 -1.9984
 8077TIP3   OH245645   0.776   4.484  13.219  0.4927  0.8025 -0.0405
 8077TIP3    H145646   0.745   4.570  13.247 -0.1410  0.7415 -0.5394
 8077TIP3    H245647   0.787   4.492  13.124  0.0622  0.2195 -0.1445
 8078TIP3   OH245648   3.136   5.372  15.566  0.2043 -0.3178  0.8396
 8078TIP3    H145649   3.112   5.455  15.605  0.6144 -0.1950  0.8353
 8078TIP3    H245650   3.059   5.345  15.516  0.0791  0.0665  0.8293
 8079TIP3   OH245651   7.039   4.853  14.183 -0.1428  0.2160 -0.3294
 8079TIP3    H145652   7.044   4.768  14.226  0.4293  0.6309  0.4531
 8079TIP3    H245653   6.995   4.836  14.099 -1.5082 -0.5535  0.5367
 8080TIP3   OH245654   0.188   4.400  12.852  0.1733 -0.0566  0.0659
 8080TIP3    H145655   0.106   4.449  12.856  0.2949  0.2587 -1.1677
 8080TIP3    H245656   0.230   4.430  12.771  1.2813 -0.5644  0.4477
 8081TIP3   OH245657   1.702   4.184  12.391 -0.6425  0.1622 -0.7381
 8081TIP3    H145658   1.640   4.115  12.415  0.8532 -0.9233  0.0128
 8081TIP3    H245659   1.698   4.247  12.463 -0.8670  0.0936 -0.6907
 8082TIP3   OH245660   1.480   7.106  14.396  0.3979  0.6281  0.2950
 8082TIP3    H145661   1.451   7.055  14.472  1.4216  3.1886  2.4505
 8082TIP3    H245662   1.423   7.183  14.395 -0.4602  0.0380 -2.3409
 8083TIP3   OH245663   6.907   5.144  13.881 -0.3007 -0.0219  0.5538
 8083TIP3    H145664   6.829   5.099  13.913 -1.5612  2.9194  1.8360
 8083TIP3    H245665   6.873   5.223  13.839  1.8850  0.3525 -0.5709
 8084TIP3   OH245666   6.061   3.111  11.808  0.7251 -0.2483 -0.1320
 8084TIP3    H145667   6.147   3.078  11.834  0.0957 -0.3160  1.9147
 8084TIP3    H245668   6.020   3.140  11.889 -1.7534 -1.5006 -0.8638
 8085TIP3   OH245669   3.041   5.107   1.212 -0.2541 -0.0777  0.1479
 8085TIP3    H145670   3.040   5.095   1.307  1.3160  0.2658  0.2270
 8085TIP3    H245671   3.021   5.200   1.200  0.8608  0.1827  0.2249
 8086TIP3   OH245672   1.653   1.029  14.262 -0.2488 -0.0375  0.1401
 8086TIP3    H145673   1.674   1.078  14.182 -1.3114  0.6555  0.2717
 8086TIP3    H245674   1.613   0.948  14.230 -2.8619  1.2609 -0.0329
 8087TIP3   OH245675   7.301   5.933   0.593 -0.0695  0.3798 -0.1710
 8087TIP3    H145676   7.340   5.870   0.655 -1.2287  0.3927  0.5751
 8087TIP3    H245677   7.371   5.997   0.579  0.4948 -0.0698  0.4815
 8088TIP3   OH245678   4.962   2.268   0.356 -0.0707 -0.2949 -0.4244
 8088TIP3    H145679   5.029   2.331   0.383  0.2950 -0.3763 -1.1440
 8088TIP3    H245680   4.937   2.224   0.438  1.9981 -1.4865 -0.3827
 8089TIP3   OH245681   1.859   0.876  13.982  0.4847  0.9492  0.5814
 8089TIP3    H145682   1.949   0.857  14.008  0.2869 -0.5005  0.2479
 8089TIP3    H245683   1.828   0.795  13.942 -1.1855  1.2009  1.3094
 8090TIP3   OH245684   6.119   5.507   0.135  0.4485  0.3620  0.4168
 8090TIP3    H145685   6.067   5.432   0.165  0.5280  0.7422  1.5062
 8090TIP3    H245686   6.183   5.469   0.074 -0.9617 -0.1385 -0.7941
 8091TIP3   OH245687   0.361   0.784   1.926  0.5242 -0.0126  0.0020
 8091TIP3    H145688   0.292   0.851   1.926 -0.1782 -0.7253 -2.0932
 8091TIP3    H245689   0.343   0.731   2.004 -0.8032  0.2992 -0.0881
 8092TIP3   OH245690   7.156   2.611   0.252  0.5055  0.1204 -0.0877
 8092TIP3    H145691   7.131   2.519   0.260  0.2057  0.0263 -1.8592
 8092TIP3    H245692   7.250   2.608   0.233  0.1849  0.0818 -1.7684
 8093TIP3   OH245693   1.614   2.035  14.691 -0.8521  0.4378 -0.4099
 8093TIP3    H145694   1.581   2.054  14.603 -1.0803  0.1549 -0.3870
 8093TIP3    H245695   1.572   1.953  14.715  0.5645 -0.4140 -0.7493
 8094TIP3   OH245696   1.551   4.252  15.393 -0.4669  0.0758  0.2179
 8094TIP3    H145697   1.507   4.198  15.328 -1.2308  0.3681  0.4822
 8094TIP3    H245698   1.623   4.293  15.346  0.2094 -1.2605  0.0401
 8095TIP3   OH245699   2.132   4.270  14.087  0.3429  0.2084 -0.2125
 8095TIP3    H145700   2.068   4.215  14.041 -0.0343  2.2815 -2.2589
 8095TIP3    H245701   2.208   4.271  14.029  0.8743  0.7127  0.4976
 8096TIP3   OH245702   7.252   3.156   0.278  0.0242 -0.2871  0.5384
 8096TIP3    H145703   7.182   3.135   0.339 -1.4249  0.2034 -0.9478
 8096TIP3    H245704   7.304   3.076   0.272 -0.3737 -0.6414  1.6508
 8097TIP3   OH245705   2.028   7.204   0.294 -0.2380 -0.0004  0.1975
 8097TIP3    H145706   1.949   7.249   0.324 -0.2930 -0.5590  0.8897
 8097TIP3    H245707   2.010   7.111   0.309  0.3786 -0.1570 -0.0424
 8098TIP3   OH245708   1.038   3.807  14.941 -0.3669  0.1764  0.8738
 8098TIP3    H145709   1.063   3.822  14.850 -1.1321  2.0960  0.9646
 8098TIP3    H245710   1.061   3.715  14.957 -1.6114 -0.6532 -1.7248
 8099TIP3   OH245711   2.251   6.278   0.415 -0.1734  0.1066 -0.0289
 8099TIP3    H145712   2.164   6.318   0.408 -0.9479 -1.2604  1.1179
 8099TIP3    H245713   2.232   6.184   0.424  1.4447 -0.2383 -0.1500
 8100TIP3   OH245714   0.590   2.547  15.633  0.0147  0.1961 -0.3484
 8100TIP3    H145715   0.517   2.553  15.694  0.0380  0.6211 -0.3602
 8100TIP3    H245716   0.603   2.453  15.619  0.9421  0.0368  1.4109
 8101TIP3   OH245717   5.925   5.382   0.600 -0.0658  0.2874 -0.2861
 8101TIP3    H145718   5.894   5.470   0.624 -0.1664  0.1779 -0.0098
 8101TIP3    H245719   5.911   5.330   0.679 -0.4845 -0.0985 -0.6126
 8102TIP3   OH245720   6.432   1.100  13.956  0.1337 -0.2665  0.0585
 8102TIP3    H145721   6.524   1.072  13.952 -0.0112 -0.5065 -1.9272
 8102TIP3    H245722   6.390   1.056  13.882 -1.0689  1.6924 -0.4482
 8103TIP3   OH245723   7.033   5.122  14.227 -0.2807  0.0156  0.2493
 8103TIP3    H145724   7.071   5.034  14.226  0.0098  0.1396  0.4714
 8103TIP3    H245725   6.949   5.112  14.182 -1.0191 -0.7321  1.7663
 8104TIP3   OH245726   6.975   1.827  13.786  0.7338 -0.5433 -0.4921
 8104TIP3    H145727   7.043   1.861  13.728 -0.8616  0.0569 -2.0743
 8104TIP3    H245728   6.909   1.791  13.727 -1.1858  0.5698  0.9096
 8105TIP3   OH245729   2.833   4.649  15.847  0.0326 -0.6804 -0.0536
 8105TIP3    H145730   2.767   4.580  15.840 -0.5404 -0.1517  0.0308
 8105TIP3    H245731   2.900   4.613  15.905 -0.3290 -1.1165  0.0972
 8106TIP3   OH245732   6.513   2.031   1.547 -0.1621  0.2188 -0.2715
 8106TIP3    H145733   6.492   2.059   1.458 -0.5753  2.8688  0.6274
 8106TIP3    H245734   6.438   1.978   1.574 -0.8221  0.8112 -0.9135
 8107TIP3   OH245735   5.942   2.474  10.687 -0.1566 -0.0635 -0.2435
 8107TIP3    H145736   5.962   2.442  10.600 -0.6508  0.9693 -0.7482
 8107TIP3    H245737   5.956   2.569  10.682 -2.0753  0.2780  0.2277
 8108TIP3   OH245738   1.149   2.611  11.741  0.7352 -0.1839  0.1276
 8108TIP3    H145739   1.107   2.540  11.790  0.2201 -0.4351 -0.6621
 8108TIP3    H245740   1.235   2.577  11.717 -0.1487 -1.1951 -1.7034
 8109TIP3   OH245741   0.931   7.110   3.849  0.7703 -0.5136 -0.8973
 8109TIP3    H145742   0.958   7.173   3.916 -0.7316 -1.6862  0.8493
 8109TIP3    H245743   0.938   7.158   3.767 -0.9473  2.1638  0.4549
 8110TIP3   OH245744   6.569   1.590  12.876  0.2930 -0.2039  0.5841
 8110TIP3    H145745   6.587   1.660  12.938  0.9949  0.2652 -0.1510
 8110TIP3    H245746   6.607   1.619  12.793 -0.5973 -0.8384 -0.0682
 8111TIP3   OH245747   2.034   4.282  15.354  0.1945  0.2410  0.1687
 8111TIP3    H145748   2.100   4.244  15.411 -1.0965 -0.2601  1.3448
 8111TIP3    H245749   2.079   4.354  15.310  1.4768  0.0033  1.0738
 8112TIP3   OH245750   3.786   5.523  12.461 -0.0725  0.4418 -0.6590
 8112TIP3    H145751   3.808   5.556  12.548  1.6983 -1.1278 -0.4679
 8112TIP3    H245752   3.851   5.562  12.403  2.2023 -2.7275 -0.3897
 8113TIP3   OH245753   2.494   0.759  13.578  0.0705 -0.4515  0.0106
 8113TIP3    H145754   2.476   0.665  13.584  1.7153 -0.8834 -1.5150
 8113TIP3    H245755   2.583   0.768  13.614 -0.1467  0.5469  0.3017
 8114TIP3   OH245756   0.761   2.314  15.648  0.2104  0.4560  0.0472
 8114TIP3    H145757   0.752   2.308  15.553  2.7758 -2.2728 -0.1099
 8114TIP3    H245758   0.830   2.378  15.662 -0.2385  0.9343  0.0973
 8115TIP3   OH245759   0.478   3.458  14.381 -0.3397 -0.0567  0.0123
 8115TIP3    H145760   0.527   3.497  14.453  1.3345 -1.9529 -0.0496
 8115TIP3    H245761   0.474   3.365  14.402  0.2098 -0.6533 -2.3483
 8116TIP3   OH245762   0.633   5.342   1.993 -0.3014  0.1138  0.7702
 8116TIP3    H145763   0.541   5.351   2.018 -0.0457  0.7757  1.5202
 8116TIP3    H245764   0.635   5.268   1.932 -1.1265 -0.8621  1.8950
 8117TIP3   OH245765   6.675   4.294  15.010  0.5438  0.3244  0.0750
 8117TIP3    H145766   6.730   4.354  15.060  0.8617  0.9137 -0.9566
 8117TIP3    H245767   6.737   4.236  14.966  0.2765 -0.0916  0.2469
 8118TIP3   OH245768   0.597   3.881  15.550  0.0897 -0.6434  0.2297
 8118TIP3    H145769   0.627   3.857  15.638 -0.9211 -0.5066  0.6189
 8118TIP3    H245770   0.530   3.815  15.529 -0.9821  0.3927  0.3190
 8119TIP3   OH245771   0.757   6.234   3.030 -0.0951 -0.4468  0.7496
 8119TIP3    H145772   0.766   6.239   2.935 -0.4213 -0.8627  0.6951
 8119TIP3    H245773   0.846   6.223   3.062  0.3708  2.7529  0.7071
 8120TIP3   OH245774   5.976   3.683  14.772  0.5240 -0.0577  0.7078
 8120TIP3    H145775   6.067   3.667  14.747  1.8336 -0.2527  5.0676
 8120TIP3    H245776   5.941   3.596  14.793 -0.9143 -0.0546 -1.5171
 8121TIP3   OH245777   5.734   1.643  14.477 -0.1629 -0.0330 -0.0740
 8121TIP3    H145778   5.753   1.652  14.570  0.6632  1.5129 -0.3687
 8121TIP3    H245779   5.639   1.630  14.473 -0.0602 -1.2489  1.0384
 8122TIP3   OH245780   7.010   7.070   0.595  0.4039 -0.5462 -0.3391
 8122TIP3    H145781   6.966   7.152   0.574  0.2790 -1.0276 -2.0243
 8122TIP3    H245782   7.059   7.048   0.516  0.4232 -2.0992  0.0904
 8123TIP3   OH245783   3.915   5.649  15.670 -0.1784  0.4891 -0.2289
 8123TIP3    H145784   3.955   5.578  15.721 -0.2196  2.2503  2.3918
 8123TIP3    H245785   3.837   5.610  15.632 -0.5161 -0.7546  1.6568
 8124TIP3   OH245786   2.822   5.762  15.671  0.2330 -0.1001  0.2636
 8124TIP3    H145787   2.854   5.824  15.605  0.5154  0.9647  1.3887
 8124TIP3    H245788   2.754   5.810  15.717 -1.7313 -1.7200 -0.8856
 8125TIP3   OH245789   1.010   2.719  15.052  0.4424  0.2337  0.0469
 8125TIP3    H145790   0.992   2.730  14.958  0.8852 -0.1223 -0.0776
 8125TIP3    H245791   1.078   2.653  15.056  0.8584  0.6904  0.5922
 8126TIP3   OH245792   0.466   2.583  12.903  0.0492  0.0561 -0.2303
 8126TIP3    H145793   0.455   2.673  12.934  2.3020 -0.0382  0.9505
 8126TIP3    H245794   0.436   2.585  12.812 -1.5381  1.5812  0.2939
 8127TIP3   OH245795   2.397   4.398  14.517 -0.2394 -0.2437  0.1985
 8127TIP3    H145796   2.441   4.476  14.552 -0.2773  0.4000 -1.1570
 8127TIP3    H245797   2.316   4.391  14.566 -0.1734  0.5000  0.4094
 8128TIP3   OH245798   0.913   3.067   0.214  0.3909  0.2278  0.1616
 8128TIP3    H145799   0.829   3.061   0.258  0.0896  0.3148 -0.3932
 8128TIP3    H245800   0.959   2.987   0.239 -0.4302 -0.5293 -0.6863
 8129TIP3   OH245801   2.168   4.778  12.503  0.4582 -0.4255 -0.2115
 8129TIP3    H145802   2.137   4.811  12.587  2.5790 -1.3470  0.9978
 8129TIP3    H245803   2.146   4.846  12.440 -1.3383  0.1996  1.0540
 8130TIP3   OH245804   5.568   0.529  14.606 -0.0135  0.3451  0.1200
 8130TIP3    H145805   5.615   0.526  14.523  0.5202 -0.9169  0.4588
 8130TIP3    H245806   5.528   0.442  14.614  1.8360 -0.3388  2.2692
 8131TIP3   OH245807   5.033   5.126   0.787 -0.3080  0.0206  0.2223
 8131TIP3    H145808   5.077   5.075   0.855 -0.1196 -0.3189 -0.1541
 8131TIP3    H245809   4.998   5.061   0.727 -1.2349  0.2949  0.4605
 8132TIP3   OH245810   0.309   1.892  15.839  0.1440  0.2737  0.0394
 8132TIP3    H145811   0.345   1.808  15.866  0.1853 -0.0989 -1.1650
 8132TIP3    H245812   0.269   1.875  15.754  0.8853  1.6552 -0.6030
 8133TIP3   OH245813   1.082   2.361   0.922  0.5852 -0.5003  0.0041
 8133TIP3    H145814   1.072   2.382   1.015 -1.3320 -1.1057 -0.0302
 8133TIP3    H245815   1.008   2.405   0.880  1.7023  0.1458 -1.3048
 8134TIP3   OH245816   2.570   5.985   1.271  0.0161 -0.5905 -0.2249
 8134TIP3    H145817   2.554   5.993   1.365 -0.9143  0.3864 -0.4562
 8134TIP3    H245818   2.528   5.902   1.246  0.1129 -0.7627  0.1858
 8135TIP3   OH245819   3.899   3.431  13.903 -0.1481 -0.2709 -0.4329
 8135TIP3    H145820   3.883   3.525  13.893  0.2011 -0.3300 -1.7181
 8135TIP3    H245821   3.978   3.426  13.957 -2.1366  0.0940  2.6019
 8136TIP3   OH245822   1.671   2.483  12.759 -0.5095 -0.2379 -0.0452
 8136TIP3    H145823   1.629   2.569  12.766 -1.1353 -0.5090 -0.4216
 8136TIP3    H245824   1.605   2.427  12.719 -0.0647 -0.8717  0.0936
 8137TIP3   OH245825   2.225   6.331  12.764 -0.1745  0.2758  0.2822
 8137TIP3    H145826   2.167   6.358  12.836 -0.5033 -0.1459  0.1739
 8137TIP3    H245827   2.209   6.396  12.696  0.0581  0.6143  0.5457
 8138TIP3   OH245828   1.587   4.874   1.736 -0.0772  0.4803  0.2741
 8138TIP3    H145829   1.533   4.950   1.715 -0.2968  0.3741  0.4458
 8138TIP3    H245830   1.542   4.800   1.695  0.6153  0.5692 -0.6473
 8139TIP3   OH245831   0.765   2.470  14.850 -0.2372 -0.5377 -0.1679
 8139TIP3    H145832   0.771   2.563  14.829  1.9197 -0.9734 -1.5485
 8139TIP3    H245833   0.736   2.468  14.942 -1.0502  1.4587 -0.3644
 8140TIP3   OH245834   6.364   4.255  10.420  0.1678 -0.8938 -0.5857
 8140TIP3    H145835   6.329   4.218  10.338 -0.4760  0.4434 -0.9278
 8140TIP3    H245836   6.337   4.192  10.487 -1.0376 -1.0007 -1.1422
 8141TIP3   OH245837   1.316   5.414  11.025  0.0141 -0.5376  0.2990
 8141TIP3    H145838   1.246   5.442  10.967  0.2125  0.0433  0.3435
 8141TIP3    H245839   1.385   5.383  10.966  0.2949  0.2382  0.2225
 8142TIP3   OH245840   2.925   4.845   0.057 -0.3026  0.0173  0.3362
 8142TIP3    H145841   2.994   4.786   0.089  0.0812 -0.6716 -1.6631
 8142TIP3    H245842   2.868   4.788   0.005 -1.0540  1.0445  0.0319
 8143TIP3   OH245843   4.198   3.482  14.103 -0.1764 -0.0294 -0.0820
 8143TIP3    H145844   4.162   3.569  14.124  1.3105  0.4620  0.5011
 8143TIP3    H245845   4.273   3.473  14.162 -1.3600 -2.4737  1.1357
 8144TIP3   OH245846   1.005   4.965  15.837 -0.2827 -0.2316  0.7474
 8144TIP3    H145847   1.038   4.899  15.898 -1.2569 -0.5459  0.9562
 8144TIP3    H245848   1.045   4.943  15.753  0.5941 -0.1630  1.1412
 8145TIP3   OH245849   3.506   5.813  14.904  0.6128 -0.0025 -0.2440
 8145TIP3    H145850   3.458   5.789  14.983 -0.7296 -0.4362 -1.1703
 8145TIP3    H245851   3.464   5.763  14.834  3.7544 -2.0318 -0.7982
 8146TIP3   OH245852   1.737   6.026  11.930  0.1529  0.7073  0.5325
 8146TIP3    H145853   1.807   6.037  11.866  0.0754 -0.6520  0.2020
 8146TIP3    H245854   1.777   5.977  12.001 -0.5020 -0.2269  0.2642
 8147TIP3   OH245855   6.093   0.006  14.000 -0.1868  0.1852  0.2671
 8147TIP3    H145856   6.067   0.092  13.965  0.3349  0.4263  0.4534
 8147TIP3    H245857   6.019  -0.051  13.981 -0.8665  0.8574  0.8376
 8148TIP3   OH245858   0.365   6.474  14.219 -0.1806 -0.1989 -0.3125
 8148TIP3    H145859   0.342   6.567  14.227  0.1133 -0.0150 -1.5157
 8148TIP3    H245860   0.289   6.434  14.177 -0.9824 -0.8254  1.6668
 8149TIP3   OH245861   0.637   6.512  13.601 -0.4210  0.7526 -0.0315
 8149TIP3    H145862   0.582   6.582  13.565  0.4657  2.4764  1.8684
 8149TIP3    H245863   0.642   6.532  13.694  2.4232 -0.0861  0.0193
 8150TIP3   OH245864   0.866   5.588  14.055  0.0304 -0.4398 -0.4315
 8150TIP3    H145865   0.790   5.643  14.071  0.2311 -0.4774  0.7463
 8150TIP3    H245866   0.830   5.507  14.020 -0.4263 -0.2500 -0.4056
 8151TIP3   OH245867   1.373   3.006  12.850  0.5964 -0.2934  0.5238
 8151TIP3    H145868   1.381   3.099  12.874 -0.1923 -0.1445  0.2324
 8151TIP3    H245869   1.326   2.967  12.924  0.7971 -0.4306  0.5773
 8152TIP3   OH245870   1.773   0.969  13.457  0.0817  0.0916 -0.2644
 8152TIP3    H145871   1.863   0.995  13.476 -0.1311  0.2883  0.4843
 8152TIP3    H245872   1.730   1.049  13.427 -0.4465  0.5260  1.5850
 8153TIP3   OH245873   3.126   2.735  15.722  0.1721 -0.3108 -0.0231
 8153TIP3    H145874   3.198   2.713  15.780 -0.5700 -3.1011 -0.0837
 8153TIP3    H245875   3.140   2.679  15.645 -0.9227  0.6224 -0.9173
 8154TIP3   OH245876   3.165   6.645  11.235 -0.0064 -0.0013 -0.0976
 8154TIP3    H145877   3.088   6.590  11.226 -0.9358  1.1497  0.6547
 8154TIP3    H245878   3.230   6.589  11.278 -0.2787 -1.0955 -1.1071
 8155TIP3   OH245879   2.133   1.369  13.113  0.0345  0.3062  0.0496
 8155TIP3    H145880   2.216   1.327  13.092  0.1150  0.7704 -0.5830
 8155TIP3    H245881   2.094   1.314  13.180  1.0960  0.3783  0.7242
 8156TIP3   OH245882   3.734   5.007  15.295  0.3825  0.0208 -0.4308
 8156TIP3    H145883   3.793   5.032  15.365  1.7961 -1.2283 -1.1693
 8156TIP3    H245884   3.648   5.037  15.325  0.5985 -2.3250  2.7629
 8157TIP3   OH245885   1.968   4.454  14.226 -0.2825  0.0926  0.3744
 8157TIP3    H145886   2.029   4.409  14.167 -0.1852  0.3484  0.2783
 8157TIP3    H245887   1.921   4.384  14.270  0.5990 -0.1248  0.9866
 8158TIP3   OH245888   1.536   6.805   1.770 -0.3362  0.0753  0.1419
 8158TIP3    H145889   1.589   6.727   1.790 -0.3607  0.2121  0.7504
 8158TIP3    H245890   1.563   6.830   1.682 -0.9890 -1.1737 -0.4219
 8159TIP3   OH245891   1.671   6.188  13.184 -0.2587  0.2467  0.0928
 8159TIP3    H145892   1.619   6.266  13.203 -2.8397 -1.4605  0.2709
 8159TIP3    H245893   1.677   6.186  13.088 -1.5129 -0.1642  0.0180
 8160TIP3   OH245894   2.137   4.224  13.771 -0.0592 -0.2031  0.3730
 8160TIP3    H145895   2.149   4.150  13.711  0.3512  0.1324  0.0282
 8160TIP3    H245896   2.215   4.223  13.825  0.3249  0.4501 -0.1598
 8161TIP3   OH245897   0.803   5.342  15.229 -0.2574  0.1309 -0.5605
 8161TIP3    H145898   0.828   5.433  15.247  0.8951 -0.2547 -0.1197
 8161TIP3    H245899   0.713   5.335  15.259 -0.3500  1.1285 -0.5843
 8162TIP3   OH245900   6.402   5.761   1.498  0.0740 -0.8682 -0.7283
 8162TIP3    H145901   6.448   5.762   1.583 -1.6474 -0.4270  0.2142
 8162TIP3    H245902   6.463   5.802   1.437  1.3649 -1.2465  0.2849
 8163TIP3   OH245903   6.794   5.054  15.368  0.0828 -0.7749  0.0865
 8163TIP3    H145904   6.852   5.093  15.303  0.5461 -1.7959 -0.1218
 8163TIP3    H245905   6.708   5.093  15.351  1.2573  3.1207  2.3552
 8164TIP3   OH245906   3.981   3.985   0.639  0.0624  0.0656 -0.0788
 8164TIP3    H145907   4.051   3.969   0.576 -0.6554 -1.4706 -0.5084
 8164TIP3    H245908   3.947   3.898   0.660 -2.6478  0.8816 -0.9214
 8165TIP3   OH245909   0.252   4.983  15.921 -0.5165  0.0324  0.4690
 8165TIP3    H145910   0.214   5.063  15.957 -2.1239  0.7464 -2.7085
 8165TIP3    H245911   0.235   4.988  15.827  0.5900 -3.3834  0.0256
 8166TIP3   OH245912   0.416   2.376   0.350 -0.6926  0.2343 -0.2207
 8166TIP3    H145913   0.482   2.347   0.286 -0.2617 -0.0201  0.3314
 8166TIP3    H245914   0.432   2.321   0.427 -2.0542 -0.3606 -0.3487
 8167TIP3   OH245915   4.618   2.212  13.636  0.1864  0.1980  0.3366
 8167TIP3    H145916   4.654   2.300  13.635  2.4686 -0.6865 -0.0052
 8167TIP3    H245917   4.571   2.204  13.553  1.7309  0.4316 -0.5816
 8168TIP3   OH245918   4.226   0.999  14.754 -0.0131 -0.6888 -0.6818
 8168TIP3    H145919   4.319   1.002  14.776 -0.3651  2.6995  0.6040
 8168TIP3    H245920   4.223   1.022  14.661  0.3562  0.3829 -0.4353
 8169TIP3   OH245921   1.336   6.990  12.756  0.5462 -0.0515 -0.2657
 8169TIP3    H145922   1.364   6.902  12.781  1.2059  0.6438  1.5187
 8169TIP3    H245923   1.280   6.977  12.679 -0.3488 -2.1352  0.7019
 8170TIP3   OH245924   2.747   4.021  12.981  0.2636 -0.1054  0.2569
 8170TIP3    H145925   2.798   4.087  13.028 -0.3016  0.2563  0.3805
 8170TIP3    H245926   2.750   3.943  13.037  2.2593 -0.6995 -0.6542
 8171TIP3   OH245927   0.777   1.297  15.712 -1.5275  0.0502  0.5226
 8171TIP3    H145928   0.867   1.281  15.742 -1.8376 -0.7368  1.0327
 8171TIP3    H245929   0.768   1.392  15.716 -0.9709  0.0790  1.2284
 8172TIP3   OH245930   6.022   2.185  12.819  0.5670  0.3255  0.3632
 8172TIP3    H145931   6.077   2.188  12.741 -3.2956 -0.0131 -2.5439
 8172TIP3    H245932   6.007   2.276  12.842  2.5773  0.4148  1.4041
 8173TIP3   OH245933   2.074   4.660  13.732  0.1388  0.5042  0.0772
 8173TIP3    H145934   1.985   4.624  13.734  0.3541 -0.3236 -2.5681
 8173TIP3    H245935   2.100   4.665  13.824 -1.4799 -2.2060  0.7558
 8174TIP3   OH245936   3.566   4.598   1.484 -0.2158 -0.2330  0.1106
 8174TIP3    H145937   3.523   4.531   1.431  1.3453 -2.2260  1.3016
 8174TIP3    H245938   3.574   4.673   1.425 -0.3590 -1.6918 -1.8254
 8175TIP3   OH245939   1.014   4.473   0.715  0.7061  0.4635 -0.1888
 8175TIP3    H145940   1.045   4.553   0.672 -0.4293  0.7937 -0.4189
 8175TIP3    H245941   0.920   4.470   0.695 -0.1831  1.4492  3.5758
 8176TIP3   OH245942   6.974   6.789  15.877 -0.5614  0.4017  0.0188
 8176TIP3    H145943   6.986   6.710  15.824 -0.9043 -0.5689  1.3521
 8176TIP3    H245944   7.062   6.814  15.904 -0.3473  1.1512 -1.3603
 8177TIP3   OH245945   5.997   6.719   0.492  0.0209 -0.0753 -0.0024
 8177TIP3    H145946   5.917   6.764   0.519  0.6928  2.7787 -2.5123
 8177TIP3    H245947   6.059   6.736   0.564 -0.5746  0.6789  0.3466
 8178TIP3   OH245948   3.286   3.343  12.950 -0.1093  0.1887 -0.1053
 8178TIP3    H145949   3.368   3.302  12.976 -0.9404 -0.1486  2.1516
 8178TIP3    H245950   3.298   3.436  12.966 -0.1294  0.1523  0.1184
 8179TIP3   OH245951   1.512   2.411   0.302  0.6576  0.2971 -0.8658
 8179TIP3    H145952   1.520   2.395   0.208  0.4028  0.8746 -0.9878
 8179TIP3    H245953   1.432   2.463   0.311  1.3182  1.2464 -0.4456
 8180TIP3   OH245954   5.808   5.388  14.613 -0.0353 -0.8046  0.4665
 8180TIP3    H145955   5.898   5.414  14.630  0.7986 -1.1170 -3.1915
 8180TIP3    H245956   5.763   5.469  14.588  0.1487 -1.2019 -1.2264
 8181TIP3   OH245957   2.755   3.413   0.522 -0.2948 -0.1894 -0.1064
 8181TIP3    H145958   2.711   3.407   0.607 -1.2773 -0.9775 -0.6576
 8181TIP3    H245959   2.684   3.412   0.458  0.3791  1.4283 -0.9136
 8182TIP3   OH245960   0.721   6.227   1.071  0.0628 -0.1572 -0.2071
 8182TIP3    H145961   0.728   6.311   1.026  0.8814 -1.0443 -1.7937
 8182TIP3    H245962   0.631   6.225   1.104 -0.5171  0.6000 -1.6829
 8183TIP3   OH245963   1.328   0.569  11.658  0.2447  0.5820 -0.7678
 8183TIP3    H145964   1.265   0.610  11.717 -0.6560 -2.4656  0.4423
 8183TIP3    H245965   1.399   0.540  11.714 -0.5878 -2.2828 -1.1116
 8184TIP3   OH245966   0.419   5.106  15.105  0.1977  0.0638  0.2093
 8184TIP3    H145967   0.513   5.094  15.110  0.1652  0.1866  1.1649
 8184TIP3    H245968   0.391   5.050  15.032  1.0409  0.2432 -0.2490
 8185TIP3   OH245969   3.116   4.227  12.155 -0.4478  0.4889 -0.2409
 8185TIP3    H145970   3.140   4.134  12.150 -0.6692  0.3789  0.6145
 8185TIP3    H245971   3.085   4.249  12.067 -2.3196 -0.7842  0.0647
 8186TIP3   OH245972   2.014   3.859   0.770  0.1020 -0.2275 -0.0306
 8186TIP3    H145973   2.008   3.765   0.788 -0.0918 -0.4843 -1.4023
 8186TIP3    H245974   1.946   3.876   0.705  0.9533  0.6259 -0.7213
 8187TIP3   OH245975   0.506   6.302   0.864 -0.0543 -0.0179  0.2720
 8187TIP3    H145976   0.430   6.273   0.813 -0.1226  0.4356  0.1139
 8187TIP3    H245977   0.581   6.260   0.821 -0.0907  0.5219 -0.3212
 8188TIP3   OH245978   2.151   5.175  14.587 -0.4990  0.2555 -0.0335
 8188TIP3    H145979   2.225   5.150  14.642  0.3601  1.5357 -0.5896
 8188TIP3    H245980   2.076   5.175  14.647  0.0088 -0.6122  0.6228
 8189TIP3   OH245981   0.242   6.824  15.692 -0.0906 -0.6743 -0.3542
 8189TIP3    H145982   0.219   6.810  15.783 -0.2918  0.4633 -0.2206
 8189TIP3    H245983   0.254   6.736  15.656  0.0529 -1.1240  0.7751
 8190TIP3   OH245984   4.705   5.478  14.103 -0.4109 -0.3869  0.7257
 8190TIP3    H145985   4.695   5.551  14.164 -0.1156  0.8367 -0.6716
 8190TIP3    H245986   4.620   5.471  14.059 -0.0189 -0.0038 -0.1025
 8191TIP3   OH245987   6.085   5.845  15.697 -0.0807  0.1735 -0.0492
 8191TIP3    H145988   6.002   5.894  15.697  0.1539  0.5679  0.4623
 8191TIP3    H245989   6.151   5.910  15.717  0.3591 -0.1484 -0.4453
 8192TIP3   OH245990   0.752   2.264  15.329  0.0102 -0.2055 -0.0738
 8192TIP3    H145991   0.685   2.299  15.271  0.0296 -1.0953 -0.6487
 8192TIP3    H245992   0.831   2.314  15.309 -0.1622 -0.0280 -0.3023
 8193TIP3   OH245993   5.263   6.149   1.873  0.0298 -0.5372 -0.0259
 8193TIP3    H145994   5.263   6.135   1.968  0.7603  1.0675  0.2295
 8193TIP3    H245995   5.226   6.237   1.863  0.1948 -0.6060 -1.2211
 8194TIP3   OH245996   4.006   3.041  15.764  0.0064 -0.2498 -0.1627
 8194TIP3    H145997   3.960   3.025  15.846  0.7412 -0.9231  0.1127
 8194TIP3    H245998   4.087   3.084  15.790  0.3053 -0.5953 -0.5353
 8195TIP3   OH245999   2.756   2.970   0.820  0.0054  0.4669 -0.3857
 8195TIP3    H146000   2.831   2.913   0.804 -0.5043 -0.7296  1.3463
 8195TIP3    H246001   2.682   2.926   0.779 -0.3751 -0.0850  0.8828
 8196TIP3   OH246002   4.014   5.639   3.341  0.2227  0.1427 -0.0727
 8196TIP3    H146003   3.969   5.570   3.292  0.0294 -0.7480  1.3322
 8196TIP3    H246004   4.094   5.655   3.292  0.3316 -1.1783 -0.3440
 8197TIP3   OH246005   5.688   4.283   0.708 -0.0737  0.5542  0.0246
 8197TIP3    H146006   5.599   4.250   0.719  0.0369  0.8349  1.9548
 8197TIP3    H246007   5.737   4.209   0.674 -1.1787  0.5856 -1.6693
 8198TIP3   OH246008   1.133   4.691   3.993 -0.3327 -0.4159 -0.0708
 8198TIP3    H146009   1.113   4.601   4.019  2.9377 -2.2450 -3.3807
 8198TIP3    H246010   1.205   4.717   4.050 -0.2384 -0.4688 -0.1662
 8199TIP3   OH246011   1.442   7.286  15.700  0.1311 -0.1909  0.4148
 8199TIP3    H146012   1.405   7.249  15.620  1.4961  1.7630 -1.1613
 8199TIP3    H246013   1.524   7.239  15.713  0.4726  0.3006  0.0243
 8200TIP3   OH246014   5.488   4.688  13.402 -0.2522  0.3137  0.1082
 8200TIP3    H146015   5.395   4.681  13.380 -0.4399  0.3806  0.8943
 8200TIP3    H246016   5.501   4.625  13.472  1.0239 -2.1604 -2.2456
 8201TIP3   OH246017   0.780   6.864  10.720 -0.5962 -0.1606  0.1512
 8201TIP3    H146018   0.763   6.845  10.627  0.1528 -2.0050  0.3767
 8201TIP3    H246019   0.844   6.935  10.718 -1.4523  0.6105 -0.7355
 8202TIP3   OH246020   7.088   5.533  15.906  0.1500 -0.1731 -0.2598
 8202TIP3    H146021   7.066   5.553  15.815  0.6052 -0.1346 -0.3583
 8202TIP3    H246022   7.020   5.471  15.933 -0.9963  1.1066 -0.0920
 8203TIP3   OH246023   0.979   1.380   0.093 -0.4038 -0.5592 -0.1339
 8203TIP3    H146024   1.058   1.388   0.146 -0.0183 -1.3804 -0.5754
 8203TIP3    H246025   0.929   1.459   0.114  0.5342 -0.0166  0.1336
 8204TIP3   OH246026   2.658   0.277  15.318  0.2397 -0.1421  0.0466
 8204TIP3    H146027   2.650   0.182  15.304  0.6996 -0.5122  2.1053
 8204TIP3    H246028   2.588   0.299  15.379  0.8426  0.6194  0.4828
 8205TIP3   OH246029   2.070   2.490  11.799  0.3655  0.0261  0.5390
 8205TIP3    H146030   2.039   2.400  11.812  0.5589 -0.0473  0.5049
 8205TIP3    H246031   2.165   2.483  11.807  0.7869 -0.5543 -3.9694
 8206TIP3   OH246032   4.380   7.161   2.606  0.8519  0.2627  0.3919
 8206TIP3    H146033   4.469   7.159   2.641  0.4265  2.4117  1.6542
 8206TIP3    H246034   4.388   7.205   2.521  1.1109 -0.3157  0.1144
 8207TIP3   OH246035   4.362   0.474   2.357 -0.0364 -0.0906 -0.5875
 8207TIP3    H146036   4.269   0.485   2.379  0.1205 -0.1807  0.1161
 8207TIP3    H246037   4.361   0.432   2.271 -0.6496  1.1352 -1.2060
 8208TIP3   OH246038   2.190   4.673  10.941  0.0150 -0.6007 -0.6514
 8208TIP3    H146039   2.172   4.626  10.860  0.4726 -0.8099 -0.6309
 8208TIP3    H246040   2.114   4.731  10.953 -1.0159 -2.0224 -0.1810
 8209TIP3   OH246041   2.219   7.096  13.748 -0.0261 -0.0133  0.1334
 8209TIP3    H146042   2.217   7.192  13.742  1.4528 -0.0206 -0.7167
 8209TIP3    H246043   2.293   7.070  13.692 -0.8661 -1.6997 -0.2096
 8210TIP3   OH246044   2.805   5.285  12.936 -0.3930  0.3163  0.8819
 8210TIP3    H146045   2.896   5.264  12.959 -0.8576 -1.8097  0.8534
 8210TIP3    H246046   2.808   5.299  12.841  0.4704  3.4804  1.3112
 8211TIP3   OH246047   1.206   5.224  15.574 -0.1461  0.3990 -0.0910
 8211TIP3    H146048   1.136   5.272  15.530  1.3923  0.8239 -2.1464
 8211TIP3    H246049   1.219   5.146  15.519 -0.4875 -0.7856  1.4825
 8212TIP3   OH246050   0.093   4.566  13.312 -0.3923  0.0771  0.3477
 8212TIP3    H146051   0.122   4.546  13.223 -2.1944  0.1058 -0.2647
 8212TIP3    H246052   0.046   4.649  13.304 -0.8979 -0.1143  1.2637
 8213TIP3   OH246053   3.381   5.752  15.816  0.0616 -0.2299  0.0228
 8213TIP3    H146054   3.364   5.696  15.892  0.0048  0.0996  0.2531
 8213TIP3    H246055   3.476   5.768  15.820  0.2887 -1.3242 -0.7489
 8214TIP3   OH246056   2.958   3.091  15.432  0.1760 -0.7544  0.2933
 8214TIP3    H146057   2.895   3.157  15.405  0.7611 -0.5666 -0.6666
 8214TIP3    H246058   2.941   3.077  15.525  0.6134  1.3530  0.7040
 8215TIP3   OH246059   3.608   6.330  14.183  0.1960  0.7956  0.6128
 8215TIP3    H146060   3.611   6.404  14.243  2.2354 -0.2760  1.8840
 8215TIP3    H246061   3.571   6.258  14.235 -2.0795  0.9536 -0.7009
 8216TIP3   OH246062   1.075   3.936  14.199  0.0607  0.2354 -0.7831
 8216TIP3    H146063   1.076   3.840  14.189 -0.4608  0.4208 -2.9717
 8216TIP3    H246064   1.039   3.951  14.286  1.5858 -1.5960  0.1957
 8217TIP3   OH246065   0.898   6.736  13.337  0.1189  0.3463  0.2591
 8217TIP3    H146066   0.930   6.648  13.320  0.7159  0.6335 -0.1409
 8217TIP3    H246067   0.860   6.765  13.254 -1.8752 -0.2681  0.9362
 8218TIP3   OH246068   1.143   2.243  14.510 -0.0056 -0.3547 -0.5524
 8218TIP3    H146069   1.065   2.292  14.536  0.0522 -0.4994 -0.1082
 8218TIP3    H246070   1.211   2.271  14.572 -0.1465 -1.4887  0.1131
 8219TIP3   OH246071   4.364   3.322  15.368 -0.5628 -0.1257  0.0338
 8219TIP3    H146072   4.405   3.403  15.340 -0.9202 -0.0769 -0.3617
 8219TIP3    H246073   4.433   3.274  15.413  0.1785 -0.4496 -1.4229
 8220TIP3   OH246074   2.050   6.618  14.035 -0.4671 -0.1912  0.6200
 8220TIP3    H146075   2.081   6.698  14.077  0.1336 -0.2560  0.3098
 8220TIP3    H246076   2.029   6.643  13.946  0.8408 -0.6048  0.1726
 8221TIP3   OH246077   3.803   4.534   0.440 -0.2173 -0.5254  0.5398
 8221TIP3    H146078   3.873   4.577   0.489 -0.0317 -0.1325 -0.0624
 8221TIP3    H246079   3.731   4.529   0.502  0.3674 -0.9958  1.1886
 8222TIP3   OH246080   0.558   1.873  13.763 -0.0381 -0.2675  0.1240
 8222TIP3    H146081   0.559   1.830  13.849  0.9010  0.5389  0.5264
 8222TIP3    H246082   0.481   1.931  13.766 -0.3778 -0.7234  0.1815
 8223TIP3   OH246083   5.934   6.934  14.846  0.2597 -0.0273  0.2883
 8223TIP3    H146084   5.938   6.976  14.931 -0.2718 -0.1511  0.3761
 8223TIP3    H246085   5.846   6.895  14.842  0.3528 -0.1954 -0.2289
 8224TIP3   OH246086   2.449   4.380  12.599 -0.2308  0.7967  0.5097
 8224TIP3    H146087   2.447   4.433  12.518 -1.6945  0.8214  0.5606
 8224TIP3    H246088   2.378   4.415  12.652 -2.0976 -2.0924  0.0027
 8225TIP3   OH246089   5.535   3.978   0.009  0.1667  0.2911  0.3362
 8225TIP3    H146090   5.606   3.917   0.028 -0.6849 -0.3194  1.6138
 8225TIP3    H246091   5.578   4.052  -0.034  1.1727 -1.2524 -1.3685
 8226TIP3   OH246092   6.922   4.153  10.032 -0.1330  0.7570  0.5697
 8226TIP3    H146093   6.888   4.087  10.092 -0.6490  0.6886  0.2015
 8226TIP3    H246094   7.018   4.147  10.042 -0.1690 -0.2048  0.3680
 8227TIP3   OH246095   1.365   5.243   0.423  0.3844 -0.0394  0.1570
 8227TIP3    H146096   1.303   5.230   0.351 -2.2707  1.2197  2.1696
 8227TIP3    H246097   1.435   5.296   0.384  1.6933 -3.7334 -2.8757
 8228TIP3   OH246098   0.071   1.138  12.941 -0.2380 -0.2493 -0.2728
 8228TIP3    H146099   0.119   1.204  12.991 -0.2780 -1.0772  0.8837
 8228TIP3    H246100  -0.012   1.127  12.988 -0.3147 -0.9779 -0.5646
 8229TIP3   OH246101   1.232   3.025  15.946  0.0531 -0.9387 -0.6833
 8229TIP3    H146102   1.143   3.027  15.910 -1.7471  1.4115  3.5084
 8229TIP3    H246103   1.225   2.970  16.025  2.4320 -1.1182 -0.5636
 8230TIP3   OH246104   6.975   4.198   1.975 -0.0535  0.2322 -0.2362
 8230TIP3    H146105   6.933   4.282   1.955  1.8198  0.5650 -2.9705
 8230TIP3    H246106   7.041   4.220   2.042  0.5323  0.9794 -1.0521
 8231TIP3   OH246107   3.939   4.419  12.720 -0.3951 -0.2071 -0.0824
 8231TIP3    H146108   3.893   4.503  12.709 -1.9580 -0.7009  2.3303
 8231TIP3    H246109   3.912   4.388  12.806  1.9098 -2.1568 -0.0056
 8232TIP3   OH246110   5.242   1.365  13.769  0.0842 -0.4013 -0.0817
 8232TIP3    H146111   5.327   1.408  13.780 -0.0653 -0.1170 -0.0268
 8232TIP3    H246112   5.182   1.436  13.744 -0.8205 -0.0443  2.9012
 8233TIP3   OH246113   7.297   6.809   2.092 -0.1756 -0.3279  0.5247
 8233TIP3    H146114   7.374   6.755   2.111 -0.3590 -0.1342  1.8685
 8233TIP3    H246115   7.322   6.860   2.014  1.2040  0.0113  1.1655
 8234TIP3   OH246116   0.083   4.947   1.902 -0.2248  0.0554 -0.2327
 8234TIP3    H146117   0.072   4.874   1.964  0.1967  0.4153  0.2760
 8234TIP3    H246118   0.158   4.996   1.937 -0.6771  0.8874 -0.4138
 8235TIP3   OH246119   4.771   6.471  14.745 -0.3715  0.1123  0.3449
 8235TIP3    H146120   4.724   6.392  14.718 -0.2673  0.0618  0.3131
 8235TIP3    H246121   4.741   6.488  14.834 -0.6955  0.2639  0.2070
 8236TIP3   OH246122   1.950   5.826  15.408  0.4080 -0.3198 -0.1790
 8236TIP3    H146123   1.936   5.765  15.336  0.3883 -1.4977  0.8021
 8236TIP3    H246124   1.865   5.831  15.452  0.3696  0.5351 -0.3421
 8237TIP3   OH246125   3.964   2.336  14.876 -0.4168 -0.0935 -0.0021
 8237TIP3    H146126   3.961   2.426  14.845  0.2558  0.2443  0.9258
 8237TIP3    H246127   3.889   2.328  14.935 -1.3946 -0.5946 -1.2740
 8238TIP3   OH246128   0.106   4.352  13.517 -0.2609 -0.7636 -0.0921
 8238TIP3    H146129   0.109   4.432  13.465  0.9883 -1.0824 -0.5316
 8238TIP3    H246130   0.197   4.340  13.546 -0.3634 -2.2362 -0.3613
 8239TIP3   OH246131   2.676   0.355  14.423 -0.1325  0.1269 -0.1250
 8239TIP3    H146132   2.695   0.361  14.330 -0.0309 -0.7714 -0.1636
 8239TIP3    H246133   2.740   0.293  14.457  0.2609  0.9628  0.6659
 8240TIP3   OH246134   1.048   4.481   0.140  0.4212  0.2332 -0.4359
 8240TIP3    H146135   1.062   4.393   0.174 -2.5059 -0.0873  0.1060
 8240TIP3    H246136   1.004   4.468   0.057 -2.8759  1.1659  1.0864
 8241TIP3   OH246137   0.021   5.963  14.055  0.6240 -0.2020 -0.4700
 8241TIP3    H146138  -0.053   5.916  14.093  0.7314 -1.2794 -1.5639
 8241TIP3    H246139   0.090   5.957  14.122  0.8522 -2.1709 -0.8404
 8242TIP3   OH246140   0.867   5.806   0.308 -0.4310  0.0580 -0.2967
 8242TIP3    H146141   0.860   5.823   0.215  0.4346  2.4976  0.0466
 8242TIP3    H246142   0.778   5.812   0.341 -0.5888  0.3628 -0.7850
 8243TIP3   OH246143   0.621   3.669  14.835  0.3742  0.6000 -0.2579
 8243TIP3    H146144   0.574   3.679  14.918 -2.2266  0.3288 -1.6561
 8243TIP3    H246145   0.561   3.702  14.769  1.7232 -0.7678 -2.2275
 8244TIP3   OH246146   2.100   3.277  13.120  0.0379 -0.1812 -0.3160
 8244TIP3    H146147   2.181   3.259  13.072  1.3163  0.3530  1.5862
 8244TIP3    H246148   2.118   3.250  13.210 -1.5782  0.8093  0.3334
 8245TIP3   OH246149   3.171   5.806  13.746 -0.7870  0.2693 -0.3291
 8245TIP3    H146150   3.221   5.803  13.664 -0.7551 -0.1922 -0.2955
 8245TIP3    H246151   3.081   5.784  13.720 -0.9626  1.0573 -0.3832
 8246TIP3   OH246152   6.722   4.721  12.901  0.0020  0.3583  0.7944
 8246TIP3    H146153   6.778   4.788  12.863  0.1213  1.1317  2.2843
 8246TIP3    H246154   6.633   4.752  12.886 -0.0432 -0.5864 -1.0609
 8247TIP3   OH246155   6.456   0.604  11.179 -0.6599 -0.0756  0.2334
 8247TIP3    H146156   6.509   0.538  11.223  1.5198  1.1679 -0.4377
 8247TIP3    H246157   6.424   0.560  11.100  0.4083 -0.4535  0.0093
 8248TIP3   OH246158   5.523   3.822  15.014 -0.5698  0.1321 -0.1751
 8248TIP3    H146159   5.534   3.817  14.919 -1.5393  0.4723 -0.3146
 8248TIP3    H246160   5.529   3.916  15.033 -0.4395  0.0690  0.0814
 8249TIP3   OH246161   4.141   2.425   1.297  0.3642 -0.4499  0.5348
 8249TIP3    H146162   4.142   2.333   1.272 -0.7399 -0.1546 -0.6189
 8249TIP3    H246163   4.052   2.455   1.278  1.2469  1.3576 -0.9960
 8250TIP3   OH246164   4.605   4.310  13.468  0.4323  0.1378 -0.7647
 8250TIP3    H146165   4.564   4.234  13.428 -0.5399  0.2394 -0.0018
 8250TIP3    H246166   4.698   4.300  13.450  0.4764 -1.9028  0.4239
 8251TIP3   OH246167   5.796   3.010   0.433  0.8276  0.0055 -0.1519
 8251TIP3    H146168   5.853   2.985   0.360  2.0086 -0.7170  0.9951
 8251TIP3    H246169   5.733   2.937   0.440 -0.1908  0.7453 -1.3390
 8252TIP3   OH246170   0.290   1.826  14.564  0.1988 -0.4156  0.0853
 8252TIP3    H146171   0.274   1.735  14.588 -1.7650  0.1518  1.1038
 8252TIP3    H246172   0.218   1.848  14.505  0.4397  0.5902  0.1528
 8253TIP3   OH246173   0.460   0.948  12.505  0.3835  0.4190 -0.0287
 8253TIP3    H146174   0.548   0.915  12.524 -0.1458 -1.0695 -0.0950
 8253TIP3    H246175   0.423   0.969  12.591  0.2699 -0.3547  0.1133
 8254TIP3   OH246176   5.308   6.480  14.080 -0.4995  0.2831 -0.3693
 8254TIP3    H146177   5.381   6.486  14.018 -0.5162  1.1302 -0.3047
 8254TIP3    H246178   5.345   6.505  14.164  0.1215 -3.2114  0.4678
 8255TIP3   OH246179   1.129   0.582  11.851  0.6019 -0.8624 -0.0733
 8255TIP3    H146180   1.127   0.534  11.934 -1.0951 -2.6695 -1.1096
 8255TIP3    H246181   1.076   0.660  11.867  2.3136  0.0557  1.2495
 8256TIP3   OH246182   0.893   5.268  13.310  0.3100 -0.1561 -0.0234
 8256TIP3    H146183   0.817   5.301  13.263 -0.3040  1.3361  1.9483
 8256TIP3    H246184   0.936   5.346  13.345  0.6764 -1.1907  1.9549
 8257TIP3   OH246185   0.824   2.432   2.325 -0.2667 -0.7480 -0.2790
 8257TIP3    H146186   0.821   2.525   2.303 -1.2680 -0.6216  0.3781
 8257TIP3    H246187   0.846   2.389   2.242  0.3927  0.0816 -0.5446
 8258TIP3   OH246188   3.243   4.830  14.327  0.0714 -0.3508  0.1865
 8258TIP3    H146189   3.227   4.793  14.413 -1.1866 -0.1846  0.0281
 8258TIP3    H246190   3.267   4.921  14.344  1.2504 -0.7078  0.4498
 8259TIP3   OH246191   2.222   7.031  14.712 -0.5486  0.0586  0.0334
 8259TIP3    H146192   2.140   7.023  14.662 -1.3681  0.3655  1.3026
 8259TIP3    H246193   2.254   7.119  14.692 -0.6993  0.0575 -0.2118
 8260TIP3   OH246194   7.298   6.425   0.844 -0.3107 -0.0598 -0.0281
 8260TIP3    H146195   7.306   6.520   0.852 -1.6820  0.0539  0.0698
 8260TIP3    H246196   7.221   6.403   0.895 -1.9595 -0.8118 -2.7434
 8261TIP3   OH246197   4.712   4.515  10.287  0.0273  0.6375 -0.0862
 8261TIP3    H146198   4.706   4.503  10.192  1.1201 -1.6392  0.0897
 8261TIP3    H246199   4.804   4.537  10.302  0.0513  0.1243  0.5272
 8262TIP3   OH246200   2.235   5.231  12.133  0.1977  0.3371 -0.0680
 8262TIP3    H146201   2.267   5.285  12.060  2.8314 -0.4322  0.4762
 8262TIP3    H246202   2.211   5.294  12.200  1.7350  0.9112 -0.0404
 8263TIP3   OH246203   0.737   1.576  15.558  0.7316 -0.2153 -0.1233
 8263TIP3    H146204   0.705   1.574  15.648  1.8473 -0.4444  0.2765
 8263TIP3    H246205   0.771   1.665  15.547 -1.0117  0.3711 -0.9004
 8264TIP3   OH246206   5.089   4.364   0.814  0.2123 -0.5209 -0.1891
 8264TIP3    H146207   5.179   4.349   0.845  0.2923 -0.5628 -0.4435
 8264TIP3    H246208   5.096   4.443   0.760 -0.0439 -0.0755  0.4181
 8265TIP3   OH246209   3.389   4.432  15.355  0.3244  0.6552 -0.0278
 8265TIP3    H146210   3.340   4.365  15.403 -0.8324  2.8255  1.9682
 8265TIP3    H246211   3.478   4.426  15.389 -0.1616  1.2039  1.3965
 8266TIP3   OH246212   2.851   4.028  15.653  0.0053  0.1485 -0.6176
 8266TIP3    H146213   2.923   3.981  15.696  0.3369  0.6980 -0.5698
 8266TIP3    H246214   2.776   4.017  15.713  0.3376  0.4964 -0.1396
 8267TIP3   OH246215   3.385   5.388   1.197 -0.7315 -0.4271 -0.1951
 8267TIP3    H146216   3.413   5.437   1.120 -1.5563 -1.4810 -1.1918
 8267TIP3    H246217   3.347   5.453   1.255  0.4165  0.4653 -0.4308
 8268TIP3   OH246218   2.870   3.510  14.698 -0.3134 -0.5174  0.2494
 8268TIP3    H146219   2.845   3.541  14.611 -0.1900 -1.6939 -0.2192
 8268TIP3    H246220   2.964   3.527  14.703 -0.2828 -0.6350  0.0762
 8269TIP3   OH246221   3.644   0.700  15.674 -0.0344  0.6747 -0.1029
 8269TIP3    H146222   3.686   0.615  15.682 -3.3059 -0.8386  2.0148
 8269TIP3    H246223   3.646   0.737  15.762 -1.5640  1.2860 -0.2991
 8270TIP3   OH246224   0.599   6.835   0.942 -0.1022 -0.2764  0.1095
 8270TIP3    H146225   0.564   6.748   0.923 -0.1108  0.2384 -2.3404
 8270TIP3    H246226   0.523   6.886   0.969 -0.7025 -0.0966 -1.8657
 8271TIP3   OH246227   1.832   4.504  13.383  0.2280  0.2411  0.3031
 8271TIP3    H146228   1.739   4.485  13.371 -0.3715  1.6728  2.4131
 8271TIP3    H246229   1.853   4.469  13.469  1.8996 -0.8893 -0.5439
 8272TIP3   OH246230   4.575   3.789   0.246 -0.3535  0.2029  1.3394
 8272TIP3    H146231   4.641   3.842   0.202 -1.5965 -0.5492 -1.5545
 8272TIP3    H246232   4.624   3.737   0.310  2.1366 -1.4126 -1.7295
 8273TIP3   OH246233   2.455   6.035  10.743  0.2825  0.1766  0.1047
 8273TIP3    H146234   2.542   6.034  10.703  0.3945  0.6227  0.3445
 8273TIP3    H246235   2.464   6.091  10.820 -0.3739  0.7498 -0.2327
 8274TIP3   OH246236   2.848   2.894   1.546 -0.0321 -0.7870  0.3600
 8274TIP3    H146237   2.882   2.937   1.625 -0.2051 -2.0286  1.1291
 8274TIP3    H246238   2.925   2.868   1.497  0.0820 -0.6136  0.4463
 8275TIP3   OH246239   5.049   3.916  14.769 -0.4220  0.3757 -0.6171
 8275TIP3    H146240   5.014   3.896  14.856 -0.7931  1.5271 -0.4925
 8275TIP3    H246241   5.112   3.846  14.751  2.1353  1.9274  1.9730
 8276TIP3   OH246242   3.054   4.304  14.222 -0.2183 -0.2694  0.6414
 8276TIP3    H146243   3.140   4.317  14.182 -0.1546 -1.4720  0.3555
 8276TIP3    H246244   3.073   4.258  14.304 -0.4742  0.8167  1.3166
 8277TIP3   OH246245   2.411   1.265  14.596  0.3933  0.3131  0.3890
 8277TIP3    H146246   2.339   1.251  14.534  0.0727  4.4096 -0.2871
 8277TIP3    H246247   2.482   1.209  14.563 -1.2727 -1.0796 -0.9588
 8278TIP3   OH246248   0.003   3.224  11.412  0.3798  0.5193 -0.0203
 8278TIP3    H146249  -0.009   3.236  11.317  1.3295  0.1944 -0.1935
 8278TIP3    H246250   0.051   3.141  11.418 -3.0338 -1.4717  0.9363
 8279TIP3   OH246251   3.439   5.400  14.591  0.8164 -0.5031 -0.0415
 8279TIP3    H146252   3.502   5.375  14.523  1.2196  0.2613  0.0500
 8279TIP3    H246253   3.464   5.347  14.667  2.2534  0.8369  0.4384
 8280TIP3   OH246254   3.396   2.811  13.679  0.2859  0.1794  0.1874
 8280TIP3    H146255   3.383   2.819  13.774 -1.2260  0.4197 -0.0330
 8280TIP3    H246256   3.414   2.718  13.665 -0.0565  0.0456  0.6360
 8281TIP3   OH246257   0.343   5.021  14.851 -0.1870 -0.1323 -0.4712
 8281TIP3    H146258   0.323   5.114  14.852  1.1028  0.1585  1.6625
 8281TIP3    H246259   0.261   4.978  14.874 -0.4260  0.5568 -0.0358
 8282TIP3   OH246260   6.818   5.587  12.460  0.3092  0.3124  0.4807
 8282TIP3    H146261   6.900   5.579  12.412  1.3811 -0.5961  2.4111
 8282TIP3    H246262   6.831   5.534  12.539 -1.5413  1.4377  1.5775
 8283TIP3   OH246263   0.662   6.854  12.887 -0.0516 -0.1956  0.5792
 8283TIP3    H146264   0.679   6.936  12.840  0.5531 -1.9386 -2.4026
 8283TIP3    H246265   0.568   6.852  12.900 -0.1536  0.6080 -0.0515
 8284TIP3   OH246266   5.020   4.436  14.192 -0.6202 -0.1145  0.7238
 8284TIP3    H146267   4.959   4.433  14.265 -0.9731  1.7529  0.5321
 8284TIP3    H246268   4.971   4.477  14.121  0.6975  0.9764  0.4200
 8285TIP3   OH246269   3.769   6.361  14.608 -0.3317  0.1956  0.3818
 8285TIP3    H146270   3.702   6.389  14.546 -0.3106  1.2299  0.8096
 8285TIP3    H246271   3.751   6.412  14.687  2.4456  2.3449 -0.2982
 8286TIP3   OH246272   4.876   3.321  13.671 -0.2290  0.4443  0.1686
 8286TIP3    H146273   4.850   3.262  13.742  1.0885  2.3958  2.3829
 8286TIP3    H246274   4.923   3.392  13.716 -1.5521  3.0470 -2.3990
 8287TIP3   OH246275   4.731   6.043  14.490  0.0392 -0.4240  0.3005
 8287TIP3    H146276   4.778   5.995  14.421  0.0472  0.6417 -0.4452
 8287TIP3    H246277   4.642   6.008  14.487  0.6160 -2.0292  1.3171
 8288TIP3   OH246278   5.252   6.278  14.864  0.1862  0.4297  0.5298
 8288TIP3    H146279   5.328   6.230  14.895  0.5439  1.7703  1.7844
 8288TIP3    H246280   5.180   6.248  14.920  0.5397  1.7852  1.7472
 8289TIP3   OH246281   2.652   6.051   0.576  1.4192 -0.3482 -0.3514
 8289TIP3    H146282   2.720   6.095   0.627  2.7535 -0.3314 -2.1072
 8289TIP3    H246283   2.616   6.119   0.519  0.5097 -0.5539 -0.0357
 8290TIP3   OH246284   3.630   1.811  13.302  0.3256 -0.5573  0.3601
 8290TIP3    H146285   3.584   1.756  13.237 -0.1550  0.0163  0.2106
 8290TIP3    H246286   3.672   1.879  13.250 -0.3890  0.1357  0.6892
 8291TIP3   OH246287   1.276   5.224  12.819  0.4044 -0.1804 -0.4538
 8291TIP3    H146288   1.359   5.178  12.813  0.8799  0.5059  0.8690
 8291TIP3    H246289   1.258   5.252  12.729  2.4969  1.2348 -0.4575
 8292TIP3   OH246290   2.542   5.051  15.531 -0.0103  0.7989  0.5796
 8292TIP3    H146291   2.522   4.958  15.531  0.5796  0.6550 -1.1707
 8292TIP3    H246292   2.603   5.063  15.458  0.9967  2.3270  1.6245
 8293TIP3   OH246293   4.810   6.359  13.375 -0.1286 -0.3390 -0.0297
 8293TIP3    H146294   4.859   6.307  13.311  0.2295 -0.8910  0.6850
 8293TIP3    H246295   4.851   6.339  13.459  0.3092  1.4655  0.2100
 8294TIP3   OH246296   0.174   2.637  12.405 -0.1682 -0.3551  0.3406
 8294TIP3    H146297   0.084   2.641  12.372  0.1402 -0.0629 -0.4869
 8294TIP3    H246298   0.224   2.600  12.333  0.5791  0.6359  0.3445
 8295TIP3   OH246299   5.112   5.456  13.309  0.2063  0.4305 -0.3590
 8295TIP3    H146300   5.173   5.434  13.239 -2.7246  0.0773 -2.9019
 8295TIP3    H246301   5.106   5.377  13.362 -0.9894 -0.9036 -2.4008
 8296TIP3   OH246302   6.526   4.144   0.641 -0.8505  0.2749  0.0445
 8296TIP3    H146303   6.440   4.127   0.679 -0.5512  2.3451  1.7778
 8296TIP3    H246304   6.577   4.180   0.714  1.0626  0.3445 -1.3062
 8297TIP3   OH246305   3.939   7.055   0.024 -0.0680  0.1054  0.2489
 8297TIP3    H146306   3.909   6.967   0.047 -1.1226  0.2664 -0.4688
 8297TIP3    H246307   3.959   7.096   0.108 -1.0834 -0.2901  0.6885
 8298TIP3   OH246308   3.477   7.065  12.372 -0.1582  0.0843  0.4226
 8298TIP3    H146309   3.454   6.985  12.420  1.5983  0.0417  1.2181
 8298TIP3    H246310   3.506   7.034  12.286  1.1270 -0.1848  0.9493
 8299TIP3   OH246311   1.249   3.096  14.220 -0.2686  0.1123  0.1776
 8299TIP3    H146312   1.226   3.114  14.129 -0.3154  1.3162  0.4109
 8299TIP3    H246313   1.298   3.173  14.248  0.9844 -0.8781  0.7561
 8300TIP3   OH246314   3.448   2.237  10.773 -0.4630  0.2822  0.0829
 8300TIP3    H146315   3.368   2.199  10.737 -1.9247 -0.2285  3.7069
 8300TIP3    H246316   3.480   2.172  10.836  1.0883  1.8455  0.9649
 8301TIP3   OH246317   0.867   2.853   1.200  0.1507  0.0948  0.4045
 8301TIP3    H146318   0.805   2.791   1.239 -0.8876  0.3617 -0.7759
 8301TIP3    H246319   0.892   2.812   1.117  0.5738  0.5845  0.2912
 8302TIP3   OH246320   1.727   5.535  10.615  0.1402 -0.3418 -0.3297
 8302TIP3    H146321   1.634   5.531  10.590 -0.6291  0.2320  2.3017
 8302TIP3    H246322   1.756   5.621  10.586 -0.4083 -0.1509 -0.3126
 8303TIP3   OH246323   6.437   6.178  12.634 -0.1899  0.2572 -0.2273
 8303TIP3    H146324   6.464   6.259  12.677  2.8343 -0.4025 -0.7532
 8303TIP3    H246325   6.352   6.158  12.672 -0.0836  2.6198  1.3802
 8304TIP3   OH246326   4.424   4.760  14.254  0.0221 -0.1334  0.9771
 8304TIP3    H146327   4.435   4.730  14.345 -1.1962 -0.7207  0.9367
 8304TIP3    H246328   4.329   4.759  14.240  0.2844 -1.5394 -0.8044
 8305TIP3   OH246329   3.917   4.340  12.447 -0.5541  0.0571 -0.1803
 8305TIP3    H146330   3.996   4.286  12.444 -0.1852  0.5704  0.3585
 8305TIP3    H246331   3.913   4.372  12.537 -1.7331 -0.5037 -0.0236
 8306TIP3   OH246332   3.938   1.710  14.360 -0.2586  0.2515 -0.1087
 8306TIP3    H146333   3.862   1.677  14.406  1.1328 -1.2637  1.1741
 8306TIP3    H246334   3.903   1.771  14.295 -2.7220 -2.1831 -1.1140
 8307TIP3   OH246335   5.048   6.774   2.048 -0.1059  0.2238  0.1347
 8307TIP3    H146336   5.133   6.738   2.072  0.3947  1.1575 -0.2212
 8307TIP3    H246337   5.016   6.817   2.127 -0.6375 -0.8415  0.5166
 8308TIP3   OH246338   3.559   7.100  12.789 -0.3344  0.1910 -0.1660
 8308TIP3    H146339   3.551   7.114  12.694  0.0294  0.6907 -0.1247
 8308TIP3    H246340   3.512   7.018  12.805 -2.3775  1.2799 -0.4353
 8309TIP3   OH246341   5.461   5.108   1.083 -0.6589 -0.0823  0.2284
 8309TIP3    H146342   5.526   5.109   1.012 -0.1831  0.9862  0.6687
 8309TIP3    H246343   5.454   5.200   1.109 -2.9260 -0.0673 -0.3478
 8310TIP3   OH246344   2.469   4.652  14.597  0.2449  0.0727 -0.1720
 8310TIP3    H146345   2.436   4.715  14.662 -1.6945 -1.0718 -0.0059
 8310TIP3    H246346   2.469   4.701  14.515 -0.0784  0.6664  0.1757
 8311TIP3   OH246347   1.623   3.313  15.210 -0.2143 -0.3475  0.0871
 8311TIP3    H146348   1.699   3.256  15.199 -0.1455 -0.2531  0.0755
 8311TIP3    H246349   1.574   3.304  15.128 -0.3404 -0.5940  0.1898
 8312TIP3   OH246350   2.953   7.220   0.671 -0.0584 -0.0012 -0.7906
 8312TIP3    H146351   2.913   7.225   0.584  0.4557 -0.2442 -1.0400
 8312TIP3    H246352   3.019   7.289   0.670  0.5768 -0.6023 -0.9187
 8313TIP3   OH246353   2.259   5.226  12.955  0.1336  0.1730 -0.1606
 8313TIP3    H146354   2.214   5.309  12.938 -0.8974 -0.2452  0.4696
 8313TIP3    H246355   2.331   5.224  12.892 -0.2975  1.1926 -0.6921
 8314TIP3   OH246356   5.705   2.119  12.595 -0.3212 -0.3160 -0.2547
 8314TIP3    H146357   5.779   2.142  12.539 -1.4953  1.0852 -1.2608
 8314TIP3    H246358   5.637   2.089  12.535 -0.8255 -0.9259  0.6036
 8315TIP3   OH246359   3.437   3.482  15.838 -0.2099  0.2466 -0.5293
 8315TIP3    H146360   3.496   3.417  15.801  0.3833  0.4548  0.0478
 8315TIP3    H246361   3.423   3.454  15.928  0.5200  1.2238 -0.0901
 8316TIP3   OH246362   7.076   2.966   0.637 -0.4800 -0.3168  0.0889
 8316TIP3    H146363   7.026   2.959   0.556 -0.7246 -0.6565  0.2696
 8316TIP3    H246364   7.012   2.951   0.707 -0.5334  1.2565  0.4021
 8317TIP3   OH246365   1.725   6.972   0.036 -0.1711 -0.0990 -0.4470
 8317TIP3    H146366   1.683   7.053   0.062 -2.4549 -1.9589  1.8244
 8317TIP3    H246367   1.718   6.971  -0.060 -2.0516  1.3545 -0.3499
 8318TIP3   OH246368   4.312   2.586   1.723 -0.0771  0.0382 -1.0546
 8318TIP3    H146369   4.320   2.582   1.628  0.7545  0.0116 -0.9852
 8318TIP3    H246370   4.402   2.575   1.756 -0.1417  1.5800 -0.3230
 8319TIP3   OH246371   3.703   3.562   0.956  0.5515 -0.0173  0.3870
 8319TIP3    H146372   3.761   3.489   0.977  1.7941  0.9545  0.3559
 8319TIP3    H246373   3.731   3.592   0.870  0.7694  1.1961  0.8669
 8320TIP3   OH246374   0.722   2.866  14.600 -0.3981 -0.9130 -0.4291
 8320TIP3    H146375   0.730   2.880  14.506  0.4912 -1.5200 -0.4454
 8320TIP3    H246376   0.746   2.950  14.639  0.4591 -1.0272 -0.7001
 8321TIP3   OH246377   3.361   5.936  11.424  0.0754 -0.6634 -0.2488
 8321TIP3    H146378   3.278   5.981  11.407  0.6599  0.5572  0.0145
 8321TIP3    H246379   3.390   5.971  11.508  1.0084 -0.8197 -0.4983
 8322TIP3   OH246380   2.987   2.709  10.808  0.3977  0.5539  0.3217
 8322TIP3    H146381   2.977   2.624  10.765 -0.1345 -0.0856  1.6817
 8322TIP3    H246382   2.897   2.735  10.829  0.7996 -0.2891  3.2130
 8323TIP3   OH246383   2.475   0.669  15.469 -0.2268  0.4758  0.1086
 8323TIP3    H146384   2.427   0.619  15.535 -0.6844 -0.3182 -0.8289
 8323TIP3    H246385   2.499   0.605  15.402 -0.0262  1.3382 -0.6515
 8324TIP3   OH246386   3.168   4.858  14.728 -0.4069  0.3145  0.2469
 8324TIP3    H146387   3.202   4.802  14.797 -1.3661 -1.4545 -0.7039
 8324TIP3    H246388   3.095   4.905  14.767 -0.5376 -0.1975  0.6019
 8325TIP3   OH246389   2.205   1.130   2.230 -0.0051  0.1457 -0.1273
 8325TIP3    H146390   2.279   1.186   2.252  0.8899 -1.2600  0.5272
 8325TIP3    H246391   2.194   1.142   2.135 -0.2736  1.9379  0.1236
 8326TIP3   OH246392   2.421   5.738  13.689 -1.0337  0.1771  0.5579
 8326TIP3    H146393   2.361   5.666  13.668 -2.0152  1.2215 -0.2865
 8326TIP3    H246394   2.400   5.760  13.780 -1.3709  0.0113  0.5233
 8327TIP3   OH246395   4.220   5.490  14.810  0.2508  0.0795 -0.2459
 8327TIP3    H146396   4.197   5.468  14.900  0.5585 -0.2605 -0.2535
 8327TIP3    H246397   4.210   5.586  14.806 -0.6701 -0.0066 -0.1119
 8328TIP3   OH246398   1.886   6.008  13.203  0.3621 -0.0548  0.5435
 8328TIP3    H146399   1.844   6.091  13.222  1.2693 -0.0355  2.6237
 8328TIP3    H246400   1.882   6.000  13.108  0.9142  2.7220  0.2382
 8329TIP3   OH246401   0.662   3.761  12.343  0.4259 -0.0515  0.5542
 8329TIP3    H146402   0.697   3.760  12.432 -0.1332  0.1626  0.7766
 8329TIP3    H246403   0.717   3.698  12.295  1.1901  0.3800  0.8666
 8330TIP3   OH246404   2.070   3.813  15.195  0.1016  0.7693  0.2721
 8330TIP3    H146405   2.096   3.902  15.168 -1.2710  0.2184 -3.0382
 8330TIP3    H246406   2.025   3.826  15.278  0.5871  3.0778  0.2274
 8331TIP3   OH246407   2.657   4.008   0.665  0.2783 -0.3745 -0.1611
 8331TIP3    H146408   2.739   3.974   0.702 -0.3225  0.4867  2.0016
 8331TIP3    H246409   2.684   4.051   0.584  1.5192 -2.9637 -1.2000
 8332TIP3   OH246410   5.571   3.187  15.813 -0.2523 -0.1249 -0.1984
 8332TIP3    H146411   5.526   3.257  15.861 -0.1724  0.2461 -0.6599
 8332TIP3    H246412   5.629   3.147  15.877 -1.9914 -1.2833  0.6803
 8333TIP3   OH246413   2.277   2.743   0.076  0.8963 -0.0057 -0.0944
 8333TIP3    H146414   2.342   2.804   0.043  0.2310  0.0366 -1.3717
 8333TIP3    H246415   2.203   2.799   0.102  0.3667 -0.2195 -1.0788
 8334TIP3   OH246416   2.363   2.519  12.882  0.6286  1.0540  0.5451
 8334TIP3    H146417   2.417   2.531  12.804  0.3985  1.3072  0.4254
 8334TIP3    H246418   2.424   2.488  12.949  0.4357 -1.4418 -0.3663
 8335TIP3   OH246419   2.270   6.022  14.055 -0.2834  0.4387 -0.1654
 8335TIP3    H146420   2.350   5.972  14.042 -0.8779 -0.6278  0.2316
 8335TIP3    H246421   2.200   5.963  14.029 -0.9657  1.2484 -0.1967
 8336TIP3   OH246422   4.452   6.412  15.930 -0.5974  0.0800 -0.5462
 8336TIP3    H146423   4.493   6.413  16.016 -1.6783  2.5170 -0.0235
 8336TIP3    H246424   4.513   6.462  15.874 -1.0080  0.4658 -0.6497
 8337TIP3   OH246425   4.250   5.187  12.740  0.3263  0.0630 -0.4259
 8337TIP3    H146426   4.302   5.136  12.677 -0.1961 -0.5970 -0.3331
 8337TIP3    H246427   4.266   5.278  12.716 -1.0925 -0.2165 -2.5295
 8338TIP3   OH246428   0.189   6.301  13.557 -0.4404 -0.3233 -0.7900
 8338TIP3    H146429   0.179   6.364  13.486  0.1399 -2.3456 -2.7305
 8338TIP3    H246430   0.168   6.217  13.517 -0.7456 -1.4268  1.6251
 8339TIP3   OH246431   4.911   5.380   1.086 -0.0913 -0.1424  0.3528
 8339TIP3    H146432   4.984   5.382   1.024 -0.1121 -0.6430  0.3057
 8339TIP3    H246433   4.952   5.364   1.171  0.1234  2.5696  0.7823
 8340TIP3   OH246434   2.619   5.186  14.206  0.3760  0.2145 -0.2242
 8340TIP3    H146435   2.589   5.269  14.245 -0.8631 -0.1899 -0.3077
 8340TIP3    H246436   2.698   5.210  14.158  0.9464  1.0455  1.1089
 8341TIP3   OH246437   4.399   3.479  13.048 -0.2630  0.9285 -0.4178
 8341TIP3    H146438   4.359   3.409  13.101  1.3773  1.8184  2.0658
 8341TIP3    H246439   4.325   3.518  13.002 -1.6511 -0.3720  0.6211
 8342TIP3   OH246440   2.286   5.385  11.255  0.0016  0.1746  0.8129
 8342TIP3    H146441   2.285   5.460  11.196 -3.2056  0.1797  0.7927
 8342TIP3    H246442   2.346   5.410  11.325 -1.1583  2.8778  0.8977
 8343TIP3   OH246443   3.843   4.763  13.042  0.1040 -0.0945 -0.2641
 8343TIP3    H146444   3.932   4.794  13.055 -0.2582  0.6816  0.4461
 8343TIP3    H246445   3.797   4.836  13.001 -0.2751 -0.3803 -0.3566
 8344TIP3   OH246446   0.117   3.346  10.189 -0.3876 -0.7267 -0.1266
 8344TIP3    H146447   0.169   3.310  10.117 -1.3545  0.5425 -1.5244
 8344TIP3    H246448   0.178   3.403  10.236  0.2917 -1.6671  0.1350
 8345TIP3   OH246449   4.097   6.409  14.008  0.0722  0.9168 -0.6547
 8345TIP3    H146450   4.023   6.461  13.974  1.3390  2.8290 -0.5903
 8345TIP3    H246451   4.174   6.455  13.975  1.2285 -1.3800 -1.1771
 8346TIP3   OH246452   0.790   3.069  13.656 -0.4863  0.0013 -0.0662
 8346TIP3    H146453   0.768   3.005  13.724 -1.8524  1.2347  0.6705
 8346TIP3    H246454   0.835   3.018  13.589 -0.3762 -1.4916  1.1166
 8347TIP3   OH246455   2.444   5.150  12.758 -0.0491 -0.6582 -0.4746
 8347TIP3    H146456   2.408   5.064  12.781  0.4774 -0.4630  1.1609
 8347TIP3    H246457   2.539   5.136  12.753  0.2083  0.1431  1.4367
 8348TIP3   OH246458   1.036   6.182  14.861  0.0880  0.5187 -0.3560
 8348TIP3    H146459   0.948   6.210  14.884 -0.1628  1.0574 -1.9396
 8348TIP3    H246460   1.091   6.258  14.878 -0.0742  0.8659 -1.3547
 8349TIP3   OH246461   3.920   5.136  15.949 -0.2202  0.5697  0.0194
 8349TIP3    H146462   3.886   5.152  16.037 -2.3183  0.1591 -0.6784
 8349TIP3    H246463   4.004   5.092  15.963 -1.1949 -0.7952  1.8314
 8350TIP3   OH246464   4.284   4.242  14.327 -0.1542  0.3230 -0.1854
 8350TIP3    H146465   4.220   4.173  14.346  1.3230 -0.2633  3.1820
 8350TIP3    H246466   4.238   4.323  14.345 -0.3688 -0.0391  0.9371
 8351TIP3   OH246467   2.302   5.177   3.044 -0.8160  0.2007 -0.0621
 8351TIP3    H146468   2.383   5.148   3.002 -0.5768  0.9893 -0.1589
 8351TIP3    H246469   2.301   5.133   3.129  0.6656  1.6439  0.7406
 8352TIP3   OH246470   6.209   3.789  13.035  0.0646 -0.1990 -0.5633
 8352TIP3    H146471   6.247   3.866  12.993  0.0162  0.2773  0.2541
 8352TIP3    H246472   6.263   3.716  13.005 -1.1195 -0.1427 -2.9510
 8353TIP3   OH246473   4.806   1.023  11.608 -0.2528 -0.3075 -0.0546
 8353TIP3    H146474   4.860   1.082  11.554  1.0298 -0.3336  1.1704
 8353TIP3    H246475   4.766   0.964  11.545 -0.4961  1.0221 -1.1831
 8354TIP3   OH246476   7.239   6.867  13.305 -0.5847  0.7957  0.0818
 8354TIP3    H146477   7.265   6.883  13.214  1.6149  1.3186  0.7725
 8354TIP3    H246478   7.274   6.781  13.326  0.9004  1.6082  1.0961
 8355TIP3   OH246479   2.008   3.476  11.460 -0.0291  0.1863  0.3825
 8355TIP3    H146480   2.072   3.482  11.389 -1.8827 -0.2656 -1.3561
 8355TIP3    H246481   1.953   3.554  11.449 -1.1465 -0.5791  0.4860
 8356TIP3   OH246482   1.519   4.464  14.226 -0.1924 -0.0494  0.2654
 8356TIP3    H146483   1.579   4.530  14.261 -0.5779  1.3391 -1.6163
 8356TIP3    H246484   1.553   4.381  14.260 -0.0564  1.1358  3.1581
 8357TIP3   OH246485   1.506   5.719  11.002 -0.2342  0.4263 -0.4667
 8357TIP3    H146486   1.507   5.813  11.023 -0.6200  0.2901  0.1852
 8357TIP3    H246487   1.534   5.714  10.911 -1.8286  1.3220 -1.0254
 8358TIP3   OH246488   2.259   5.345  15.409 -0.0741 -0.3408  0.2417
 8358TIP3    H146489   2.231   5.433  15.435  0.7198  0.8475 -2.6011
 8358TIP3    H246490   2.178   5.299  15.389 -0.5572 -0.6039  2.6556
 8359TIP3   OH246491   5.345   1.930  14.017 -0.3595  0.0595  0.4395
 8359TIP3    H146492   5.400   1.876  13.961 -0.4260  0.9062 -0.4684
 8359TIP3    H246493   5.404   1.963  14.085  0.4311  1.5366 -0.9382
 8360TIP3   OH246494   2.626   0.376  15.993  0.3539  0.2514 -0.2524
 8360TIP3    H146495   2.649   0.380  16.086 -0.3746 -1.4160  0.0131
 8360TIP3    H246496   2.701   0.414  15.948 -0.3602  3.4273  1.1586
 8361TIP3   OH246497   2.280   1.354  14.823  0.3964 -0.3148 -0.0315
 8361TIP3    H146498   2.345   1.306  14.874  0.2773 -1.1026 -0.6161
 8361TIP3    H246499   2.308   1.343  14.732  0.3447  0.6888 -0.1718
 8362TIP3   OH246500   4.586   4.484  13.669  0.3727 -0.2059 -0.0965
 8362TIP3    H146501   4.499   4.488  13.707  1.1376  0.8723  1.5972
 8362TIP3    H246502   4.575   4.434  13.588 -1.3860 -2.1368  1.2830
 8363TIP3   OH246503   2.088   2.980   0.591 -0.4089  0.3012 -0.0638
 8363TIP3    H146504   2.112   2.898   0.550  0.6588  0.5580  0.0388
 8363TIP3    H246505   2.104   3.047   0.524  0.1083  0.5816  0.3384
 8364TIP3   OH246506   0.386   4.132  12.462  0.3428  0.2992 -0.4590
 8364TIP3    H146507   0.449   4.164  12.528  0.1447 -0.5229  0.1397
 8364TIP3    H246508   0.440   4.101  12.390  0.7816 -2.9008  1.1628
 8365TIP3   OH246509   1.880   1.911  13.820  0.1701 -0.2133  0.2770
 8365TIP3    H146510   1.926   1.864  13.890 -0.0164 -0.2627  0.3661
 8365TIP3    H246511   1.834   1.842  13.772  1.1405 -0.3067 -0.5301
 8366TIP3   OH246512   5.906   6.959  13.222  0.3266 -0.2071 -0.2728
 8366TIP3    H146513   5.907   6.893  13.152 -0.5695 -2.2028  1.5458
 8366TIP3    H246514   5.814   6.982  13.232  0.6959  1.8033 -1.2924
 8367TIP3   OH246515   1.913   4.917  14.462  0.2222 -0.2793  0.8196
 8367TIP3    H146516   1.984   4.978  14.483 -0.1719  0.1253  0.9883
 8367TIP3    H246517   1.943   4.872  14.383  0.5836  0.0265  0.7783
 8368TIP3   OH246518   2.024   4.746  14.267 -0.2009  0.3025  0.0070
 8368TIP3    H146519   2.116   4.750  14.295 -0.1675  0.4852 -0.1233
 8368TIP3    H246520   2.003   4.653  14.267  0.2890  0.1901 -0.9296
 8369TIP3   OH246521   0.197   0.830   0.121 -0.6255  0.0699  0.0613
 8369TIP3    H146522   0.190   0.917   0.082  0.0860  0.5205  0.9227
 8369TIP3    H246523   0.260   0.840   0.193 -1.2132 -0.9446  0.7425
 8370TIP3   OH246524   2.450   2.806  12.527 -0.3510  0.0087 -0.0796
 8370TIP3    H146525   2.543   2.826  12.523 -0.1602 -1.0428 -1.2957
 8370TIP3    H246526   2.407   2.891  12.521  0.5222  0.4882  0.3512
 8371TIP3   OH246527   5.080   5.294  15.215 -0.2329 -0.0394  0.3898
 8371TIP3    H146528   5.004   5.352  15.208 -1.1660 -1.4412 -1.5135
 8371TIP3    H246529   5.054   5.227  15.278 -0.7093 -0.6471 -0.4288
 8372TIP3   OH246530   5.103   2.458  15.875  0.1226  0.2013  0.0105
 8372TIP3    H146531   5.089   2.551  15.861  0.0314  0.4109  1.4251
 8372TIP3    H246532   5.024   2.428  15.918  1.0631 -0.0667  1.5776
 8373TIP3   OH246533   0.932   4.138  12.985 -0.0628  0.3355 -0.2465
 8373TIP3    H146534   0.871   4.201  12.945  0.3018  1.0321  0.2932
 8373TIP3    H246535   1.013   4.148  12.936 -0.4219 -0.7046 -1.0679
 8374TIP3   OH246536   4.066   4.901  13.104 -0.2154  0.6056 -0.5612
 8374TIP3    H146537   4.032   4.970  13.047  0.4560  1.2871 -0.1427
 8374TIP3    H246538   4.136   4.943  13.154  1.9228 -0.9846 -2.1108
 8375TIP3   OH246539   5.062   6.466  15.093  0.0755 -0.4173 -0.5496
 8375TIP3    H146540   5.154   6.485  15.075  0.3233 -1.4685 -0.3722
 8375TIP3    H246541   5.037   6.403  15.025 -0.0303 -1.4858  0.4677
 8376TIP3   OH246542   4.696   1.196  13.191 -0.1733 -0.4516 -0.5792
 8376TIP3    H146543   4.723   1.216  13.102  0.4811  0.2776 -0.2168
 8376TIP3    H246544   4.743   1.115  13.212 -0.1896 -0.5266 -0.8242
 8377TIP3   OH246545   4.606   0.020  15.509 -0.4479  0.5974  0.4363
 8377TIP3    H146546   4.691   0.063  15.509 -2.0684  3.9504  0.8259
 8377TIP3    H246547   4.562   0.052  15.431 -2.1279  0.5558  1.3307
 8378TIP3   OH246548   4.525   5.310  13.706 -0.5327  0.4691  0.2042
 8378TIP3    H146549   4.559   5.349  13.786  0.0277  0.1533  0.1304
 8378TIP3    H246550   4.532   5.215  13.721 -1.7969  0.3988  0.3532
 8379TIP3   OH246551   1.373   4.479  12.401 -0.6141 -0.3534  0.1311
 8379TIP3    H146552   1.439   4.447  12.463  1.1844  0.6731 -1.2350
 8379TIP3    H246553   1.291   4.438  12.432  0.3140 -0.3050  2.8397
 8380TIP3   OH246554   3.125   6.040  14.678  0.0139  0.5778 -0.2699
 8380TIP3    H146555   3.084   5.956  14.657  1.0409  0.3199 -1.3311
 8380TIP3    H246556   3.052   6.102  14.684 -0.7172 -0.3074  0.0975
 8381TIP3   OH246557   0.751   7.178  13.050  0.8233  0.0253  0.8934
 8381TIP3    H146558   0.736   7.219  13.136  1.1210 -0.8912  1.3853
 8381TIP3    H246559   0.715   7.241  12.988  0.6974  0.7536  1.6830
 8382TIP3   OH246560   6.752   4.092  13.285 -0.4033  0.4969  0.1067
 8382TIP3    H146561   6.827   4.120  13.232 -0.7566  0.9181 -0.1796
 8382TIP3    H246562   6.743   4.160  13.352 -0.6868  0.5818 -0.0167
 8383TIP3   OH246563   3.156   7.114   0.359 -0.4613  0.4043  0.5341
 8383TIP3    H146564   3.071   7.071   0.366  0.0969 -0.9289 -0.5662
 8383TIP3    H246565   3.142   7.185   0.296 -0.5897 -0.2189 -0.1346
 8384TIP3   OH246566   0.392   3.185  12.799 -0.1160 -0.0844 -0.2824
 8384TIP3    H146567   0.448   3.107  12.796 -1.6507 -1.1282 -2.6004
 8384TIP3    H246568   0.308   3.156  12.762 -1.9746  1.6620  2.3872
 8385TIP3   OH246569   6.949   2.604  14.377  0.0216 -0.4534  0.2089
 8385TIP3    H146570   6.995   2.541  14.431  1.6686  0.6342  0.1104
 8385TIP3    H246571   6.900   2.658  14.439 -0.5117 -1.1298  0.3754
 8386TIP3   OH246572   6.022   4.730  14.455 -0.1250 -0.1196 -0.4323
 8386TIP3    H146573   5.956   4.798  14.470 -2.1449 -1.9356 -0.9083
 8386TIP3    H246574   6.094   4.776  14.411 -2.8046  1.1030 -3.7502
 8387TIP3   OH246575   2.018   4.972  15.450 -0.5273 -0.1089  0.1356
 8387TIP3    H146576   1.972   5.039  15.501 -0.7747 -0.4260  0.3269
 8387TIP3    H246577   2.110   4.982  15.475 -0.3119  1.3272 -1.1463
 8388TIP3   OH246578   6.081   0.233  15.343  0.1178 -0.6134  0.1252
 8388TIP3    H146579   6.093   0.179  15.421 -0.4454 -1.1725 -0.1688
 8388TIP3    H246580   6.081   0.323  15.376  1.6472 -0.7491  0.5510
 8389TIP3   OH246581   1.710   3.376   1.563 -0.1101  0.8974  0.0929
 8389TIP3    H146582   1.711   3.369   1.468  1.5605  0.9732  0.0931
 8389TIP3    H246583   1.664   3.458   1.581 -2.1863 -0.0960 -0.5651
 8390TIP3   OH246584   4.672   6.745  13.519  0.0140  0.0346  0.0369
 8390TIP3    H146585   4.604   6.744  13.452 -0.5488 -0.6104  0.6003
 8390TIP3    H246586   4.739   6.805  13.486 -0.5349  0.1775 -0.8169
 8391TIP3   OH246587   0.224   2.450   0.514  0.2770 -0.3032 -0.1006
 8391TIP3    H146588   0.297   2.469   0.572 -0.7250  1.3758  0.6681
 8391TIP3    H246589   0.264   2.420   0.433  1.6920 -2.4771  1.3632
 8392TIP3   OH246590   0.154   7.203   1.265  0.1066 -0.0337  0.0109
 8392TIP3    H146591   0.088   7.260   1.226 -0.1479 -1.9271 -2.5085
 8392TIP3    H246592   0.230   7.259   1.280 -1.1613  1.5863  0.4449
 8393TIP3   OH246593   0.949   6.523  11.927  0.1978 -0.2737 -0.1465
 8393TIP3    H146594   0.969   6.475  12.007 -0.6419 -0.3674  0.0086
 8393TIP3    H246595   1.009   6.598  11.929  1.8074 -1.5167 -0.6023
 8394TIP3   OH246596   4.692   2.868  10.956  0.8155 -0.2783 -0.2907
 8394TIP3    H146597   4.750   2.866  11.032  0.2237  1.5652  0.2400
 8394TIP3    H246598   4.750   2.864  10.881  1.5788  0.7776  0.2419
 8395TIP3   OH246599   4.310   4.547  14.774 -0.1967 -0.2950 -0.1611
 8395TIP3    H146600   4.345   4.629  14.808 -1.0105  0.5457 -1.3336
 8395TIP3    H246601   4.302   4.490  14.852 -0.4246  1.0116  0.7859
 8396TIP3   OH246602   6.664   5.452   0.058 -0.4619 -0.1470 -0.1932
 8396TIP3    H146603   6.758   5.463   0.076 -0.9061 -0.2940  2.3420
 8396TIP3    H246604   6.638   5.377   0.111 -1.7868 -0.8827 -1.8298
 8397TIP3   OH246605   1.610   2.820  14.581  0.0138 -0.4188  0.2791
 8397TIP3    H146606   1.537   2.879  14.600  0.2560 -0.2144  0.5868
 8397TIP3    H246607   1.688   2.875  14.589  0.1853 -0.5602 -0.3640
 8398TIP3   OH246608   0.428   3.644  13.337  0.2247 -0.6075  0.0120
 8398TIP3    H146609   0.473   3.707  13.394 -0.4187  2.3723 -2.6484
 8398TIP3    H246610   0.335   3.655  13.358 -0.0328  0.6460 -1.6875
 8399TIP3   OH246611   1.811   3.422  10.757 -0.4224 -0.2836  0.1875
 8399TIP3    H146612   1.797   3.400  10.849  0.3113 -0.9607  0.1522
 8399TIP3    H246613   1.898   3.462  10.755  0.1459 -1.4903 -0.3791
 8400TIP3   OH246614   4.760   3.381  15.525 -0.0124  0.0360 -0.9971
 8400TIP3    H146615   4.830   3.343  15.472 -0.6761 -2.0518 -0.4287
 8400TIP3    H246616   4.802   3.402  15.609 -0.3017 -2.4947 -0.1583
 8401TIP3   OH246617   2.638   5.503  14.759  0.4861  0.3855  0.0585
 8401TIP3    H146618   2.603   5.563  14.825  1.2047  0.7974  0.0755
 8401TIP3    H246619   2.561   5.473  14.711 -0.1428 -0.6230  1.6540
 8402TIP3   OH246620   1.985   5.282   0.188 -0.6959 -0.4629 -0.1691
 8402TIP3    H146621   1.896   5.318   0.182 -0.5439 -0.1943 -0.8692
 8402TIP3    H246622   2.015   5.310   0.274 -1.7592 -1.6562  0.6060
 8403TIP3   OH246623   4.868   3.226   0.143  0.2319  0.6234 -0.0045
 8403TIP3    H146624   4.879   3.164   0.070  0.4101  0.4024  0.2092
 8403TIP3    H246625   4.934   3.200   0.207 -0.7095  0.0642  0.7503
 8404TIP3   OH246626   1.699   4.000  11.629  0.3561  0.5702  0.0843
 8404TIP3    H146627   1.776   3.983  11.684 -0.4845 -1.5917  0.6648
 8404TIP3    H246628   1.627   4.008  11.692 -0.0322  1.8166 -0.5080
 8405TIP3   OH246629   3.438   6.215  15.139  0.1359  0.4200 -0.1585
 8405TIP3    H146630   3.503   6.279  15.168  0.1698  0.3060  0.0236
 8405TIP3    H246631   3.428   6.231  15.045  0.2033  0.6373 -0.1283
 8406TIP3   OH246632   1.805   0.800   0.202  0.4439 -0.2436 -0.0536
 8406TIP3    H146633   1.735   0.735   0.202  0.6962 -0.5157  0.8870
 8406TIP3    H246634   1.873   0.763   0.146 -0.6379  0.5571 -1.9928
 8407TIP3   OH246635   4.253   2.875   0.056  0.5000 -0.4378  0.7470
 8407TIP3    H146636   4.252   2.898  -0.037  0.1015  1.2371  1.1595
 8407TIP3    H246637   4.344   2.885   0.082  0.7062 -1.3900  0.4430
 8408TIP3   OH246638   5.424   4.215   0.676  0.3010 -0.0769 -0.4715
 8408TIP3    H146639   5.445   4.124   0.656 -0.2499 -0.0850 -1.0508
 8408TIP3    H246640   5.361   4.240   0.608  0.2787  0.6651 -0.1814
 8409TIP3   OH246641   0.958   4.026   4.021  0.8343 -0.3437 -0.0747
 8409TIP3    H146642   0.931   4.040   4.112 -1.3041  1.1172 -0.8965
 8409TIP3    H246643   0.875   4.015   3.973  1.8552  0.6722 -2.1173
 8410TIP3   OH246644   5.023   5.178  14.945 -0.0834 -0.6573 -0.0959
 8410TIP3    H146645   4.998   5.179  15.037 -0.1213 -0.2488 -0.1131
 8410TIP3    H246646   5.101   5.121  14.942 -0.9759 -1.9139 -0.0437
 8411TIP3   OH246647   0.416   3.839  12.452  0.0152 -0.0503  0.0163
 8411TIP3    H146648   0.417   3.935  12.452 -0.1058 -0.0426 -1.3399
 8411TIP3    H246649   0.501   3.814  12.416  0.0853 -0.4529  0.4661
 8412TIP3   OH246650   1.660   6.412   1.668 -0.0455 -0.2645  0.3477
 8412TIP3    H146651   1.752   6.386   1.668  0.3450  1.0884  0.0056
 8412TIP3    H246652   1.659   6.497   1.713 -0.9963  0.1632 -0.4488
 8413TIP3   OH246653   3.844   0.724  15.366  0.0569  0.0099 -0.5843
 8413TIP3    H146654   3.924   0.694  15.322 -1.4005 -1.6897 -2.1640
 8413TIP3    H246655   3.875   0.764  15.447  2.4528 -1.4056 -0.7528
 8414TIP3   OH246656   2.894   7.071   1.406 -0.5786 -1.2818 -0.2623
 8414TIP3    H146657   2.872   7.068   1.313  1.4075  0.7843 -0.8250
 8414TIP3    H246658   2.892   7.164   1.429  0.0742 -1.6766  1.5020
 8415TIP3   OH246659   5.365   4.046   0.213  0.0236 -0.4300 -0.4250
 8415TIP3    H146660   5.383   4.137   0.235  1.3746 -1.3005  2.3812
 8415TIP3    H246661   5.431   4.024   0.147  0.0361  0.4615 -0.7187
 8416TIP3   OH246662   4.773   5.215  14.117  0.4292 -0.2171  0.2306
 8416TIP3    H146663   4.757   5.306  14.095  0.4610 -0.7384 -2.1010
 8416TIP3    H246664   4.693   5.186  14.161 -0.0980  0.5584 -0.2199
 8417TIP3   OH246665   7.206   5.336  14.861  0.0771  0.5210 -0.2540
 8417TIP3    H146666   7.163   5.377  14.786 -0.0526  0.6371 -0.1153
 8417TIP3    H246667   7.285   5.389  14.875  0.1928  0.3918 -0.4208
 8418TIP3   OH246668   6.915   6.097  13.780 -0.3054  0.1624 -0.1079
 8418TIP3    H146669   6.885   6.014  13.816 -1.0621  1.1167  1.4794
 8418TIP3    H246670   6.876   6.101  13.692 -1.6764 -0.3668  0.4741
 8419TIP3   OH246671   3.495   6.523   1.187  0.0207 -0.4809  0.6085
 8419TIP3    H146672   3.435   6.457   1.219 -1.7643  1.0332  0.4945
 8419TIP3    H246673   3.544   6.552   1.264 -0.3704 -0.7487  0.9550
 8420TIP3   OH246674   5.952   3.148  14.680 -0.4819 -0.0831 -0.1907
 8420TIP3    H146675   5.898   3.142  14.759 -0.6246  0.8341 -0.2105
 8420TIP3    H246676   5.901   3.104  14.612 -0.6698 -0.2657  0.0702
 8421TIP3   OH246677   6.389   5.155  15.548 -0.2283  0.2292 -0.2944
 8421TIP3    H146678   6.363   5.086  15.487  0.4543  1.3192 -1.8489
 8421TIP3    H246679   6.468   5.193  15.508  0.6814  0.4569  1.6570
 8422TIP3   OH246680   3.764   2.992  11.116 -0.0528 -0.5582  0.0315
 8422TIP3    H146681   3.829   2.971  11.049  0.0953 -0.2623  0.0796
 8422TIP3    H246682   3.811   3.046  11.179 -0.6113  0.5357 -0.4753
 8423TIP3   OH246683   2.935   5.245   4.680  0.1075  0.2763 -0.2879
 8423TIP3    H146684   2.895   5.317   4.729  2.2527  0.1985  1.6405
 8423TIP3    H246685   3.011   5.284   4.636  0.3968 -0.4890 -0.4834
 8424TIP3   OH246686   4.833   7.238  13.954  0.1607 -0.0894 -0.0547
 8424TIP3    H146687   4.772   7.305  13.985 -0.3401  1.4972 -4.1121
 8424TIP3    H246688   4.916   7.284  13.944  0.6153 -0.8659  0.0916
 8425TIP3   OH246689   4.212   6.148  14.560 -0.7063  0.0712  0.0278
 8425TIP3    H146690   4.173   6.163  14.474 -0.0814  0.7899 -0.1335
 8425TIP3    H246691   4.151   6.089  14.604  0.4673 -2.7046 -1.9596
 8426TIP3   OH246692   4.863   2.897  14.666 -0.1848  0.1870 -0.1812
 8426TIP3    H146693   4.846   2.826  14.729  0.4080 -0.5987 -0.8892
 8426TIP3    H246694   4.894   2.969  14.720 -1.0339 -0.0062  0.5802
 8427TIP3   OH246695   3.454   2.698  12.388  0.4890  0.7521  0.5951
 8427TIP3    H146696   3.361   2.713  12.373  0.5341  0.1970 -0.2940
 8427TIP3    H246697   3.461   2.603  12.401  0.8073  0.9050  1.6148
 8428TIP3   OH246698   1.701   3.707  13.788 -0.4910  0.2706  0.7863
 8428TIP3    H146699   1.623   3.758  13.808  0.4517  1.8123  0.5706
 8428TIP3    H246700   1.766   3.771  13.762  0.7114 -1.0450  0.4813
 8429TIP3   OH246701   3.765   1.536  13.577 -0.0030  0.3761 -0.3285
 8429TIP3    H146702   3.743   1.447  13.550 -0.7147  0.4209  0.0861
 8429TIP3    H246703   3.681   1.582  13.579  0.5296  1.4530 -1.9748
 8430TIP3   OH246704   3.654   4.809  15.811 -0.0515 -0.2308  0.5786
 8430TIP3    H146705   3.559   4.806  15.810 -0.1058  0.7046  1.6070
 8430TIP3    H246706   3.675   4.903  15.806  0.7813 -0.3508  1.7744
 8431TIP3   OH246707   4.589   6.026  15.550 -0.1517 -0.5041  0.4346
 8431TIP3    H146708   4.574   6.070  15.466 -1.8503 -1.1048  0.4008
 8431TIP3    H246709   4.625   5.940  15.527  1.0479  0.0017  0.4056
 8432TIP3   OH246710   4.810   3.001  12.733  0.2140 -0.1838 -0.5049
 8432TIP3    H146711   4.858   2.983  12.814 -1.3705 -1.6817  0.1342
 8432TIP3    H246712   4.718   3.005  12.760 -0.3023 -0.3640 -2.1753
 8433TIP3   OH246713   3.186   2.772   0.465  0.0828  0.3425 -0.0153
 8433TIP3    H146714   3.112   2.833   0.473 -0.2149  0.7672 -4.7513
 8433TIP3    H246715   3.263   2.827   0.475 -0.2078  0.8206 -0.3592
 8434TIP3   OH246716   5.867   4.192  12.230 -0.3569 -0.0047 -0.4920
 8434TIP3    H146717   5.812   4.227  12.300  0.3737  0.3288 -0.0773
 8434TIP3    H246718   5.872   4.098  12.247 -1.3809 -0.1469 -0.9457
 8435TIP3   OH246719   3.458   4.199  12.521 -0.1755  0.8770  0.2723
 8435TIP3    H146720   3.397   4.129  12.540  1.1960 -0.0341  1.3963
 8435TIP3    H246721   3.483   4.234  12.607  2.4297 -0.1365 -0.0093
 8436TIP3   OH246722   1.586   7.217  15.413 -0.1628  0.0903 -0.2950
 8436TIP3    H146723   1.650   7.146  15.418 -0.3442  0.0293  1.4449
 8436TIP3    H246724   1.636   7.295  15.439  0.2134  0.7446 -2.8651
 8437TIP3   OH246725   0.255   3.249   0.499  0.2039  0.1007 -0.1116
 8437TIP3    H146726   0.198   3.179   0.531 -0.2479 -0.3753 -1.8494
 8437TIP3    H246727   0.194   3.318   0.471  0.6473  1.1922  1.5650
 8438TIP3   OH246728   2.910   2.436  14.565 -0.6454 -0.2607 -0.4572
 8438TIP3    H146729   2.920   2.474  14.478  1.2289  0.3482  0.0076
 8438TIP3    H246730   2.986   2.379  14.576 -1.1788 -0.8008  0.5496
 8439TIP3   OH246731   2.926   3.538   0.006  0.1835 -0.2234 -0.4703
 8439TIP3    H146732   2.935   3.583  -0.078 -0.8090  1.1615  0.1383
 8439TIP3    H246733   2.911   3.446  -0.017 -0.4811  0.2116 -1.8244
 8440TIP3   OH246734   1.057   3.312  14.758  0.2669 -0.3576 -0.7144
 8440TIP3    H146735   1.054   3.309  14.663 -0.5727  0.9550 -0.7477
 8440TIP3    H246736   1.001   3.387  14.782  4.0989  2.2425  0.6143
 8441TIP3   OH246737   2.291   3.875   0.031 -0.2198  0.0796 -0.6699
 8441TIP3    H146738   2.240   3.794   0.034 -0.5048  0.3135  1.3720
 8441TIP3    H246739   2.367   3.853  -0.023 -1.3997 -0.8885 -1.9737
 8442TIP3   OH246740   4.677   3.599  15.052 -0.2473  0.1667  0.1053
 8442TIP3    H146741   4.751   3.575  15.107 -0.9057 -0.5849  0.6813
 8442TIP3    H246742   4.713   3.606  14.964  0.8204  1.3921  0.6270
 8443TIP3   OH246743   6.874   4.137  15.351  0.1288 -0.0892  0.1827
 8443TIP3    H146744   6.934   4.169  15.418  2.0245 -1.0777 -1.0207
 8443TIP3    H246745   6.912   4.055  15.321 -1.2190 -0.1583 -1.4294
 8444TIP3   OH246746   5.455   3.579  12.467  0.2612 -0.1036  0.3311
 8444TIP3    H146747   5.380   3.589  12.526  0.2818 -1.1285  0.5469
 8444TIP3    H246748   5.531   3.573  12.526  0.3118 -0.8363  0.1942
 8445TIP3   OH246749   2.451   4.713  13.623 -0.4506  0.0456 -0.5546
 8445TIP3    H146750   2.372   4.767  13.631  0.8558  1.8703  0.3896
 8445TIP3    H246751   2.477   4.721  13.532 -0.5419  0.5899 -0.5294
 8446TIP3   OH246752   3.249   6.587   0.062 -0.7997  0.1841  0.2354
 8446TIP3    H146753   3.269   6.637   0.141  0.0514  0.8694 -0.4058
 8446TIP3    H246754   3.241   6.653  -0.007  0.7011 -0.5728 -0.6979
 8447TIP3   OH246755   2.914   5.457  15.330  0.0447 -0.5469 -0.2058
 8447TIP3    H146756   2.964   5.532  15.300  0.5821 -0.7776  0.1035
 8447TIP3    H246757   2.883   5.415  15.250 -0.9234  0.4460 -0.3597
 8448TIP3   OH246758   4.868   3.256  15.138  0.3250 -0.0396 -0.2457
 8448TIP3    H146759   4.919   3.317  15.191  2.0898 -1.6591 -0.0078
 8448TIP3    H246760   4.833   3.193  15.201 -0.6314  0.1394 -0.5930
 8449TIP3   OH246761   2.542   4.689  13.919  0.0382  0.4139  0.1143
 8449TIP3    H146762   2.558   4.673  13.826 -3.4909 -0.9666 -0.3196
 8449TIP3    H246763   2.487   4.767  13.921 -0.0206  0.3565  1.0645
 8450TIP3   OH246764   0.721   7.236  13.639 -0.5073  0.3763  0.8367
 8450TIP3    H146765   0.735   7.154  13.592 -2.0150 -0.4919  1.8909
 8450TIP3    H246766   0.754   7.220  13.727 -1.2937  0.7251  1.1992
 8451TIP3   OH246767   3.922   3.470   0.479  0.0650  0.4738  0.5616
 8451TIP3    H146768   3.886   3.535   0.539  0.4058  2.3872 -1.2186
 8451TIP3    H246769   3.936   3.518   0.397 -0.1992 -1.9992 -1.0047
 8452TIP3   OH246770   3.166   3.259  12.505  0.3256 -0.0390 -0.0175
 8452TIP3    H146771   3.091   3.207  12.535  0.5205 -1.4775 -1.9500
 8452TIP3    H246772   3.234   3.243  12.571 -0.6879  0.4032  1.1572
 8453TIP3   OH246773   7.302   5.393   1.190 -0.0144 -0.0346  0.5855
 8453TIP3    H146774   7.215   5.383   1.229  0.3962 -1.5426  1.1732
 8453TIP3    H246775   7.326   5.304   1.161 -0.1068  0.9488 -2.7127
 8454TIP3   OH246776   3.060   5.582   0.417 -0.4389 -0.4339 -0.0460
 8454TIP3    H146777   3.062   5.535   0.334 -0.3220  0.8429 -0.7858
 8454TIP3    H246778   3.132   5.645   0.411 -1.4086  0.7432  0.3640
 8455TIP3   OH246779   6.466   0.751   2.128 -0.4770 -0.0507  0.2886
 8455TIP3    H146780   6.512   0.829   2.098 -0.1996 -0.1140  0.5429
 8455TIP3    H246781   6.374   0.778   2.133 -1.0226 -0.9516 -3.6218
 8456TIP3   OH246782   2.998   4.989  14.456 -0.2070 -0.6112  0.4234
 8456TIP3    H146783   2.949   5.067  14.479 -0.4372 -0.5611 -0.2208
 8456TIP3    H246784   3.088   5.020  14.445 -0.3461 -0.3853 -0.0926
 8457TIP3   OH246785   3.609   3.379  10.851  0.2260 -0.1548  0.5630
 8457TIP3    H146786   3.604   3.368  10.946 -2.5569 -1.2768  0.3467
 8457TIP3    H246787   3.649   3.298  10.820  2.2668  0.7118  0.8250
 8458TIP3   OH246788   3.624   0.277   0.339 -0.2787 -0.4332 -0.4923
 8458TIP3    H146789   3.555   0.294   0.275  1.5137  2.6254 -1.7276
 8458TIP3    H246790   3.641   0.183   0.333 -4.1901 -1.2164 -0.2401
 8459TIP3   OH246791   0.834   3.130  15.100  0.0758 -0.3897 -0.4904
 8459TIP3    H146792   0.877   3.061  15.149 -0.6924 -1.2180 -0.9683
 8459TIP3    H246793   0.741   3.122  15.124 -0.2931 -0.7303 -1.9711
 8460TIP3   OH246794   4.671   1.306  14.877  0.5735 -0.1154 -0.0304
 8460TIP3    H146795   4.692   1.245  14.807  0.4535  1.2221 -1.2692
 8460TIP3    H246796   4.588   1.347  14.849  1.8121  2.2405 -0.3730
 8461TIP3   OH246797   4.501   5.721   0.489 -0.2916 -0.7104 -0.4963
 8461TIP3    H146798   4.549   5.802   0.474  1.3420 -1.0500  2.5177
 8461TIP3    H246799   4.416   5.749   0.524 -1.5117 -0.2030 -3.6806
 8462TIP3   OH246800   3.904   2.058  11.300  0.5383 -0.3711  0.8763
 8462TIP3    H146801   3.955   2.082  11.223 -2.6539  1.3896 -0.8079
 8462TIP3    H246802   3.958   2.083  11.375  1.6049  2.6073 -0.8416
 8463TIP3   OH246803   3.569   1.978  14.258  0.3082  0.3998  0.3087
 8463TIP3    H146804   3.537   2.037  14.190  1.3501  1.1347  0.4430
 8463TIP3    H246805   3.656   1.952  14.229  1.4080  1.9614  2.1012
 8464TIP3   OH246806   1.466   5.526  11.802  0.4692  0.7364  0.0849
 8464TIP3    H146807   1.505   5.463  11.864 -0.0184  2.0265  1.7377
 8464TIP3    H246808   1.539   5.584  11.778  0.1186  1.7632  1.4230
 8465TIP3   OH246809   4.282   2.682   2.978  0.5628 -0.3149 -0.5310
 8465TIP3    H146810   4.309   2.590   2.985 -0.2063 -0.5467 -0.5503
 8465TIP3    H246811   4.360   2.728   2.948  2.0649 -0.3652  3.0830
 8466TIP3   OH246812   2.278   7.058  12.977  0.3254  0.3601 -0.0617
 8466TIP3    H146813   2.199   7.111  12.988  0.1082 -0.0075  0.1757
 8466TIP3    H246814   2.326   7.069  13.059 -0.0514 -0.3474  0.2629
 8467TIP3   OH246815   3.118   6.176  13.308 -0.1511  0.0536 -0.9495
 8467TIP3    H146816   3.152   6.239  13.372 -2.0051  0.4486 -0.3259
 8467TIP3    H246817   3.090   6.229  13.234  0.1004 -0.2084 -1.2305
 8468TIP3   OH246818   2.868   0.310   1.848  0.3878  0.2554  0.2031
 8468TIP3    H146819   2.938   0.249   1.825 -0.8938 -1.6176  1.0925
 8468TIP3    H246820   2.798   0.254   1.883 -1.4982  2.0793 -0.5397
 8469TIP3   OH246821   4.903   5.049  11.875 -0.1371 -0.3852  0.7531
 8469TIP3    H146822   4.816   5.048  11.835 -1.3372  3.6494  2.9161
 8469TIP3    H246823   4.952   5.112  11.823  1.3586 -2.1867 -0.0788
 8470TIP3   OH246824   2.711   4.007  12.516 -0.5498 -0.0089 -0.3824
 8470TIP3    H146825   2.646   3.938  12.526 -0.6745  0.1227 -0.2684
 8470TIP3    H246826   2.792   3.971  12.553 -0.7344  0.0820  0.1169
 8471TIP3   OH246827   3.668   3.996  12.575 -0.5848 -0.0601 -0.6519
 8471TIP3    H146828   3.724   4.061  12.619  1.3113  0.6028 -3.9305
 8471TIP3    H246829   3.596   4.048  12.540 -1.9821 -0.5640  1.3564
 8472TIP3   OH246830   3.842   5.658   0.492  0.2330 -0.7719  0.5136
 8472TIP3    H146831   3.926   5.616   0.509 -0.3592 -1.2085  2.5975
 8472TIP3    H246832   3.792   5.644   0.573 -1.1305  1.1912  0.0515
 8473TIP3   OH246833   4.607   5.935  12.917 -0.4394  0.0811  0.1054
 8473TIP3    H146834   4.591   5.932  13.012 -0.1575  0.3183  0.1609
 8473TIP3    H246835   4.649   5.852  12.896  0.8955  0.6692  0.4442
 8474TIP3   OH246836   4.348   2.549  14.504 -0.2465  0.3893 -0.3948
 8474TIP3    H146837   4.370   2.456  14.509 -0.8022  0.3397  1.8076
 8474TIP3    H246838   4.392   2.588  14.580  0.7169  2.0839 -1.8008
 8475TIP3   OH246839   3.127   2.969  14.797  0.1362  0.4064  0.3454
 8475TIP3    H146840   3.063   2.943  14.863 -2.1354 -0.5040 -2.1329
 8475TIP3    H246841   3.210   2.934  14.829 -1.1969 -1.3560  1.9567
 8476TIP3   OH246842   2.440   4.971   0.009  1.2707  0.0034  0.2725
 8476TIP3    H146843   2.521   4.920   0.001  1.4036 -0.0657  1.7763
 8476TIP3    H246844   2.444   5.006   0.098 -0.3841 -0.0497  0.3737
 8477TIP3   OH246845   3.443   5.531  15.336 -0.2741  0.0093 -0.8864
 8477TIP3    H146846   3.491   5.614  15.347  0.7331 -0.3699 -2.2631
 8477TIP3    H246847   3.378   5.549  15.269 -0.1720 -0.2687 -1.0596
 8478TIP3   OH246848   0.470   7.293  11.419  0.2056  0.5615 -0.5790
 8478TIP3    H146849   0.502   7.204  11.437  1.1297  0.8762 -0.6913
 8478TIP3    H246850   0.403   7.308  11.487  0.5149  0.0366 -0.1520
 8479TIP3   OH246851   3.678   5.566   1.188 -0.5387 -0.2295  0.4949
 8479TIP3    H146852   3.611   5.591   1.125 -0.4679 -0.2953  0.3929
 8479TIP3    H246853   3.659   5.618   1.266 -1.3267 -1.0016  0.8300
 8480TIP3   OH246854   6.878   1.582  13.498 -0.1484  0.4140 -0.2455
 8480TIP3    H146855   6.938   1.654  13.478  0.2783  0.2801  0.4975
 8480TIP3    H246856   6.933   1.517  13.543 -0.4377 -0.5615 -1.2850
 8481TIP3   OH246857   6.497   0.125  15.829 -1.0206 -0.1034 -0.1798
 8481TIP3    H146858   6.432   0.171  15.776 -2.0097 -1.0654  0.1917
 8481TIP3    H246859   6.502   0.038  15.792  0.9947  0.3345 -0.9864
 8482TIP3   OH246860   4.579   5.044  12.754  0.5389 -0.0229 -0.5442
 8482TIP3    H146861   4.593   4.961  12.708  3.7935 -0.3558  0.9435
 8482TIP3    H246862   4.638   5.106  12.712 -0.4572  1.0581 -0.3786
 8483TIP3   OH246863   0.719   3.048  15.598 -0.3180 -0.1939 -0.2007
 8483TIP3    H146864   0.814   3.045  15.610 -0.5416 -0.3801  1.6742
 8483TIP3    H246865   0.685   2.984  15.660 -1.5862 -1.5206 -2.2216
 8484TIP3   OH246866   3.187   0.017  14.398  0.0957 -0.2387 -0.5439
 8484TIP3    H146867   3.228   0.047  14.317 -0.0795  1.0530 -0.1668
 8484TIP3    H246868   3.094   0.039  14.388  0.1362  0.2749  0.1583
 8485TIP3   OH246869   2.943   3.280  14.511 -0.4479 -0.0803 -0.5197
 8485TIP3    H146870   3.018   3.339  14.518 -0.5379 -0.0670  0.3198
 8485TIP3    H246871   2.914   3.290  14.420 -0.9554  1.7522 -0.1709
 8486TIP3   OH246872   4.222   7.213   0.989 -0.3593 -0.0897 -0.1179
 8486TIP3    H146873   4.250   7.240   1.076 -1.0233 -1.5857  0.5631
 8486TIP3    H246874   4.286   7.148   0.962 -0.6001 -0.1941 -0.4378
 8487TIP3   OH246875   1.944   3.766  14.161 -0.0580  0.1383  0.9164
 8487TIP3    H146876   2.008   3.804  14.220 -0.8063 -0.3256  2.0300
 8487TIP3    H246877   1.859   3.791  14.198 -0.5377 -0.1229  0.0182
 8488TIP3   OH246878   3.882   3.545  12.903  0.3343  0.2240 -0.0768
 8488TIP3    H146879   3.837   3.561  12.820 -1.0778  1.2800  0.8767
 8488TIP3    H246880   3.866   3.624  12.955  3.1629  0.5735  0.3612
 8489TIP3   OH246881   3.146   6.937   1.240 -0.5365 -0.0181 -0.0272
 8489TIP3    H146882   3.207   6.886   1.293 -0.6383 -0.0156  0.0914
 8489TIP3    H246883   3.202   6.983   1.177 -0.3984  0.1233  0.1974
 8490TIP3   OH246884   1.323   2.633   3.160 -0.3550 -0.0116 -0.0666
 8490TIP3    H146885   1.372   2.554   3.134 -0.4244  0.5759 -2.0468
 8490TIP3    H246886   1.381   2.676   3.223  0.2854 -0.9518  0.0102
 8491TIP3   OH246887   2.832   4.942  12.999 -0.2366 -0.6956  0.0386
 8491TIP3    H146888   2.786   4.941  12.916 -0.8549  1.9438  0.3138
 8491TIP3    H246889   2.906   5.001  12.985 -0.9606  0.6327  1.6500
 8492TIP3   OH246890   4.984   5.018  14.331  0.1201  0.4774 -0.1124
 8492TIP3    H146891   5.053   5.020  14.397  0.9225  0.8954 -0.9619
 8492TIP3    H246892   4.903   5.031  14.380  0.7436  1.1300  0.7434
 8493TIP3   OH246893   4.567   6.685   1.712 -0.0088 -0.0255  0.1845
 8493TIP3    H146894   4.597   6.776   1.705  1.0810 -0.4929 -1.6245
 8493TIP3    H246895   4.645   6.636   1.739 -0.5871 -0.4181  1.1508
 8494TIP3   OH246896   3.820   6.463  13.901 -0.1732  0.0852 -0.3464
 8494TIP3    H146897   3.740   6.514  13.906 -0.9181 -1.2335  1.5072
 8494TIP3    H246898   3.798   6.378  13.939  2.2506 -0.1064  0.7423
 8495TIP3   OH246899   5.496   6.411  13.875 -0.1860  0.0072 -0.3460
 8495TIP3    H146900   5.580   6.371  13.855  0.2954  1.0333 -0.3927
 8495TIP3    H246901   5.456   6.427  13.789 -1.7538 -3.2052 -0.2941
 8496TIP3   OH246902   0.348   4.901  12.444 -0.0077 -0.1451  0.0305
 8496TIP3    H146903   0.308   4.988  12.446 -2.9782 -1.4490  0.3714
 8496TIP3    H246904   0.336   4.872  12.354 -0.4464 -0.8304  0.3118
 8497TIP3   OH246905   3.885   4.612  15.297  0.4327 -0.1626 -0.1556
 8497TIP3    H146906   3.887   4.517  15.300 -2.4400 -0.2655  0.4853
 8497TIP3    H246907   3.922   4.641  15.380 -0.2370 -0.7794  0.3596
 8498TIP3   OH246908   4.253   6.919  15.512  0.1534 -0.3873  0.5486
 8498TIP3    H146909   4.308   6.903  15.435  1.0747  0.2824  1.0540
 8498TIP3    H246910   4.225   6.832  15.541  0.7547 -0.7191  0.1426
 8499TIP3   OH246911   3.478   3.654  14.662 -0.1030  0.6038 -0.0180
 8499TIP3    H146912   3.535   3.710  14.611 -1.2734  1.4107 -0.4575
 8499TIP3    H246913   3.448   3.587  14.601  1.8060 -0.9090  0.6640
 8500TIP3   OH246914   4.259   5.706  13.820  0.2349 -0.7203 -0.1676
 8500TIP3    H146915   4.314   5.688  13.744 -0.2714 -1.9505 -0.2456
 8500TIP3    H246916   4.297   5.654  13.891 -0.3475 -0.9425 -0.0194
 8501TIP3   OH246917   4.784   2.322  15.919  0.2615 -0.2405  0.1682
 8501TIP3    H146918   4.812   2.409  15.946  0.9131 -0.1445 -0.7703
 8501TIP3    H246919   4.805   2.265  15.994  0.9770  0.2001  0.3056
 8502TIP3   OH246920   5.317   4.229  15.726  0.1137 -0.2326 -0.4110
 8502TIP3    H146921   5.316   4.291  15.653 -1.2956 -0.4715 -0.6013
 8502TIP3    H246922   5.310   4.284  15.804  0.5620 -0.0469 -0.4999
 8503TIP3   OH246923   0.542   6.405  13.244  0.1641 -0.0162  0.0009
 8503TIP3    H146924   0.463   6.364  13.209  1.0582 -1.3109 -0.5523
 8503TIP3    H246925   0.523   6.499  13.245 -1.3649 -0.3226 -0.1332
 8504TIP3   OH246926   5.335   1.462  13.173 -0.2441 -0.8329 -0.0557
 8504TIP3    H146927   5.368   1.381  13.213  2.3611  0.6885  0.9958
 8504TIP3    H246928   5.278   1.500  13.240  0.2834 -0.7197  0.3379
 8505TIP3   OH246929   1.376   0.357   1.058 -0.2712 -0.2466 -0.4095
 8505TIP3    H146930   1.412   0.412   0.989 -0.4711 -0.0449 -0.3541
 8505TIP3    H246931   1.402   0.401   1.139 -0.1278 -0.4246 -0.3593
 8506TIP3   OH246932   3.843   4.097  15.644  0.5482 -0.3833  0.3592
 8506TIP3    H146933   3.910   4.119  15.709  2.5663 -0.2730 -1.7173
 8506TIP3    H246934   3.838   4.002  15.646  0.1205 -0.3528  1.1313
 8507TIP3   OH246935   2.866   4.248  13.130 -0.1268  0.0415  0.2770
 8507TIP3    H146936   2.884   4.328  13.081  2.1862  0.1593  1.2348
 8507TIP3    H246937   2.951   4.203  13.134 -0.5779 -0.6728  2.8946
 8508TIP3   OH246938   4.433   3.487  12.051 -0.1768  0.7897 -0.0374
 8508TIP3    H146939   4.440   3.554  12.119 -0.0974  1.2279 -0.4801
 8508TIP3    H246940   4.339   3.471  12.042 -0.1008 -0.7048  1.5819
 8509TIP3   OH246941   0.614   5.041  14.878 -0.5522 -0.0905  0.5010
 8509TIP3    H146942   0.612   5.133  14.853 -0.8537  0.4069  2.2711
 8509TIP3    H246943   0.524   5.011  14.867 -0.2379 -0.4768 -1.1099
 8510TIP3   OH246944   6.534   6.333  10.938  0.4897  0.0077  0.0415
 8510TIP3    H146945   6.458   6.290  10.976  0.6899 -0.1398  0.2772
 8510TIP3    H246946   6.545   6.291  10.852 -0.7315  1.2285 -0.7438
 8511TIP3   OH246947   5.312   4.813  14.782  0.5279 -0.2260  0.0942
 8511TIP3    H146948   5.404   4.806  14.758  0.0771  0.9596 -2.1306
 8511TIP3    H246949   5.281   4.722  14.787  1.6493 -0.6064  0.2175
 8512TIP3   OH246950   3.888   3.188  12.633  0.5287 -0.0066  0.1303
 8512TIP3    H146951   3.810   3.136  12.613  1.1725 -0.5849 -0.9254
 8512TIP3    H246952   3.908   3.166  12.724  0.6723 -1.4857 -0.2364
 8513TIP3   OH246953   5.260   5.030  15.367 -0.1229 -0.1302  0.0089
 8513TIP3    H146954   5.169   5.013  15.344  0.2550 -0.5758 -1.2428
 8513TIP3    H246955   5.292   5.087  15.297  0.4454  0.3479  0.6502
 8514TIP3   OH246956   3.223   3.122  15.526 -0.9728  0.3649  1.1481
 8514TIP3    H146957   3.297   3.114  15.465 -0.1900 -0.9515  2.2475
 8514TIP3    H246958   3.146   3.126  15.470 -0.2667 -0.8356  0.0724
 8515TIP3   OH246959   3.368   2.181  13.255 -0.2491 -0.1909 -0.3415
 8515TIP3    H146960   3.305   2.179  13.183  0.0098 -0.3641 -0.5650
 8515TIP3    H246961   3.356   2.097  13.300 -1.4595  0.5310  0.7263
 8516TIP3   OH246962   6.736   4.282  11.648  0.0442 -0.0992  0.0987
 8516TIP3    H146963   6.693   4.349  11.701 -0.0866 -0.2394  0.1717
 8516TIP3    H246964   6.793   4.236  11.710  0.5399  0.2890 -0.0661
 8517TIP3   OH246965   5.590   5.483   1.837  0.8314  0.0840  0.8379
 8517TIP3    H146966   5.630   5.565   1.809  1.8944 -0.5379  0.4935
 8517TIP3    H246967   5.497   5.493   1.817  0.8614  1.4231  1.3341
 8518TIP3   OH246968   6.072   2.842  10.845  0.0530 -0.1913  0.6187
 8518TIP3    H146969   5.979   2.850  10.863 -0.3573 -1.1314 -1.0310
 8518TIP3    H246970   6.086   2.894  10.766  0.7015 -1.0135  0.1786
 8519TIP3   OH246971   4.665   2.298   1.850  0.6885  0.0442 -0.2723
 8519TIP3    H146972   4.575   2.306   1.881  0.5343 -0.3737 -0.6179
 8519TIP3    H246973   4.662   2.232   1.782  1.1773  0.3799 -0.6243
 8520TIP3   OH246974   6.517   7.082  10.831 -1.0468 -0.7438  0.3062
 8520TIP3    H146975   6.441   7.063  10.886 -1.8097 -0.8600 -0.7762
 8520TIP3    H246976   6.584   7.113  10.892 -2.2692  0.2457  1.1496
 8521TIP3   OH246977   6.340   3.334  12.326 -0.6981  0.5573  0.4692
 8521TIP3    H146978   6.282   3.409  12.317 -0.5030  0.9665  2.4614
 8521TIP3    H246979   6.324   3.301  12.414 -0.0080 -1.0956  0.0006
 8522TIP3   OH246980   6.473   2.809  11.806 -0.1609 -0.3728 -0.3668
 8522TIP3    H146981   6.536   2.866  11.762  0.4854 -0.3704  0.5495
 8522TIP3    H246982   6.399   2.867  11.827 -1.1075 -0.6723 -2.6871
 8523TIP3   OH246983   5.781   3.494   1.924 -0.1877  0.3422  0.2846
 8523TIP3    H146984   5.714   3.470   1.988  0.9023 -0.2534  1.2175
 8523TIP3    H246985   5.732   3.535   1.853 -1.7339 -1.7281  0.1069
 8524TIP3   OH246986   0.229   5.638  14.339 -0.2100  0.2436  0.0669
 8524TIP3    H146987   0.185   5.557  14.315 -1.2745  0.0245  2.5907
 8524TIP3    H246988   0.209   5.698  14.268 -0.3159 -1.3799 -1.2932
 8525TIP3   OH246989   6.311   5.958  15.495 -0.1306  0.0176 -0.2587
 8525TIP3    H146990   6.353   6.020  15.436 -1.8055  1.3087 -0.1296
 8525TIP3    H246991   6.276   6.012  15.566 -2.7322 -0.9041 -0.7754
 8526TIP3   OH246992   5.621   4.603  14.525 -0.2428  0.2152  0.6295
 8526TIP3    H146993   5.571   4.580  14.447 -1.7804  0.3138  1.5558
 8526TIP3    H246994   5.660   4.521  14.554 -0.7273 -0.0712  0.4820
 8527TIP3   OH246995   5.952   4.177  13.293 -0.0429  0.3717  0.6238
 8527TIP3    H146996   5.977   4.240  13.360  1.1788 -1.4686  1.9820
 8527TIP3    H246997   5.954   4.092  13.338  1.2055 -0.9778 -1.8185
 8528TIP3   OH246998   4.408   1.641  13.722  0.2637 -0.5004 -0.0857
 8528TIP3    H146999   4.433   1.649  13.814  1.3039  1.0586 -0.4925
 8528TIP3    H247000   4.469   1.577  13.686  0.2200 -0.6873  0.1673
 8529TIP3   OH247001   2.378   4.004  14.259 -0.9967 -0.1565 -0.0756
 8529TIP3    H147002   2.433   3.971  14.188  0.8360 -0.8547  1.6220
 8529TIP3    H247003   2.397   4.098  14.262  0.0876 -0.3824  0.4636
 8530TIP3   OH247004   6.982   4.004  13.113 -0.0836 -0.2723  0.4372
 8530TIP3    H147005   6.999   3.968  13.200  1.4919  0.1349  0.3180
 8530TIP3    H247006   6.989   3.930  13.054 -1.3961 -0.5968  0.6555
 8531TIP3   OH247007   0.144   4.988  15.593 -0.5240  0.5010  0.3775
 8531TIP3    H147008   0.057   4.951  15.606  0.2262 -1.0030  1.1676
 8531TIP3    H247009   0.199   4.914  15.569  0.2644  1.6493 -1.5587
 8532TIP3   OH247010   7.172   0.102  11.811 -0.5819 -0.2910  0.0706
 8532TIP3    H147011   7.190   0.087  11.904 -0.7269  0.3779  0.2112
 8532TIP3    H247012   7.134   0.020  11.781  0.1920 -0.7884  0.4116
 8533TIP3   OH247013   5.884   5.859  14.523  0.3971 -0.2535  0.6283
 8533TIP3    H147014   5.972   5.851  14.486  0.0757 -0.4101 -0.1122
 8533TIP3    H247015   5.898   5.865  14.618  1.2691  0.9239  0.4288
 8534TIP3   OH247016   4.064   6.466   0.456 -0.0726  0.0541 -0.4031
 8534TIP3    H147017   3.972   6.451   0.434 -1.2452  2.8414  2.4189
 8534TIP3    H247018   4.079   6.558   0.437  2.1005 -0.2865 -0.5019
 8535TIP3   OH247019   3.813   5.223  12.829  0.3778 -0.1914  0.0541
 8535TIP3    H147020   3.776   5.311  12.843 -1.5703 -1.1081  0.8205
 8535TIP3    H247021   3.827   5.218  12.734 -1.4715  0.2091 -0.2635
 8536TIP3   OH247022   5.849   0.600  15.523 -0.0467 -0.0882  0.1687
 8536TIP3    H147023   5.756   0.610  15.505  0.3511  2.2328 -0.7614
 8536TIP3    H247024   5.873   0.678  15.573  1.8987  0.5844 -1.7301
 8537TIP3   OH247025   4.343   6.928   0.209 -0.0152 -0.2323  0.3600
 8537TIP3    H147026   4.319   6.991   0.142  1.2207  1.2848  1.3035
 8537TIP3    H247027   4.437   6.915   0.198 -0.0287 -0.9364  0.9929
 8538TIP3   OH247028   3.117   3.556  15.464 -0.0282  0.1790  0.1946
 8538TIP3    H147029   3.105   3.650  15.449 -1.1450 -0.1106 -0.7815
 8538TIP3    H247030   3.211   3.542  15.453  0.4524  1.5227  2.3424
 8539TIP3   OH247031   2.240   3.562   1.059 -0.3846 -0.0895 -0.6421
 8539TIP3    H147032   2.216   3.475   1.090 -0.6744  0.0416 -0.4947
 8539TIP3    H247033   2.157   3.608   1.049 -0.3186 -0.2199 -1.9018
 8540TIP3   OH247034   4.797   6.600  13.835 -0.0357 -0.0314  0.5805
 8540TIP3    H147035   4.759   6.688  13.829  1.0501  0.5208  1.7863
 8540TIP3    H247036   4.745   6.548  13.773  0.0605  1.7092 -1.0161
 8541TIP3   OH247037   4.707   5.698  14.272 -0.0848  0.6787  0.2602
 8541TIP3    H147038   4.755   5.780  14.260 -1.1171  0.8621 -3.1385
 8541TIP3    H247039   4.624   5.725  14.311  0.1365  1.0705  0.4711
 8542TIP3   OH247040   0.343   3.870  15.877  0.0696 -0.4400 -0.1187
 8542TIP3    H147041   0.276   3.831  15.822  0.3005 -1.3601  0.2438
 8542TIP3    H247042   0.311   3.859  15.966  0.0046  0.4559 -0.0254
 8543TIP3   OH247043   4.390   2.746  10.875  0.0862  0.0005  0.4878
 8543TIP3    H147044   4.463   2.775  10.930  1.0472 -1.1672 -0.1557
 8543TIP3    H247045   4.318   2.733  10.937  1.0053 -0.8173  1.4195
 8544TIP3   OH247046   6.425   4.287  13.729  1.1230 -0.0498 -0.0064
 8544TIP3    H147047   6.460   4.231  13.798  1.0827 -1.2754 -0.9766
 8544TIP3    H247048   6.333   4.262  13.722  1.2167 -0.1974 -0.7713
 8545TIP3   OH247049   2.650   6.814  13.181  0.2581 -0.2552 -0.1734
 8545TIP3    H147050   2.692   6.767  13.108  0.5502 -0.2758  0.0062
 8545TIP3    H247051   2.667   6.907  13.162 -1.4402 -0.1342 -1.2161
 8546TIP3   OH247052   2.540   4.299  14.995  0.6050  0.1814 -0.2117
 8546TIP3    H147053   2.483   4.228  15.025  0.7149  0.1762 -0.0107
 8546TIP3    H247054   2.481   4.364  14.957  0.4438  0.2884  0.2185
 8547TIP3   OH247055   5.100   0.675   0.345  0.1219 -0.3179 -0.2659
 8547TIP3    H147056   5.179   0.726   0.363 -0.0034 -0.5189  0.8302
 8547TIP3    H247057   5.029   0.740   0.346  0.0207 -0.4435  0.6836
 8548TIP3   OH247058   7.254   2.196  15.523  0.0744  0.4156  0.0433
 8548TIP3    H147059   7.242   2.182  15.617  1.8047  0.2771  0.2601
 8548TIP3    H247060   7.275   2.109  15.489  0.5604  0.6553 -0.2792
 8549TIP3   OH247061   5.403   4.870   0.540  0.4001 -0.1104  0.1948
 8549TIP3    H147062   5.423   4.782   0.510  1.7551  0.1983  0.1611
 8549TIP3    H247063   5.426   4.927   0.466  0.9703  0.3927  0.7489
 8550TIP3   OH247064   4.960   3.318  11.916  0.0267 -0.0165 -0.4968
 8550TIP3    H147065   5.020   3.268  11.860  0.1284 -1.2587  0.6908
 8550TIP3    H247066   4.882   3.262  11.923  0.0121  0.1404  0.5840
 8551TIP3   OH247067   4.322   1.467  15.525  0.1629 -0.0117  0.0617
 8551TIP3    H147068   4.252   1.425  15.576 -1.6749  0.9613 -1.5794
 8551TIP3    H247069   4.346   1.401  15.459 -0.6993  0.4085 -0.6890
 8552TIP3   OH247070   3.635   3.584  14.160  0.0157  0.2035 -0.0511
 8552TIP3    H147071   3.587   3.632  14.092 -0.0936  1.1270  0.6721
 8552TIP3    H247072   3.724   3.618  14.155  0.0543  0.1308  0.1422
 8553TIP3   OH247073   1.472   4.064  15.209  0.4086 -0.4775 -0.4594
 8553TIP3    H147074   1.524   4.082  15.132 -0.9743  0.3197 -1.2164
 8553TIP3    H247075   1.381   4.066  15.179 -0.0631 -2.8681  0.6046
 8554TIP3   OH247076   5.704   7.270   0.568  0.2238  0.3641 -0.2211
 8554TIP3    H147077   5.656   7.204   0.617  0.4162 -0.2506 -0.8519
 8554TIP3    H247078   5.794   7.262   0.599  0.4062 -0.2383 -0.8930
 8555TIP3   OH247079   3.987   2.986   0.367  0.4292  0.0653  0.3788
 8555TIP3    H147080   3.962   3.077   0.355 -0.6469 -0.4298 -1.3095
 8555TIP3    H247081   4.039   2.986   0.448 -0.8726  1.9118  1.2635
 8556TIP3   OH247082   4.639   3.738  12.547  0.2730  0.3868  0.1258
 8556TIP3    H147083   4.645   3.657  12.599 -1.1884 -0.8728 -1.6019
 8556TIP3    H247084   4.728   3.772  12.545  0.8899 -1.1372  0.9723
 8557TIP3   OH247085   2.714   1.059  14.925 -0.3518 -1.0471 -0.6435
 8557TIP3    H147086   2.791   1.086  14.976 -0.1565  0.2348 -1.5905
 8557TIP3    H247087   2.746   0.990  14.867 -0.5134 -2.3235  0.7532
 8558TIP3   OH247088   3.595   4.399  11.058 -0.2008  0.1667  0.5511
 8558TIP3    H147089   3.546   4.378  10.978  1.2029 -1.9451  0.1990
 8558TIP3    H247090   3.583   4.493  11.069 -0.9886  0.3772 -1.7752
 8559TIP3   OH247091   3.617   4.509  13.504 -0.1895 -0.2358  0.1526
 8559TIP3    H147092   3.669   4.589  13.500  1.5902 -1.4547 -1.8914
 8559TIP3    H247093   3.529   4.537  13.477  0.5309  0.9246 -1.0575
 8560TIP3   OH247094   3.177   2.924  11.424 -0.0938 -0.5458 -0.0642
 8560TIP3    H147095   3.222   2.923  11.339  0.4155  0.9685  0.1836
 8560TIP3    H247096   3.177   2.832  11.451  2.0360 -0.7135 -0.5161
 8561TIP3   OH247097   5.578   3.921   1.875  0.1612  0.3054 -0.3596
 8561TIP3    H147098   5.554   3.875   1.956 -0.1361  1.3117  0.1378
 8561TIP3    H247099   5.638   3.990   1.904  1.3078 -0.3271 -1.2120
 8562TIP3   OH247100   2.286   7.234  15.814 -0.4185 -0.0617 -0.2243
 8562TIP3    H147101   2.315   7.324  15.831  0.4833 -0.2736 -0.5747
 8562TIP3    H247102   2.225   7.214  15.884 -0.9626  0.9782 -0.3908
 8563TIP3   OH247103   5.600   4.151  13.501 -0.4587  0.5167  0.2871
 8563TIP3    H147104   5.681   4.127  13.546  0.9170  0.1045 -2.3222
 8563TIP3    H247105   5.536   4.086  13.532  0.1739  0.8308  2.3495
 8564TIP3   OH247106   5.622   6.855  14.495 -0.3849 -0.0455 -0.5343
 8564TIP3    H147107   5.558   6.860  14.424 -0.4157 -2.0315 -0.6598
 8564TIP3    H247108   5.624   6.944  14.531 -3.3064  0.0517 -0.4408
 8565TIP3   OH247109   5.569   0.681  15.209 -0.1976 -0.2613  0.2115
 8565TIP3    H147110   5.586   0.751  15.272 -0.3071  0.0912 -0.1422
 8565TIP3    H247111   5.571   0.725  15.124 -2.4028 -0.2932  0.1194
 8566TIP3   OH247112   3.591   3.251  14.386  0.2783  0.2626  0.3688
 8566TIP3    H147113   3.635   3.291  14.461  0.1226 -0.0055  0.6013
 8566TIP3    H247114   3.577   3.160  14.412  1.9578 -0.3334 -0.7216
 8567TIP3   OH247115   5.931   4.365  12.863  0.4523 -0.0087 -0.0967
 8567TIP3    H147116   5.939   4.305  12.938  0.1613  1.0917  0.8242
 8567TIP3    H247117   6.020   4.373  12.829  0.8994  0.8492  1.2158
 8568TIP3   OH247118   6.737   2.487  15.601 -0.3433  0.5531  0.3740
 8568TIP3    H147119   6.755   2.408  15.551 -1.3421  1.1006 -0.8519
 8568TIP3    H247120   6.818   2.538  15.594  0.0423 -0.0276  0.5597
 8569TIP3   OH247121   4.750   4.762  15.565 -0.3164 -0.4099 -0.0268
 8569TIP3    H147122   4.761   4.744  15.472  0.1484  0.2256 -0.1039
 8569TIP3    H247123   4.828   4.725  15.606  0.8838  1.8264 -0.2467
 8570TIP3   OH247124   7.206   4.771  14.780  0.1528 -0.0807  0.1161
 8570TIP3    H147125   7.141   4.749  14.714 -1.4208 -0.1553  1.6611
 8570TIP3    H247126   7.162   4.757  14.864  2.2423 -0.3944  1.2047
 8571TIP3   OH247127   3.807   2.346  12.466 -0.9136  0.1212 -0.1563
 8571TIP3    H147128   3.842   2.430  12.437 -1.5336  0.4186 -0.0603
 8571TIP3    H247129   3.736   2.369  12.526 -0.1448 -0.4763  1.0160
 8572TIP3   OH247130   6.642   1.713  11.894 -0.3161  0.0894 -0.2225
 8572TIP3    H147131   6.714   1.766  11.859 -2.1249  1.7176 -1.5833
 8572TIP3    H247132   6.619   1.755  11.977 -0.6019  0.4064 -0.4594
 8573TIP3   OH247133   3.067   4.240  12.738  0.5015 -0.2687  0.1169
 8573TIP3    H147134   3.085   4.217  12.647  0.4918 -0.8533  0.2655
 8573TIP3    H247135   3.080   4.159  12.787  0.7346  0.0962  0.6672
 8574TIP3   OH247136   0.679   6.160  14.795  0.3686 -0.5844  0.0006
 8574TIP3    H147137   0.722   6.110  14.864 -0.9115  0.3986  1.5474
 8574TIP3    H247138   0.692   6.252  14.819 -0.0355 -0.2300 -1.0874
 8575TIP3   OH247139   2.859   6.530   4.051  0.0862  0.3973 -0.5207
 8575TIP3    H147140   2.870   6.486   3.967 -1.3489 -0.4005 -0.3079
 8575TIP3    H247141   2.805   6.606   4.031 -0.5793 -0.0004 -0.2777
 8576TIP3   OH247142   5.452   1.813  14.423  0.2443  0.7705  0.0335
 8576TIP3    H147143   5.515   1.808  14.351  0.8187 -2.0914  0.6841
 8576TIP3    H247144   5.368   1.830  14.381  0.6028 -0.7152 -1.3000
 8577TIP3   OH247145   4.211   5.302  13.200  0.3252 -0.4108  0.1685
 8577TIP3    H147146   4.286   5.245  13.213  1.1202 -0.0026 -2.3098
 8577TIP3    H247147   4.239   5.387  13.235 -0.2673 -1.0906  2.3682
 8578TIP3   OH247148   3.691   3.716  12.419 -0.5363  0.7349 -0.3003
 8578TIP3    H147149   3.669   3.698  12.328 -3.9678  0.8440  0.4408
 8578TIP3    H247150   3.678   3.811  12.429 -0.3668  0.6948  0.3318
 8579TIP3   OH247151   0.076   1.614  15.972  0.2531 -0.0798  0.7233
 8579TIP3    H147152   0.057   1.543  16.033 -1.5346  1.6224  2.2039
 8579TIP3    H247153   0.115   1.683  16.026  1.4445  0.3095 -0.5877
 8580TIP3   OH247154   5.145   3.371  13.250  0.1961  0.0367  0.9038
 8580TIP3    H147155   5.051   3.368  13.232  0.6212 -0.7340 -1.3997
 8580TIP3    H247156   5.152   3.362  13.345 -2.1037  1.2241  1.2268
 8581TIP3   OH247157   3.968   4.750  15.528 -0.1845 -0.4249  0.2184
 8581TIP3    H147158   3.990   4.843  15.541  0.3120 -0.6186  0.8210
 8581TIP3    H247159   4.032   4.703  15.583 -2.3755 -1.0013  2.3783
 8582TIP3   OH247160   2.540   0.464  13.355  0.6128 -0.3731 -0.3500
 8582TIP3    H147161   2.486   0.456  13.434 -0.7330  0.8842 -1.1221
 8582TIP3    H247162   2.630   0.461  13.387  0.0834  0.1593  1.2322
 8583TIP3   OH247163   5.715   3.805   1.228  0.1624  0.6052 -0.0352
 8583TIP3    H147164   5.679   3.836   1.311 -1.1738 -1.3714  0.1480
 8583TIP3    H247165   5.760   3.724   1.250 -0.0059  0.1875 -1.2126
 8584TIP3   OH247166   4.563   6.548  12.312 -0.7210  0.3734 -0.4962
 8584TIP3    H147167   4.593   6.515  12.397  0.5356  0.7190 -0.7977
 8584TIP3    H247168   4.467   6.541  12.316 -0.6628  0.2250  0.8756
 8585TIP3   OH247169   5.776   5.444  13.681 -0.6549  0.1118 -0.3032
 8585TIP3    H147170   5.735   5.522  13.644  0.6063  1.0148  0.1596
 8585TIP3    H247171   5.759   5.451  13.775 -0.0424  0.1321 -0.1942
 8586TIP3   OH247172   4.114   4.777  15.233  0.0928  0.0532  0.6414
 8586TIP3    H147173   4.106   4.862  15.277  0.0879 -1.0888  2.9428
 8586TIP3    H247174   4.035   4.730  15.259  0.3445 -0.8410 -0.2084
 8587TIP3   OH247175   6.555   4.241  12.244  0.0180 -0.4333  0.1963
 8587TIP3    H147176   6.648   4.224  12.236 -0.2580 -0.6614 -3.1158
 8587TIP3    H247177   6.549   4.307  12.313  2.7552  0.6874 -0.5670
 8588TIP3   OH247178   5.496   3.461  12.817 -0.1305 -0.2991 -0.6177
 8588TIP3    H147179   5.461   3.430  12.901 -1.2236  0.0176 -0.9581
 8588TIP3    H247180   5.507   3.381  12.765 -3.5826 -0.1194 -1.7350
 8589TIP3   OH247181   2.577   4.594  15.593 -0.4146  0.4533 -0.1133
 8589TIP3    H147182   2.612   4.665  15.647 -2.1910  0.6345  0.8478
 8589TIP3    H247183   2.634   4.519  15.612  1.2023  1.4848 -0.8077
 8590TIP3   OH247184   4.311   2.889   0.735 -0.0510 -0.2456  0.1470
 8590TIP3    H147185   4.396   2.863   0.770  0.4268  1.0279 -0.0477
 8590TIP3    H247186   4.330   2.924   0.648 -0.8082 -0.1703  0.0039
 8591TIP3   OH247187   4.689   3.062  14.031  0.0487  0.3176 -0.0265
 8591TIP3    H147188   4.752   3.053  13.960  0.5607  1.7846  0.2365
 8591TIP3    H247189   4.717   2.998  14.096  0.7420  0.3412 -0.2975
 8592TIP3   OH247190   6.267   0.420  13.695  0.4093 -0.5559 -0.0443
 8592TIP3    H147191   6.211   0.343  13.686 -1.4136  0.6764  0.4090
 8592TIP3    H247192   6.310   0.408  13.779 -1.0952 -0.3455  0.7877
 8593TIP3   OH247193   0.617   4.117  15.385 -0.5490  0.3335 -0.2272
 8593TIP3    H147194   0.617   4.074  15.471  0.9251 -0.4031 -0.5737
 8593TIP3    H247195   0.677   4.191  15.395  1.3365 -1.0245 -1.2049
 8594TIP3   OH247196   2.738   0.026   0.950 -0.2190 -0.0962  0.0660
 8594TIP3    H147197   2.755  -0.052   1.002  0.0554  0.7380  1.2270
 8594TIP3    H247198   2.656   0.006   0.904  0.8620 -1.8346 -1.1580
 8595TIP3   OH247199   3.455   5.218  12.397 -0.1141 -0.0016  0.1531
 8595TIP3    H147200   3.487   5.260  12.476 -0.3616  2.5532 -1.0777
 8595TIP3    H247201   3.528   5.163  12.367  0.5727  0.3477  1.1891
 8596TIP3   OH247202   5.521   6.236  14.567  0.1727 -0.4846  0.0599
 8596TIP3    H147203   5.511   6.320  14.611  2.9149 -0.9671  1.7138
 8596TIP3    H247204   5.559   6.178  14.634  0.4051 -2.4241 -1.7040
 8597TIP3   OH247205   1.813   2.540  11.173 -0.8029 -0.5887  0.8843
 8597TIP3    H147206   1.755   2.466  11.190 -0.5232 -1.4248 -1.5786
 8597TIP3    H247207   1.826   2.539  11.078  0.8809  1.3691  1.0554
 8598TIP3   OH247208   3.922   3.397  12.498  1.2626  0.2101  0.8984
 8598TIP3    H147209   3.857   3.445  12.550  1.6845  1.2905  0.4258
 8598TIP3    H247210   3.904   3.305  12.518 -0.5335  0.4853  0.6310
 8599TIP3   OH247211   1.152   1.296   2.970  0.1885 -0.1608  0.0083
 8599TIP3    H147212   1.092   1.352   2.921 -2.4918 -2.6221  0.3426
 8599TIP3    H247213   1.159   1.337   3.056 -0.6828  0.3766 -0.1723
 8600TIP3   OH247214   5.048   4.576  13.584 -0.2605 -0.3530  0.1967
 8600TIP3    H147215   4.992   4.499  13.587  0.2402 -0.6786  1.8765
 8600TIP3    H247216   5.108   4.559  13.511 -0.6413 -1.1948  0.0693
 8601TIP3   OH247217   5.758   0.836  13.318 -0.5563  0.0988 -0.2941
 8601TIP3    H147218   5.770   0.807  13.408 -0.1238 -1.2719 -0.7718
 8601TIP3    H247219   5.838   0.883  13.297 -0.3100 -0.2836 -0.2194
 8602TIP3   OH247220   4.706   4.533  15.892 -0.0408  0.3748 -0.1658
 8602TIP3    H147221   4.743   4.573  15.814  1.0630  2.3241  1.2963
 8602TIP3    H247222   4.636   4.592  15.919 -0.3772 -0.2528  0.3412
 8603TIP3   OH247223   5.761   4.275   0.262  0.1236  0.5904 -0.1396
 8603TIP3    H147224   5.754   4.348   0.201 -0.1463  1.6932  1.1805
 8603TIP3    H247225   5.819   4.212   0.219  0.2407  1.5199 -1.3509
 8604TIP3   OH247226   6.421   6.102  11.437  0.1972 -0.1207  0.1236
 8604TIP3    H147227   6.338   6.115  11.391  0.0414  0.7338  0.6496
 8604TIP3    H247228   6.458   6.023  11.397 -0.1870  0.3126 -1.1056
 8605TIP3   OH247229   1.353   4.612  11.393 -0.7714  0.9563 -0.3701
 8605TIP3    H147230   1.387   4.596  11.305  1.7660 -1.7498  0.9751
 8605TIP3    H247231   1.416   4.672  11.433  0.5748 -1.2162  0.9376
 8606TIP3   OH247232   5.638   6.405  11.671  0.5024 -0.1544  0.3077
 8606TIP3    H147233   5.576   6.428  11.740 -0.2526 -1.0968 -0.0377
 8606TIP3    H247234   5.627   6.310  11.660 -0.5711  0.2314 -2.2509
 8607TIP3   OH247235   5.717   6.705  13.690  0.3064 -0.1953  0.3594
 8607TIP3    H147236   5.701   6.628  13.745  1.8027  0.2497  1.4607
 8607TIP3    H247237   5.757   6.669  13.610  1.5363 -0.5163  1.1124
 8608TIP3   OH247238   0.334   2.175  14.842  0.3767  0.6159  0.2373
 8608TIP3    H147239   0.427   2.191  14.858  0.3556  1.7477 -0.6695
 8608TIP3    H247240   0.329   2.159  14.747 -0.2186 -0.4422  0.4401
 8609TIP3   OH247241   4.763   3.906   3.440  0.0464  0.2346  0.2395
 8609TIP3    H147242   4.775   3.982   3.383  1.3637  0.1395  0.3613
 8609TIP3    H247243   4.728   3.942   3.521  3.4707  1.1787  1.3916
 8610TIP3   OH247244   5.415   5.045  12.072  0.0823  0.1592  0.3370
 8610TIP3    H147245   5.327   5.009  12.085  0.5049 -1.2572 -0.6152
 8610TIP3    H247246   5.424   5.111  12.140 -1.9206  0.6774  0.1315
 8611TIP3   OH247247   4.371   5.695  12.808  0.6843 -0.0125 -0.2387
 8611TIP3    H147248   4.290   5.693  12.859  1.1422  1.8677  0.5879
 8611TIP3    H247249   4.431   5.638  12.856 -0.1569 -1.4950 -0.9120
 8612TIP3   OH247250   5.390   6.545  15.563 -0.1495  0.0073 -0.4670
 8612TIP3    H147251   5.463   6.607  15.562 -0.4998  0.4161 -0.9709
 8612TIP3    H247252   5.432   6.459  15.567  0.3234  0.3051  1.3045
 8613TIP3   OH247253   3.219   3.429  13.629  0.2939 -0.2344 -0.4272
 8613TIP3    H147254   3.303   3.477  13.634 -0.4678  1.1762 -0.9003
 8613TIP3    H247255   3.244   3.339  13.608  1.8272 -0.2564  1.2960
 8614TIP3   OH247256   3.346   6.627  14.643 -0.2079 -0.1960 -0.4700
 8614TIP3    H147257   3.271   6.569  14.630 -0.5027 -0.2535  1.3052
 8614TIP3    H247258   3.309   6.708  14.677  0.4569  0.0362 -0.2804
 8615TIP3   OH247259   3.243   2.079  11.019 -0.1632  0.0237 -0.0657
 8615TIP3    H147260   3.218   2.001  10.970  1.3502 -0.5372  0.0326
 8615TIP3    H247261   3.335   2.094  10.995 -0.1194  1.1404  0.7594
 8616TIP3   OH247262   0.348   0.020  14.302  0.4340 -0.2994  0.0011
 8616TIP3    H147263   0.317  -0.006  14.215  1.1578 -0.6333 -0.1642
 8616TIP3    H247264   0.435  -0.019  14.308  0.2845 -0.4742  0.9708
 8617TIP3   OH247265   7.095   3.805  12.274 -0.4261 -0.2357 -0.3003
 8617TIP3    H147266   7.170   3.749  12.253  0.1328 -0.4432  2.1496
 8617TIP3    H247267   7.133   3.893  12.284  0.0391 -0.7917  3.7386
 8618TIP3   OH247268   1.060   5.556  12.794  0.7666 -0.3528 -0.2914
 8618TIP3    H147269   1.100   5.542  12.708  0.9630 -2.9463  0.1859
 8618TIP3    H247270   1.111   5.500  12.853  1.3867  2.2618  1.7570
 8619TIP3   OH247271   2.012   5.203  15.638  0.2506  0.2889  0.5124
 8619TIP3    H147272   1.975   5.223  15.724 -0.3901  1.4886 -0.0382
 8619TIP3    H247273   1.990   5.278  15.583  0.4412 -0.5655 -0.7780
 8620TIP3   OH247274   6.471   4.091  13.943 -0.7902  0.3801  0.0675
 8620TIP3    H147275   6.539   4.117  14.005  0.0333 -1.8212  0.1263
 8620TIP3    H247276   6.390   4.095  13.993 -0.3537  0.2853  0.7910
 8621TIP3   OH247277   2.929   0.679   3.425 -0.9341  0.0120  0.6915
 8621TIP3    H147278   2.872   0.640   3.491 -2.2953 -0.4956 -0.7527
 8621TIP3    H247279   2.944   0.769   3.455 -0.9712 -0.4204  2.0275
 8622TIP3   OH247280   4.769   0.204  14.047  0.0276  0.7528 -0.6033
 8622TIP3    H147281   4.755   0.298  14.041 -1.9363  0.4741 -0.5259
 8622TIP3    H247282   4.840   0.195  14.111  0.2979  2.1647 -0.6786
 8623TIP3   OH247283   6.386   2.887  15.250  0.4195 -0.3632  0.3139
 8623TIP3    H147284   6.341   2.829  15.312 -0.6553  0.0115 -0.0912
 8623TIP3    H247285   6.315   2.938  15.210  1.1330 -0.3783 -0.9881
 8624TIP3   OH247286   4.941   5.062   1.212  0.3747 -0.8291  0.1741
 8624TIP3    H147287   5.024   5.074   1.167  0.2107  0.1123  0.1029
 8624TIP3    H247288   4.966   5.046   1.303  0.6070  1.2800  0.5192
 8625TIP3   OH247289   3.348   4.188  10.197  0.0016 -0.2086  0.5417
 8625TIP3    H147290   3.441   4.168  10.208  0.4338  0.3175 -1.8744
 8625TIP3    H247291   3.308   4.105  10.172 -0.1963 -0.4123  1.4816
 8626TIP3   OH247292   4.009   2.522   0.297  0.0577 -0.3066 -0.0916
 8626TIP3    H147293   4.062   2.595   0.265  0.4000 -0.1782  0.7580
 8626TIP3    H247294   4.064   2.480   0.363 -0.6712 -0.5279  0.3816
 8627TIP3   OH247295   2.492   4.273  13.174 -0.3721 -0.0397 -0.1900
 8627TIP3    H147296   2.538   4.228  13.103 -1.1869 -0.1139 -0.6751
 8627TIP3    H247297   2.444   4.203  13.219 -0.3175  0.0991  0.0854
 8628TIP3   OH247298   5.006   3.905  15.090  0.1330 -0.5786 -0.1627
 8628TIP3    H147299   5.086   3.859  15.063 -0.3199 -1.6959  0.3390
 8628TIP3    H247300   4.986   3.869  15.176 -1.4585 -1.0384 -0.6988
 8629TIP3   OH247301   4.030   1.753   1.539  0.1776 -0.2372  0.6499
 8629TIP3    H147302   4.109   1.699   1.550  1.0963  0.5214 -1.7610
 8629TIP3    H247303   3.968   1.696   1.494  0.7155  0.2824 -0.8003
 8630TIP3   OH247304   4.887   5.279  15.804  0.6699  0.9516  0.6319
 8630TIP3    H147305   4.870   5.208  15.742  3.0349  0.8385  0.0930
 8630TIP3    H247306   4.827   5.348  15.778  0.8520  0.4801 -1.0842
 8631TIP3   OH247307   3.513   4.032  14.140  0.0678 -0.3399  0.3372
 8631TIP3    H147308   3.468   3.955  14.106  1.1701 -0.9885  0.3103
 8631TIP3    H247309   3.549   4.075  14.062  0.0169 -0.1592  0.4130
 8632TIP3   OH247310   0.693   0.033  14.234  0.0193  0.5111 -0.6136
 8632TIP3    H147311   0.639   0.036  14.156 -0.8333  2.7122  0.0151
 8632TIP3    H247312   0.782   0.047  14.202 -0.2838  1.0577 -1.2329
 8633TIP3   OH247313   2.831   3.726  13.862  0.3161  0.0105  0.1873
 8633TIP3    H147314   2.749   3.745  13.817 -0.6676 -0.5122  1.7307
 8633TIP3    H247315   2.811   3.653  13.920  1.7263  0.2350  0.9901
 8634TIP3   OH247316   2.835   5.318  13.798 -0.2994  0.4747  0.1358
 8634TIP3    H147317   2.892   5.283  13.730 -0.4960 -0.7505  0.5834
 8634TIP3    H247318   2.769   5.368  13.751 -0.7736 -0.8527 -0.6360
 8635TIP3   OH247319   2.481   3.068  12.473  0.6480  0.0652  0.0839
 8635TIP3    H147320   2.484   3.123  12.552  0.9790  0.3696 -0.1372
 8635TIP3    H247321   2.551   3.102  12.418  1.0855 -0.8172  0.0913
 8636TIP3   OH247322   6.474   1.783  13.943  0.0850 -0.3680 -0.6877
 8636TIP3    H147323   6.462   1.725  14.018 -1.3483 -1.9848 -2.1288
 8636TIP3    H247324   6.466   1.871  13.979  1.6395 -1.0409  1.4235
 8637TIP3   OH247325   6.003   5.015  13.498 -0.3690  0.8704 -0.1217
 8637TIP3    H147326   5.986   5.086  13.437 -1.4079  0.0894 -0.7635
 8637TIP3    H247327   5.918   4.973  13.510  0.5436 -1.2834 -1.0385
 8638TIP3   OH247328   0.314   6.843  14.035 -0.6541  0.6783 -1.1311
 8638TIP3    H147329   0.330   6.760  13.991  1.9672 -0.0123  0.9612
 8638TIP3    H247330   0.222   6.838  14.063 -0.6472 -1.3326 -1.3890
 8639TIP3   OH247331   0.235   3.739  13.843  0.3803  0.2281 -0.0519
 8639TIP3    H147332   0.200   3.688  13.770  0.7885 -1.3601  0.8272
 8639TIP3    H247333   0.330   3.733  13.833  0.4539 -0.7190  1.0615
 8640TIP3   OH247334   5.540   2.925  14.870 -0.3557 -0.1406 -0.8694
 8640TIP3    H147335   5.627   2.965  14.871  0.4186 -1.8222 -0.6461
 8640TIP3    H247336   5.539   2.869  14.793 -1.0914 -0.4924 -0.6132
 8641TIP3   OH247337   1.149   0.754  12.300 -0.1923  0.2768 -0.4850
 8641TIP3    H147338   1.094   0.820  12.343  0.9941  0.6762  0.4188
 8641TIP3    H247339   1.137   0.675  12.353 -1.1604 -0.0819 -1.2304
 8642TIP3   OH247340   4.261   1.349  12.167 -0.0392  0.1027  0.3807
 8642TIP3    H147341   4.306   1.431  12.149  0.3107 -0.0996  0.3086
 8642TIP3    H247342   4.303   1.286  12.109 -0.3370 -0.1148  0.4008
 8643TIP3   OH247343   0.759   5.753  11.800 -0.3087  0.2514  0.3884
 8643TIP3    H147344   0.817   5.827  11.816  0.4090 -0.7800  2.8245
 8643TIP3    H247345   0.717   5.737  11.884 -2.5734 -0.3621 -0.8160
 8644TIP3   OH247346   5.999   2.868   0.237 -0.0645  0.5054  0.2727
 8644TIP3    H147347   6.093   2.880   0.225 -0.0183  0.5905  0.7054
 8644TIP3    H247348   5.966   2.848   0.149  0.3505  0.5111  0.1135
 8645TIP3   OH247349   7.147   6.671   0.823 -0.0912  0.0309 -0.3170
 8645TIP3    H147350   7.074   6.655   0.884  0.4537  0.2917  0.4044
 8645TIP3    H247351   7.124   6.620   0.745 -0.2650 -1.1832  0.5128
 8646TIP3   OH247352   0.267   3.974   1.377 -0.1232  0.0070 -0.3717
 8646TIP3    H147353   0.173   3.961   1.361  0.0831 -0.6575 -1.1171
 8646TIP3    H247354   0.277   3.969   1.472 -1.1662  2.3457 -0.0993
 8647TIP3   OH247355   3.982   5.277  15.284 -0.0310  0.3229 -0.4991
 8647TIP3    H147356   3.910   5.271  15.347  0.5975 -0.2763  0.1617
 8647TIP3    H247357   3.981   5.368  15.255 -1.5583  0.1384 -1.0884
 8648TIP3   OH247358   4.804   3.383  13.388 -0.0037  0.0587  0.4668
 8648TIP3    H147359   4.794   3.389  13.483 -0.8956  1.1375  0.3207
 8648TIP3    H247360   4.729   3.430  13.353  1.2151  1.1632 -0.7617
 8649TIP3   OH247361   0.703   5.188  11.727  0.0239  0.0018 -0.3596
 8649TIP3    H147362   0.732   5.265  11.677 -0.6261 -0.2228 -1.0826
 8649TIP3    H247363   0.665   5.130  11.662 -0.8301 -0.2946  0.3961
 8650TIP3   OH247364   4.197   3.253  14.345  0.2181  0.6715  0.2873
 8650TIP3    H147365   4.231   3.202  14.271  0.5287  0.7592  0.3688
 8650TIP3    H247366   4.270   3.310  14.370  0.0418  0.7923  0.5251
 8651TIP3   OH247367   4.459   4.679  14.534 -0.4726 -0.0103 -0.5306
 8651TIP3    H147368   4.422   4.748  14.589 -0.0377  0.2158 -0.5269
 8651TIP3    H247369   4.441   4.598  14.582 -1.6814  0.0265 -0.9058
 8652TIP3   OH247370   7.273   4.258  13.091 -0.2496  0.0594  0.4531
 8652TIP3    H147371   7.297   4.340  13.049 -0.0875 -0.5165 -0.5905
 8652TIP3    H247372   7.275   4.193  13.021  1.5533 -1.2162  1.6406
 8653TIP3   OH247373   6.621   6.094  14.976 -0.5551  0.4120 -0.1047
 8653TIP3    H147374   6.554   6.031  14.948 -0.0841  0.1194 -0.6041
 8653TIP3    H247375   6.579   6.147  15.043 -1.3287  0.3200 -0.5153
 8654TIP3   OH247376   5.215   2.727  13.901 -0.1186 -0.4329 -0.2300
 8654TIP3    H147377   5.167   2.734  13.983  1.3304  2.4436  0.4299
 8654TIP3    H247378   5.153   2.757  13.835 -0.2754  0.2387  0.2157
 8655TIP3   OH247379   6.136   2.510  15.302 -0.8483  0.6862  0.2190
 8655TIP3    H147380   6.054   2.511  15.253  0.0261  0.3847 -1.2600
 8655TIP3    H247381   6.176   2.426  15.279  0.6105  1.5138 -0.2928
 8656TIP3   OH247382   3.837   4.837  15.090  0.1772 -0.1475 -0.3042
 8656TIP3    H147383   3.836   4.755  15.139  1.7900 -0.5752 -0.9787
 8656TIP3    H247384   3.826   4.905  15.157 -0.1397 -0.8454  0.3607
 8657TIP3   OH247385   6.633   6.742  15.737  0.3716 -0.0131  0.1747
 8657TIP3    H147386   6.558   6.692  15.769  1.2432 -1.4564  0.0264
 8657TIP3    H247387   6.598   6.829  15.718 -1.2613 -0.6625  0.1156
 8658TIP3   OH247388   0.030   1.976  13.248 -0.4481  1.0823 -0.2732
 8658TIP3    H147389   0.112   1.935  13.273 -0.5681  0.8446 -0.2711
 8658TIP3    H247390  -0.014   1.911  13.194 -1.1419  0.7628  0.6551
 8659TIP3   OH247391   4.024   5.773  13.934  0.0108  0.1951 -0.0404
 8659TIP3    H147392   4.053   5.851  13.981  0.3376 -0.2375  0.4770
 8659TIP3    H247393   4.094   5.755  13.871  0.3564 -0.1988  0.4495
 8660TIP3   OH247394   5.539   2.320  15.153  0.6503  0.6710  0.5586
 8660TIP3    H147395   5.549   2.227  15.173  0.1889 -0.0025 -2.1238
 8660TIP3    H247396   5.499   2.358  15.232 -1.8533 -1.9521  0.6207
 8661TIP3   OH247397   4.499   2.460  15.386  0.4473 -0.2846  0.0708
 8661TIP3    H147398   4.511   2.506  15.303 -1.6445  1.3694  0.6243
 8661TIP3    H247399   4.405   2.468  15.404  0.5944 -2.0570  1.7708
 8662TIP3   OH247400   2.559   5.350  12.232 -0.2842  0.6903 -0.0529
 8662TIP3    H147401   2.651   5.329  12.245 -0.0400  2.4326  1.1700
 8662TIP3    H247402   2.513   5.295  12.295 -0.0739 -0.0966 -0.5824
 8663TIP3   OH247403   3.478   0.791   1.260 -0.0346  0.2910  0.0123
 8663TIP3    H147404   3.508   0.761   1.174 -0.1132  0.5813 -0.1195
 8663TIP3    H247405   3.459   0.711   1.309  0.9982  0.1028  0.1121
 8664TIP3   OH247406   4.642   4.472   0.580  0.1246 -0.5794 -0.1094
 8664TIP3    H147407   4.555   4.434   0.595  0.8254 -1.8779  0.7697
 8664TIP3    H247408   4.640   4.502   0.490 -1.8478  1.0398  0.4313
 8665TIP3   OH247409   5.951   5.997   1.294  0.3517 -0.2704  0.4433
 8665TIP3    H147410   6.006   6.074   1.284 -0.2701  0.0590 -0.5504
 8665TIP3    H247411   5.988   5.950   1.368  1.6223  0.2400  0.1439
 8666TIP3   OH247412   5.815   0.309  14.168 -0.1473  0.1363  0.6066
 8666TIP3    H147413   5.881   0.366  14.206  0.8152 -0.0044 -0.8179
 8666TIP3    H247414   5.756   0.368  14.120  0.9323 -0.0600 -0.9893
 8667TIP3   OH247415   4.905   5.642   0.829 -0.5670 -0.1266 -0.2256
 8667TIP3    H147416   4.908   5.556   0.788 -1.5733 -0.4293  0.3086
 8667TIP3    H247417   4.812   5.664   0.831 -0.5350 -0.0843  1.8029
 8668TIP3   OH247418   4.146   3.998   0.370  0.6077  0.1394 -0.5040
 8668TIP3    H147419   4.131   3.915   0.326 -0.3996  0.2445 -0.3728
 8668TIP3    H247420   4.195   4.050   0.307  0.9694 -0.4426 -0.7059
 8669TIP3   OH247421   5.744   3.442  14.945 -0.5413 -0.3782  0.5730
 8669TIP3    H147422   5.787   3.389  14.877 -3.2044 -1.9393  0.0293
 8669TIP3    H247423   5.780   3.409  15.027  0.6617 -0.3773  0.0602
 8670TIP3   OH247424   2.673   6.235  15.095 -0.1751 -0.5062  0.5817
 8670TIP3    H147425   2.662   6.285  15.014  0.5323 -0.6822  0.3710
 8670TIP3    H247426   2.615   6.160  15.086 -2.9148  1.3751  1.8303
 8671TIP3   OH247427   0.249   2.494  14.549  0.2874  0.1832 -0.5064
 8671TIP3    H147428   0.327   2.498  14.605 -0.2896  0.9052  0.2513
 8671TIP3    H247429   0.219   2.404  14.557 -0.4411  0.5739  1.2491
 8672TIP3   OH247430   7.087   3.930  13.388  0.1247  0.3149 -0.0407
 8672TIP3    H147431   7.047   3.911  13.474 -1.9954  3.0391 -0.3670
 8672TIP3    H247432   7.128   4.016  13.399 -2.1572  1.7759 -2.3563
 8673TIP3   OH247433   4.697   4.702  10.676 -0.0137 -0.0715 -0.1971
 8673TIP3    H147434   4.664   4.721  10.588 -0.7599  0.9434  0.2823
 8673TIP3    H247435   4.685   4.784  10.724 -3.1295 -1.6233  1.9154
 8674TIP3   OH247436   6.775   6.011   0.876 -0.4284 -0.5364 -0.0008
 8674TIP3    H147437   6.751   6.034   0.786 -1.8385 -0.7204  0.3126
 8674TIP3    H247438   6.864   5.979   0.869 -0.8562 -1.4626 -1.4884
 8675TIP3   OH247439   6.119   6.705   0.025  0.7035  0.8347 -0.0472
 8675TIP3    H147440   6.192   6.714   0.087 -0.6990 -0.3314  1.8189
 8675TIP3    H247441   6.059   6.776   0.048 -0.1279  0.0039  0.3808
 8676TIP3   OH247442   6.392   1.620  11.738  0.4786  0.4894  0.3180
 8676TIP3    H147443   6.433   1.626  11.824  1.6718 -0.0695 -0.1975
 8676TIP3    H247444   6.362   1.708  11.718  0.8232  0.7578  0.9968
 8677TIP3   OH247445   6.505   3.806  12.097 -0.0276  0.5835 -0.3124
 8677TIP3    H147446   6.474   3.874  12.036  3.2531 -0.0141 -2.7788
 8677TIP3    H247447   6.543   3.856  12.170  0.3831  1.3879 -1.0642
 8678TIP3   OH247448   4.110   1.066  15.729  0.2301 -0.0515 -0.5327
 8678TIP3    H147449   4.127   1.089  15.821  2.5538 -0.1548 -0.9022
 8678TIP3    H247450   4.191   1.025  15.700 -1.3875 -2.3514 -1.9348
 8679TIP3   OH247451   3.010   3.867  13.727 -0.3753 -0.3963 -0.0176
 8679TIP3    H147452   2.953   3.819  13.787 -0.6211 -0.0056  0.0632
 8679TIP3    H247453   2.956   3.939  13.696 -0.2067 -0.5214 -0.6091
 8680TIP3   OH247454   5.734   4.257  13.143 -0.1715  0.0278 -0.9919
 8680TIP3    H147455   5.777   4.248  13.058  0.0558  0.3843 -0.9144
 8680TIP3    H247456   5.794   4.215  13.205 -0.4142 -0.3825 -1.0259
 8681TIP3   OH247457   5.236   2.530   2.258  0.2282 -0.4784 -0.3315
 8681TIP3    H147458   5.264   2.582   2.182 -3.6747  1.8494 -0.3438
 8681TIP3    H247459   5.165   2.476   2.224  0.4242 -1.5892  1.0156
 8682TIP3   OH247460   3.183   3.746  11.687  0.0300 -0.0178 -0.1476
 8682TIP3    H147461   3.201   3.746  11.593  0.6760 -1.8127 -0.0425
 8682TIP3    H247462   3.263   3.779  11.727 -0.2723  0.8190 -0.2205
 8683TIP3   OH247463   4.094   1.123  14.506 -0.4940 -0.2125 -0.1942
 8683TIP3    H147464   4.036   1.132  14.581 -0.6002  1.2554 -0.4278
 8683TIP3    H247465   4.074   1.038  14.468 -1.4055 -0.3586  0.6365
 8684TIP3   OH247466   1.019   4.783  14.442  0.2323  0.0235  0.4661
 8684TIP3    H147467   1.061   4.737  14.514  0.1298 -0.3621  0.2782
 8684TIP3    H247468   0.964   4.717  14.400 -0.1343  0.3872  0.3731
 8685TIP3   OH247469   4.123   4.398  15.965 -0.2214  0.3416 -0.0023
 8685TIP3    H147470   4.055   4.407  15.899  1.2677 -0.5365 -1.7062
 8685TIP3    H247471   4.160   4.486  15.974 -0.0711  0.3653 -0.7633
 8686TIP3   OH247472   7.176   5.214   4.277  0.2544 -0.1242  0.1314
 8686TIP3    H147473   7.259   5.212   4.325 -0.0651  0.9755  0.7296
 8686TIP3    H247474   7.202   5.220   4.185  0.8466 -0.9273  0.2391
 8687TIP3   OH247475   0.517   3.757  11.285 -0.0688 -0.3390  0.0993
 8687TIP3    H147476   0.565   3.685  11.244 -0.0920  0.1503 -0.8141
 8687TIP3    H247477   0.441   3.715  11.325 -0.1823 -0.8114 -0.5954
 8688TIP3   OH247478   1.380   4.848   0.259 -0.1384  0.3894  0.2492
 8688TIP3    H147479   1.345   4.937   0.266 -1.5797 -0.0721 -0.9821
 8688TIP3    H247480   1.304   4.791   0.271  0.4384 -0.6505 -0.9829
 8689TIP3   OH247481   2.165   0.498   2.494  0.2584 -0.1216 -0.6081
 8689TIP3    H147482   2.105   0.568   2.517  1.0485  0.4370 -0.2364
 8689TIP3    H247483   2.232   0.500   2.563 -1.2085 -3.0449  1.0080
 8690TIP3   OH247484   4.892   2.988   0.477  0.3388  0.2176 -0.3094
 8690TIP3    H147485   4.889   3.071   0.524  1.6510  0.4130 -0.5419
 8690TIP3    H247486   4.808   2.946   0.495  0.2222  0.9804  0.9375
 8691TIP3   OH247487   5.774   3.699  15.092 -0.3385  0.2406  0.5747
 8691TIP3    H147488   5.772   3.632  15.024  0.4106 -0.4394  1.2075
 8691TIP3    H247489   5.698   3.754  15.074 -0.6236 -0.4290 -0.3052
 8692TIP3   OH247490   6.367   0.022   1.553 -0.7311 -0.6205 -0.6053
 8692TIP3    H147491   6.336  -0.035   1.623 -0.4410  0.9735  0.8360
 8692TIP3    H247492   6.314   0.101   1.561  0.9686  0.5374 -0.6482
 8693TIP3   OH247493   6.807   1.378  11.591 -0.0851  0.5334  0.0735
 8693TIP3    H147494   6.781   1.288  11.610  0.9005 -0.0769 -1.3813
 8693TIP3    H247495   6.789   1.426  11.671 -1.1157 -0.8597  0.6826
 8694TIP3   OH247496   5.403   4.003  14.685 -0.2067  0.3417 -0.0806
 8694TIP3    H147497   5.425   3.910  14.688 -0.5608  0.2992  3.7734
 8694TIP3    H247498   5.486   4.048  14.702 -0.2560  0.7268 -0.7970
 8695TIP3   OH247499   5.416   6.938  14.297 -0.5517 -0.1401  0.0993
 8695TIP3    H147500   5.370   6.890  14.229 -1.6070  0.8775  0.0868
 8695TIP3    H247501   5.481   6.990  14.250 -0.6622 -0.1268 -0.0385
 8696TIP3   OH247502   0.269   5.878  13.740 -0.1062  0.0991 -0.4753
 8696TIP3    H147503   0.329   5.891  13.666 -0.6254 -0.3046 -0.9731
 8696TIP3    H247504   0.280   5.785  13.763  0.9914  0.5305  0.7811
 8697TIP3   OH247505   3.192   4.638  15.358  1.0008 -0.1130 -0.0425
 8697TIP3    H147506   3.283   4.667  15.360  1.5627 -1.7956 -0.2821
 8697TIP3    H247507   3.196   4.544  15.375 -0.7328 -0.1312  0.4034
 8698TIP3   OH247508   0.957   5.251  14.581 -0.0095  0.4977  0.0336
 8698TIP3    H147509   1.048   5.227  14.567 -0.0199  0.2265  0.4308
 8698TIP3    H247510   0.914   5.169  14.607  0.2964  1.2602  3.1399
 8699TIP3   OH247511   6.593   0.079  15.494  0.2305 -0.5482 -0.1790
 8699TIP3    H147512   6.645   0.157  15.516 -0.6908  0.0040  0.0827
 8699TIP3    H247513   6.629   0.049  15.411  0.4413  0.3001 -0.3971
 8700TIP3   OH247514   6.165   6.175  13.236 -0.0332  0.0517  0.0280
 8700TIP3    H147515   6.196   6.203  13.322 -0.7669 -2.2095  1.0568
 8700TIP3    H247516   6.135   6.256  13.194  1.5639  1.3753  1.3537
 8701TIP3   OH247517   0.145   4.682  11.913  0.1115 -0.7418  0.3521
 8701TIP3    H147518   0.106   4.738  11.846  0.0654 -0.4807  0.5956
 8701TIP3    H247519   0.085   4.608  11.919 -0.0846 -0.5835  0.3696
 8702TIP3   OH247520   2.451   4.496  15.335 -0.0197  0.1400  0.2348
 8702TIP3    H147521   2.526   4.444  15.364 -1.1258 -0.2878  2.5179
 8702TIP3    H247522   2.408   4.523  15.417 -0.6121  2.9759 -0.9551
 8703TIP3   OH247523   3.174   0.979  11.372 -0.3549 -0.2403  0.2499
 8703TIP3    H147524   3.176   1.070  11.400  0.8248 -0.1299 -0.1745
 8703TIP3    H247525   3.212   0.930  11.445  1.4411 -0.0996 -0.5614
 8704TIP3   OH247526   0.619   4.432   0.492 -0.5999 -0.0724 -0.0271
 8704TIP3    H147527   0.667   4.413   0.412  0.0970  0.1755  0.3249
 8704TIP3    H247528   0.638   4.357   0.549  1.9281  1.4731  1.2636
 8705TIP3   OH247529   4.813   5.390  10.217 -0.0327  0.1022  0.2757
 8705TIP3    H147530   4.866   5.372  10.140  0.4939  1.5293  0.2828
 8705TIP3    H247531   4.872   5.378  10.291 -0.3252 -0.4861  0.4186
 8706TIP3   OH247532   4.719   6.544  14.472  0.6239 -0.0364 -0.4924
 8706TIP3    H147533   4.736   6.630  14.511 -0.4839 -0.1553  0.2587
 8706TIP3    H247534   4.755   6.481  14.535  0.5234 -0.1642 -0.5623
 8707TIP3   OH247535   6.979   5.717  15.311  0.2523  0.2199  0.5170
 8707TIP3    H147536   7.014   5.635  15.346  1.1986  0.3372 -0.1455
 8707TIP3    H247537   7.047   5.781  15.329  0.3444  0.4733 -0.6777
 8708TIP3   OH247538   1.432   3.861  12.183 -0.2490 -0.5928 -0.1212
 8708TIP3    H147539   1.455   3.794  12.119  0.6117  0.1690 -0.6211
 8708TIP3    H247540   1.514   3.877  12.231 -0.1268  0.9901 -0.8299
 8709TIP3   OH247541   6.368   0.120  13.855 -0.1696  0.2970  0.1579
 8709TIP3    H147542   6.293   0.079  13.814 -0.1076 -0.2868  0.6182
 8709TIP3    H247543   6.440   0.057  13.844  0.4812  1.2322 -1.0598
 8710TIP3   OH247544   0.259   4.039  13.200 -0.6803 -0.2039  0.4450
 8710TIP3    H147545   0.193   3.970  13.195 -1.7735  0.8329  0.5914
 8710TIP3    H247546   0.271   4.068  13.110 -0.3060 -0.5000  0.3987
 8711TIP3   OH247547   2.469   5.664  15.439  0.0246  0.2990  0.5066
 8711TIP3    H147548   2.438   5.609  15.368  1.5266 -1.3385  1.0810
 8711TIP3    H247549   2.390   5.698  15.480 -0.8730  0.1696 -1.0945
 8712TIP3   OH247550   1.327   0.999  14.342 -0.0302 -0.3826 -0.0954
 8712TIP3    H147551   1.350   1.091  14.342  0.9122 -0.6167  0.3841
 8712TIP3    H247552   1.382   0.959  14.409 -0.1760 -1.3570 -0.5307
 8713TIP3   OH247553   1.297   5.847  13.375 -0.1826 -0.5659  0.8925
 8713TIP3    H147554   1.390   5.858  13.356 -0.2292  2.4420  2.0944
 8713TIP3    H247555   1.253   5.861  13.290  0.3842 -1.0152  0.5219
 8714TIP3   OH247556   6.543   5.281  14.338 -0.3421  0.5204  0.0558
 8714TIP3    H147557   6.582   5.369  14.341  0.3266  0.3072 -1.5607
 8714TIP3    H247558   6.595   5.235  14.272 -0.8276 -1.0310  0.7462
 8715TIP3   OH247559   6.419   3.751   0.145 -0.1752 -0.2372 -0.1241
 8715TIP3    H147560   6.441   3.776   0.055  0.5218  0.5607  0.2638
 8715TIP3    H247561   6.502   3.757   0.192 -0.9921  1.6796  1.1129
 8716TIP3   OH247562   4.078   2.187  11.111  0.3886  0.7215 -0.1635
 8716TIP3    H147563   4.131   2.246  11.057  0.3217 -0.6330 -1.7389
 8716TIP3    H247564   4.074   2.106  11.060 -0.7239 -0.1624  1.3210
 8717TIP3   OH247565   6.644   6.630   0.984  0.2378 -0.3786 -0.0172
 8717TIP3    H147566   6.645   6.713   0.936  1.7351  0.0116  0.6492
 8717TIP3    H247567   6.567   6.635   1.040  1.6748  1.6499  1.8666
 8718TIP3   OH247568   0.303   5.431   1.226  0.0578  0.7097  0.6696
 8718TIP3    H147569   0.320   5.413   1.319 -1.2854 -1.1258  0.5910
 8718TIP3    H247570   0.209   5.449   1.222 -0.1815 -0.7267 -0.5371
 8719TIP3   OH247571   1.387   5.723  15.432  0.8061  0.3952  0.3449
 8719TIP3    H147572   1.411   5.630  15.432 -1.2112 -0.2405 -3.3037
 8719TIP3    H247573   1.305   5.726  15.382  1.1300  4.2045 -0.0684
 8720TIP3   OH247574   6.544   2.611  14.216 -0.0301  0.3419  0.0185
 8720TIP3    H147575   6.628   2.565  14.213  0.6768  1.6192 -0.1486
 8720TIP3    H247576   6.516   2.615  14.124  0.7152  1.6963 -0.1523
 8721TIP3   OH247577   3.122   4.622  12.047 -0.1319 -0.2811  0.5702
 8721TIP3    H147578   3.040   4.581  12.021 -0.3638 -0.2648  1.2677
 8721TIP3    H247579   3.160   4.562  12.111  1.5604 -1.4799 -1.4807
 8722TIP3   OH247580   7.043   4.285  14.356 -0.3810 -0.2576 -0.0479
 8722TIP3    H147581   7.090   4.289  14.439  0.9999  1.7060 -0.8858
 8722TIP3    H247582   7.095   4.226  14.301 -2.0260 -2.6496  0.8870
 8723TIP3   OH247583   1.021   5.315   3.292 -0.7458 -0.1948  0.1654
 8723TIP3    H147584   0.983   5.288   3.208  0.1768  0.1474 -0.3596
 8723TIP3    H247585   0.958   5.378   3.328 -0.6091  0.4743 -0.7689
 8724TIP3   OH247586   1.317   5.244  12.504  0.0504  0.3363 -0.1770
 8724TIP3    H147587   1.259   5.189  12.452  0.8220  1.1768 -1.9918
 8724TIP3    H247588   1.298   5.334  12.476 -0.1707  0.8957  1.6847
 8725TIP3   OH247589   0.071   5.813  15.739  0.0705 -0.4953 -0.1740
 8725TIP3    H147590   0.063   5.908  15.732 -0.5357 -0.5216  0.1239
 8725TIP3    H247591   0.163   5.797  15.758  0.0290  0.0772  0.5250
 8726TIP3   OH247592   5.033   6.845   2.739  0.8306 -0.2481 -0.7042
 8726TIP3    H147593   4.980   6.821   2.663 -0.2758 -0.3127  0.0752
 8726TIP3    H247594   5.119   6.864   2.703 -0.0143  0.9826 -2.1317
 8727TIP3   OH247595   0.794   5.596  13.752  0.3477  0.1081 -0.5205
 8727TIP3    H147596   0.857   5.525  13.738 -0.1107 -0.8285  1.9978
 8727TIP3    H247597   0.822   5.665  13.691  2.8014 -0.9262 -0.6158
 8728TIP3   OH247598   1.772   4.865  15.723 -0.2757  0.4989  0.3830
 8728TIP3    H147599   1.721   4.943  15.700 -1.4497 -0.4200 -0.2259
 8728TIP3    H247600   1.779   4.817  15.640 -1.8706 -1.3261  1.2701
 8729TIP3   OH247601   4.635   3.503  12.663  0.6345  0.5366  0.1725
 8729TIP3    H147602   4.712   3.450  12.642 -0.1789 -0.2252 -0.9922
 8729TIP3    H247603   4.620   3.489  12.756  1.6928  0.3974  0.3224
 8730TIP3   OH247604   3.532   7.003  15.483  0.0700  0.3884  0.3570
 8730TIP3    H147605   3.534   6.987  15.388  0.7240  2.2037  0.0520
 8730TIP3    H247606   3.602   7.067  15.498  0.2298 -0.1913  2.1294
 8731TIP3   OH247607   5.940   5.515  13.305 -0.2926 -0.6698  0.4486
 8731TIP3    H147608   5.988   5.445  13.260 -2.3111 -1.2269 -0.8856
 8731TIP3    H247609   5.974   5.513  13.394  2.6823 -0.5617 -0.6226
 8732TIP3   OH247610   0.675   4.149   0.200  0.0723  0.0743  0.2863
 8732TIP3    H147611   0.732   4.096   0.254  2.5806  1.9012 -0.4579
 8732TIP3    H247612   0.659   4.096   0.122  1.8558  0.0517 -0.0800
 8733TIP3   OH247613   4.665   3.633  13.812 -0.2842  0.5246 -0.0382
 8733TIP3    H147614   4.590   3.687  13.838  0.6690  1.4685  0.8364
 8733TIP3    H247615   4.627   3.550  13.786 -1.5239  0.4160  1.9871
 8734TIP3   OH247616   4.623   5.676  15.885 -0.1985 -0.4871 -0.1293
 8734TIP3    H147617   4.709   5.664  15.924 -0.2043 -0.8559 -0.2324
 8734TIP3    H247618   4.617   5.609  15.817  0.7197  1.5981 -2.3414
 8735TIP3   OH247619   3.000   5.799  12.713 -0.0540 -0.2040 -0.9055
 8735TIP3    H147620   2.974   5.779  12.803 -0.0106 -1.2839 -1.1321
 8735TIP3    H247621   3.079   5.747  12.698  1.2951  1.7389 -0.8077
 8736TIP3   OH247622   0.665   6.578   0.590  0.2520  0.4847  0.4786
 8736TIP3    H147623   0.700   6.582   0.679 -0.0518 -0.6450  0.6566
 8736TIP3    H247624   0.742   6.562   0.535  0.0813 -1.7575  0.8454
 8737TIP3   OH247625   0.588   7.173  14.713  0.2106 -0.3799  0.0857
 8737TIP3    H147626   0.622   7.262  14.719 -0.3753 -0.1451 -0.0645
 8737TIP3    H247627   0.665   7.117  14.726  0.9510  0.1287 -1.9755
 8738TIP3   OH247628   6.644   6.689  13.793  0.0198 -0.2700 -0.0283
 8738TIP3    H147629   6.705   6.671  13.864  0.3123  0.8620  0.0118
 8738TIP3    H247630   6.667   6.626  13.725  1.5534  0.4479 -0.1993
 8739TIP3   OH247631   1.168   5.538  13.690  0.3292 -0.3212 -0.2697
 8739TIP3    H147632   1.227   5.462  13.689  3.3816  1.9119  0.0822
 8739TIP3    H247633   1.136   5.543  13.780  1.4605 -0.2840  0.1489
 8740TIP3   OH247634   0.982   2.859  14.129  0.1027 -0.4898 -0.7723
 8740TIP3    H147635   0.979   2.954  14.116 -0.2681 -0.0890  2.0198
 8740TIP3    H247636   0.916   2.825  14.069 -1.6475  1.2618  0.0895
 8741TIP3   OH247637   2.106   4.863   1.090 -0.4193  0.2339 -0.1372
 8741TIP3    H147638   2.105   4.802   1.016 -0.8942 -1.4500  1.2254
 8741TIP3    H247639   2.162   4.935   1.061  0.0203 -0.7716 -1.8464
 8742TIP3   OH247640   1.440   4.669  11.716 -0.1199  0.3293 -0.4655
 8742TIP3    H147641   1.514   4.690  11.773  0.0297 -3.3779  0.8797
 8742TIP3    H247642   1.481   4.651  11.631  0.5225 -1.1265  0.1230
 8743TIP3   OH247643   5.950   2.859  15.971  0.9608 -0.2780  0.5370
 8743TIP3    H147644   5.988   2.920  15.908  0.1074  1.0913  1.3057
 8743TIP3    H247645   5.988   2.774  15.949  2.7617  0.6697 -0.0592
 8744TIP3   OH247646   0.087   4.442  14.303 -0.3054 -0.1972  0.5697
 8744TIP3    H147647   0.059   4.509  14.242 -0.3796  0.0210  0.8413
 8744TIP3    H247648   0.071   4.480  14.390  1.1702  0.0834  0.7343
 8745TIP3   OH247649   0.754   4.327   1.006  0.5944 -0.7334 -0.6501
 8745TIP3    H147650   0.782   4.247   1.050 -0.5105 -2.0022 -2.2035
 8745TIP3    H247651   0.670   4.349   1.047  0.5425 -0.7873 -0.7269
 8746TIP3   OH247652   2.232   3.840  13.059  0.1611  0.2834  0.5500
 8746TIP3    H147653   2.293   3.914  13.054  1.2033 -0.5295  0.9119
 8746TIP3    H247654   2.188   3.838  12.974  0.2003  1.2568  0.5058
 8747TIP3   OH247655   4.992   6.045  12.698 -0.2101  0.6756  0.2249
 8747TIP3    H147656   4.964   6.090  12.779  0.7516  0.3384  0.7488
 8747TIP3    H247657   5.016   5.957  12.727 -0.4404  0.3591 -0.5378
 8748TIP3   OH247658   1.526   0.791  14.378  0.0395  0.7194 -0.1040
 8748TIP3    H147659   1.616   0.783  14.407  0.4059  1.4208 -1.0061
 8748TIP3    H247660   1.476   0.732  14.435  0.8342  1.4999  1.4282
 8749TIP3   OH247661   3.710   0.184  11.757 -0.2080 -0.1668  0.3592
 8749TIP3    H147662   3.794   0.147  11.784  0.3856  1.8490  1.3852
 8749TIP3    H247663   3.647   0.115  11.775  1.2621 -1.8791 -0.8444
 8750TIP3   OH247664   7.251   6.791  14.091  0.5174 -0.1039  0.9094
 8750TIP3    H147665   7.268   6.726  14.022  0.7743  1.9931 -1.0563
 8750TIP3    H247666   7.226   6.738  14.167 -3.4744 -2.3409 -1.7823
 8751TIP3   OH247667   7.220   6.974  13.061  0.6304  0.1281 -0.2360
 8751TIP3    H147668   7.130   6.980  13.092  0.6925  1.8036 -0.3274
 8751TIP3    H247669   7.213   6.974  12.966  0.6230 -1.7402 -0.2430
 8752TIP3   OH247670   1.646   3.001   0.202 -0.3401 -0.3313  0.4099
 8752TIP3    H147671   1.681   3.078   0.246 -0.8642  0.1883 -0.0867
 8752TIP3    H247672   1.615   3.033   0.118 -2.4710 -0.6845  1.0399
 8753TIP3   OH247673   0.430   7.129   0.691  0.1377 -0.3147  0.1826
 8753TIP3    H147674   0.493   7.124   0.619  0.4206 -1.6085  0.5057
 8753TIP3    H247675   0.483   7.124   0.771 -0.3560 -1.4798  0.4607
 8754TIP3   OH247676   1.962   3.261  15.452 -0.5910 -0.4749  0.1541
 8754TIP3    H147677   1.950   3.230  15.362 -1.0491 -0.8776  0.3456
 8754TIP3    H247678   1.908   3.201  15.504 -0.6728  0.0271  0.6453
 8755TIP3   OH247679   7.132   0.818  12.336  0.3396  0.1648  0.0060
 8755TIP3    H147680   7.193   0.789  12.403  0.6651 -0.7482 -0.6711
 8755TIP3    H247681   7.055   0.847  12.385 -0.3389 -2.6311  0.7049
 8756TIP3   OH247682   6.900   3.746  15.046 -0.1306 -0.4237  0.3473
 8756TIP3    H147683   6.945   3.692  14.980  0.7730  0.7870 -0.0375
 8756TIP3    H247684   6.815   3.764  15.007  0.0374 -0.5191 -0.0707
 8757TIP3   OH247685   0.279   4.932   1.046 -0.5860  0.3167 -0.1991
 8757TIP3    H147686   0.369   4.947   1.075 -0.5526  0.6784 -0.4925
 8757TIP3    H247687   0.225   4.961   1.119 -0.4512 -0.3405  0.1642
 8758TIP3   OH247688   1.583   5.595  11.266  0.1271  0.0265  0.0910
 8758TIP3    H147689   1.552   5.638  11.186  0.6106  1.4076  0.6216
 8758TIP3    H247690   1.513   5.610  11.329  0.9055  1.2958  0.6817
 8759TIP3   OH247691   1.508   4.655  13.810 -0.5622  1.2334  0.1466
 8759TIP3    H147692   1.455   4.696  13.741  1.3116  0.8890 -1.5185
 8759TIP3    H247693   1.457   4.578  13.836 -1.3326  1.4279 -0.7518
 8760TIP3   OH247694   4.715   1.751  12.950  0.2018  0.4479  0.3862
 8760TIP3    H147695   4.678   1.682  12.895  0.5634 -0.0266  0.7332
 8760TIP3    H247696   4.809   1.751  12.930  0.7450 -1.3503  2.7307
 8761TIP3   OH247697   6.913   4.056   1.234 -0.0157 -0.0024 -0.2275
 8761TIP3    H147698   6.922   4.149   1.214  0.7845 -0.2309 -0.9653
 8761TIP3    H247699   6.818   4.040   1.229 -0.1757  0.8253  0.1631
 8762TIP3   OH247700   6.566   5.251  13.094  0.2481  0.1947  0.2517
 8762TIP3    H147701   6.583   5.343  13.113  0.4607  0.1740  0.1721
 8762TIP3    H247702   6.623   5.231  13.019 -1.5802  0.6352 -1.2971
 8763TIP3   OH247703   1.218   4.643  15.748  0.0005 -0.4708  0.4018
 8763TIP3    H147704   1.142   4.611  15.699  0.2739  0.5002 -0.6657
 8763TIP3    H247705   1.185   4.660  15.836 -2.0395  3.8419 -1.0819
 8764TIP3   OH247706   6.050   2.723   0.770 -0.1559 -0.7105  0.4834
 8764TIP3    H147707   6.065   2.729   0.676 -0.8641  2.1809  0.5040
 8764TIP3    H247708   6.069   2.632   0.792 -1.6147 -1.8388 -2.7143
 8765TIP3   OH247709   3.621   4.893  10.726  0.4976 -0.5071 -0.1852
 8765TIP3    H147710   3.553   4.893  10.794  0.1679 -0.2056 -0.5118
 8765TIP3    H247711   3.659   4.981  10.730  0.1061 -0.3099 -0.7584
 8766TIP3   OH247712   0.853   3.870  15.409 -0.1882  0.3686  0.5638
 8766TIP3    H147713   0.873   3.888  15.317 -0.2115  0.0734  0.4986
 8766TIP3    H247714   0.758   3.876  15.414 -0.3452 -1.4312  0.1622
 8767TIP3   OH247715   5.499   5.781   0.100  0.0866 -0.0675  0.5978
 8767TIP3    H147716   5.415   5.744   0.128 -0.3049  0.3195 -0.0385
 8767TIP3    H247717   5.537   5.817   0.180 -0.5271  0.0732  0.8303
 8768TIP3   OH247718   6.504   3.974  15.697  0.1959 -0.1241 -0.6075
 8768TIP3    H147719   6.497   4.011  15.784 -0.6714  0.4091 -0.8945
 8768TIP3    H247720   6.594   3.993  15.669 -0.9617  4.1072 -1.7814
 8769TIP3   OH247721   6.442   4.917  15.730 -0.4686 -0.4649  0.4429
 8769TIP3    H147722   6.411   4.840  15.682 -0.2644  1.3905 -2.7663
 8769TIP3    H247723   6.526   4.939  15.690 -0.6075  1.5382  1.1735
 8770TIP3   OH247724   3.851   2.908  14.322 -0.6804  0.2131 -0.6234
 8770TIP3    H147725   3.860   2.906  14.227 -2.0465  0.7428 -0.7705
 8770TIP3    H247726   3.767   2.950  14.338 -0.3560  0.3585  0.8289
 8771TIP3   OH247727   0.821   4.264  14.203  0.2717  0.1568  0.6390
 8771TIP3    H147728   0.911   4.241  14.179 -0.5645 -1.2667 -1.3402
 8771TIP3    H247729   0.780   4.180  14.224 -1.4014  0.3734 -1.4882
 8772TIP3   OH247730   3.177   5.409  13.408  0.0015 -0.6128 -0.6370
 8772TIP3    H147731   3.222   5.325  13.419  1.4578  0.1414 -0.7629
 8772TIP3    H247732   3.247   5.473  13.397 -1.1065  0.5812 -0.8926
 8773TIP3   OH247733   5.653   2.878  13.729 -0.4578  0.6617  0.7603
 8773TIP3    H147734   5.578   2.858  13.785  0.0766 -2.5234  0.4334
 8773TIP3    H247735   5.714   2.924  13.787 -1.6033  1.0438  1.6860
 8774TIP3   OH247736   5.593   6.651  13.331  0.4134  0.5413  0.1927
 8774TIP3    H147737   5.515   6.674  13.281 -0.8446 -0.2346  1.7283
 8774TIP3    H247738   5.590   6.555  13.337  1.1261  0.5551  0.8121
 8775TIP3   OH247739   5.909   2.751   2.003  0.5033  0.7060 -0.1687
 8775TIP3    H147740   5.901   2.727   2.095 -0.5065  1.4609 -0.0539
 8775TIP3    H247741   5.961   2.831   2.003 -0.5530  1.3959 -0.1581
 8776TIP3   OH247742   5.332   5.180  15.163 -0.4483 -0.1041 -0.1901
 8776TIP3    H147743   5.319   5.142  15.076 -0.9997 -1.4185  0.4452
 8776TIP3    H247744   5.270   5.253  15.168  0.4215  0.7216 -1.3296
 8777TIP3   OH247745   1.955   3.672   3.287 -0.5310 -0.0969 -0.1184
 8777TIP3    H147746   1.961   3.735   3.216 -0.6556  0.1057  0.0505
 8777TIP3    H247747   1.962   3.724   3.367  3.6445 -0.7218  0.0264
 8778TIP3   OH247748   6.840   5.085   3.279 -0.0283  0.2709  0.1509
 8778TIP3    H147749   6.812   5.106   3.190 -0.8525 -1.4979 -0.0280
 8778TIP3    H247750   6.871   5.169   3.314  0.0334  1.0579 -1.6815
 8779TIP3   OH247751   4.033   3.762  15.097  0.2119 -0.4823  0.2810
 8779TIP3    H147752   3.952   3.716  15.076  0.4412 -0.9127  0.3403
 8779TIP3    H247753   4.004   3.849  15.126 -0.1346 -0.0951 -1.1939
 8780TIP3   OH247754   2.750   3.252  14.274 -0.2111 -0.3198  0.0606
 8780TIP3    H147755   2.674   3.304  14.302 -0.6538 -0.3836 -1.0285
 8780TIP3    H247756   2.740   3.242  14.180  2.3400  1.6137 -0.4850
 8781TIP3   OH247757   6.623   5.062  13.976  0.7472 -0.1816  0.4081
 8781TIP3    H147758   6.570   4.982  13.972  0.4804 -0.0716  1.6529
 8781TIP3    H247759   6.559   5.132  13.960  0.5501 -0.0663  1.6572
 8782TIP3   OH247760   2.296   0.967  13.459 -0.1038  0.1078  0.0323
 8782TIP3    H147761   2.369   0.929  13.507 -0.3051  0.9307  1.0006
 8782TIP3    H247762   2.295   0.921  13.375  0.7300 -0.7876  0.5196
 8783TIP3   OH247763   5.230   5.443   1.148  0.0606  0.0261  0.1438
 8783TIP3    H147764   5.183   5.432   1.065  0.5480 -0.2048 -0.1000
 8783TIP3    H247765   5.285   5.520   1.134  1.0484 -0.7198 -0.1683
 8784TIP3   OH247766   6.603   3.028  12.203  0.3416 -0.3611 -0.2280
 8784TIP3    H147767   6.558   2.954  12.244  1.4090 -0.6163  0.4915
 8784TIP3    H247768   6.622   3.088  12.275  2.1948 -0.7944 -0.3245
 8785TIP3   OH247769   0.464   5.836  13.127 -0.3701  0.3914 -0.0724
 8785TIP3    H147770   0.553   5.818  13.156 -1.2750 -1.0108  2.0296
 8785TIP3    H247771   0.441   5.761  13.072 -0.2578  0.7451 -0.6031
 8786TIP3   OH247772   2.365   4.277  13.499 -0.3476 -0.1257  0.0736
 8786TIP3    H147773   2.343   4.221  13.424  0.9013  1.7060 -1.6973
 8786TIP3    H247774   2.283   4.321  13.521 -0.2759  0.8070 -1.4838
 8787TIP3   OH247775   6.466   3.531  11.587 -0.5592  0.3262  0.5572
 8787TIP3    H147776   6.458   3.626  11.593 -1.5708  0.1837  1.5302
 8787TIP3    H247777   6.386   3.503  11.542 -1.0094 -0.2031  1.6617
 8788TIP3   OH247778   5.141   3.242  14.632  0.2957  0.0438  0.3728
 8788TIP3    H147779   5.121   3.234  14.539  0.4828  0.1005  0.3263
 8788TIP3    H247780   5.180   3.158  14.655  2.7361  0.9695 -0.2312
 8789TIP3   OH247781   4.847   3.297  12.608  0.1282  0.3117 -0.1889
 8789TIP3    H147782   4.940   3.310  12.586  0.7286 -0.2492  1.8972
 8789TIP3    H247783   4.839   3.203  12.624 -0.6498  0.4641  0.3276
 8790TIP3   OH247784   3.967   6.876   1.610 -0.8711 -0.0437  0.3935
 8790TIP3    H147785   4.008   6.933   1.675 -0.6771 -0.5358  0.7016
 8790TIP3    H247786   3.982   6.921   1.526 -1.3214  0.7047  0.7039
 8791TIP3   OH247787   0.326   5.620  14.605 -0.8636  0.3416 -0.0019
 8791TIP3    H147788   0.249   5.582  14.648 -0.7886 -0.0478 -0.2099
 8791TIP3    H247789   0.308   5.612  14.512 -0.8669  0.8653 -0.0476
 8792TIP3   OH247790   5.051   4.824  13.426 -0.1753 -0.0763  0.5327
 8792TIP3    H147791   5.031   4.751  13.485  1.1703  0.1224  1.2527
 8792TIP3    H247792   5.007   4.900  13.465  0.1786 -0.0752  0.9273
 8793TIP3   OH247793   0.358   2.005  13.056 -0.1141  0.0923  0.0020
 8793TIP3    H147794   0.443   1.989  13.098  0.3026  1.3453 -0.3606
 8793TIP3    H247795   0.294   1.967  13.117  0.5701  0.7771  1.1712
 8794TIP3   OH247796   5.540   5.893  12.128  1.1651 -0.1423  0.6115
 8794TIP3    H147797   5.629   5.928  12.128  0.9571  0.4015  0.8686
 8794TIP3    H247798   5.511   5.902  12.219  1.0281 -0.7790  0.6301
 8795TIP3   OH247799   2.929   6.084  12.787 -0.0208  0.2667  0.4383
 8795TIP3    H147800   2.845   6.101  12.744 -0.5683 -0.9494  0.9774
 8795TIP3    H247801   2.952   5.995  12.759  0.4762  0.1312  1.2599
 8796TIP3   OH247802   6.019   1.090  12.723  0.2159 -0.3072 -0.2661
 8796TIP3    H147803   6.007   1.044  12.806  0.1568 -0.8382 -0.5650
 8796TIP3    H247804   6.000   1.181  12.744 -2.7599 -0.8361 -0.3095
 8797TIP3   OH247805   3.906   5.710  15.022  0.4009 -0.4037  0.3440
 8797TIP3    H147806   3.837   5.765  14.983 -2.9233 -1.5802  4.1851
 8797TIP3    H247807   3.901   5.627  14.974 -0.7281 -0.4070  0.4560
 8798TIP3   OH247808   6.970   5.232  14.867 -0.1591 -0.0217  0.2318
 8798TIP3    H147809   7.060   5.250  14.841 -0.6618 -1.0518 -2.4425
 8798TIP3    H247810   6.946   5.155  14.815 -2.2068 -0.4396  1.7640
 8799TIP3   OH247811   5.971   0.774   3.206 -0.0778  0.2448  0.4439
 8799TIP3    H147812   6.060   0.761   3.238 -0.2824  1.5111  1.5697
 8799TIP3    H247813   5.922   0.699   3.241  0.7983 -1.1375 -1.2396
 8800TIP3   OH247814   2.992   3.171   1.053  0.2005 -0.0837 -0.0422
 8800TIP3    H147815   2.898   3.186   1.062  0.0039 -0.8402 -0.8013
 8800TIP3    H247816   3.011   3.194   0.962  0.1875 -2.8858 -0.7785
 8801TIP3   OH247817   2.300   4.810  14.790 -0.2590 -0.4877  0.5047
 8801TIP3    H147818   2.226   4.777  14.739 -0.0785  1.5659 -1.1595
 8801TIP3    H247819   2.260   4.853  14.865 -0.5519 -3.0385  1.8691
 8802TIP3   OH247820   3.322   4.037   0.707  0.1743  0.4983 -0.3069
 8802TIP3    H147821   3.248   3.983   0.679  0.3165 -0.9018  1.9353
 8802TIP3    H247822   3.382   4.034   0.632 -1.4564  0.6203 -1.6649
 8803TIP3   OH247823   6.556   6.556  12.436 -0.0766 -0.2752  0.7838
 8803TIP3    H147824   6.483   6.510  12.477 -0.4940 -0.2591  0.0508
 8803TIP3    H247825   6.539   6.551  12.342 -0.4797  1.9133  0.7117
 8804TIP3   OH247826   5.959   1.194  13.867 -0.1443  0.0642 -0.0114
 8804TIP3    H147827   5.879   1.235  13.901  0.1208  0.9247 -0.4190
 8804TIP3    H247828   5.941   1.100  13.873 -2.2067  0.2460 -2.4494
 8805TIP3   OH247829   6.095   5.136  14.348 -0.2783  0.6538  0.8713
 8805TIP3    H147830   6.156   5.180  14.407 -1.3143  0.5037  2.0687
 8805TIP3    H247831   6.019   5.115  14.403 -1.4502  0.9221 -0.6161
 8806TIP3   OH247832   4.116   5.372  15.595  0.7867 -0.3955  0.2603
 8806TIP3    H147833   4.203   5.412  15.597  1.0826 -1.0741  2.6925
 8806TIP3    H247834   4.083   5.384  15.684 -1.8379  0.3239 -0.7653
 8807TIP3   OH247835   5.525   5.641  11.753 -0.1812 -0.1401 -0.2135
 8807TIP3    H147836   5.559   5.566  11.801  0.0226 -1.6484 -2.6174
 8807TIP3    H247837   5.600   5.674  11.704 -0.5294  0.9510 -0.0259
 8808TIP3   OH247838   4.465   6.074   0.570  0.2346  0.1996 -0.0527
 8808TIP3    H147839   4.487   6.064   0.477 -1.4186 -0.3802 -0.3819
 8808TIP3    H247840   4.420   6.158   0.575 -1.8540 -0.8951 -0.1766
 8809TIP3   OH247841   0.169   0.054  14.524  0.5550  0.1081  0.1587
 8809TIP3    H147842   0.221   0.035  14.447 -0.5532  0.7642 -0.7632
 8809TIP3    H247843   0.154   0.148  14.521  0.7577  0.1843  1.3286
 8810TIP3   OH247844   1.058   0.129  14.719  0.3229  0.1084 -0.4445
 8810TIP3    H147845   1.095   0.041  14.728 -0.7981 -0.3635 -0.3712
 8810TIP3    H247846   1.048   0.141  14.625  0.3229  0.0965 -0.4462
 8811TIP3   OH247847   5.468   6.488   0.523  0.2131 -0.0073  0.2306
 8811TIP3    H147848   5.542   6.513   0.468 -0.1325 -0.8772 -0.6332
 8811TIP3    H247849   5.494   6.514   0.611  0.8710  1.1648 -0.3002
 8812TIP3   OH247850   2.080   4.705  15.608  0.2452  0.5803  0.3737
 8812TIP3    H147851   1.995   4.741  15.583  0.6790  0.5486 -1.2011
 8812TIP3    H247852   2.060   4.621  15.648 -0.6064  1.4760  1.8780
 8813TIP3   OH247853   0.456   5.838   0.751  0.2340 -0.0716  0.0032
 8813TIP3    H147854   0.490   5.823   0.840  2.5957  2.5596 -0.3748
 8813TIP3    H247855   0.527   5.812   0.693 -0.6997 -0.2887 -1.0624
 8814TIP3   OH247856   2.118   7.183  15.157 -0.2104 -0.4294  0.2034
 8814TIP3    H147857   2.106   7.112  15.220  1.6194  0.8626  2.0585
 8814TIP3    H247858   2.075   7.259  15.196  1.2812  0.4917  0.1364
 8815TIP3   OH247859   0.438   3.771  15.021  0.0444  0.5253  0.3621
 8815TIP3    H147860   0.363   3.826  14.998  0.9953  1.2006 -1.2455
 8815TIP3    H247861   0.506   3.833  15.047  0.6315  0.0423  0.0014
 8816TIP3   OH247862   5.336   3.936  14.421 -0.2336 -0.5304  0.2824
 8816TIP3    H147863   5.422   3.978  14.416 -0.3808 -0.4774 -2.5539
 8816TIP3    H247864   5.286   3.992  14.481  0.4723  1.7321 -1.1732
 8817TIP3   OH247865   2.490   3.694   0.438 -0.1855  0.3287 -0.1493
 8817TIP3    H147866   2.500   3.599   0.435  0.8444  0.3888  1.1406
 8817TIP3    H247867   2.403   3.708   0.475  0.7749 -0.1123  2.3620
 8818TIP3   OH247868   0.319   5.735  15.840  0.3143  0.5571 -0.0303
 8818TIP3    H147869   0.412   5.755  15.829  0.2384  0.3589 -1.1186
 8818TIP3    H247870   0.308   5.720  15.933  1.4588  0.1786  0.0477
 8819TIP3   OH247871   5.614   6.279  12.723 -0.1849  0.6543  0.1802
 8819TIP3    H147872   5.522   6.292  12.703 -0.1385 -0.1104 -0.5599
 8819TIP3    H247873   5.644   6.364  12.756 -1.0816  0.9760  0.1688
 8820TIP3   OH247874   3.761   2.663   0.378 -0.2376  0.3653 -0.2189
 8820TIP3    H147875   3.839   2.648   0.324 -0.3162  1.1204 -0.5360
 8820TIP3    H247876   3.776   2.609   0.456  0.1100 -0.3247 -0.7522
 8821TIP3   OH247877   4.400   4.081  12.887  0.0314 -0.0763  0.6455
 8821TIP3    H147878   4.406   4.036  12.802 -0.6484 -1.0252  1.0836
 8821TIP3    H247879   4.324   4.040  12.930  0.0164  0.8090  1.4666
 8822TIP3   OH247880   0.894   4.485  15.901 -0.6522 -0.0006  0.3518
 8822TIP3    H147881   0.915   4.537  15.823 -3.1670  2.2081  1.1062
 8822TIP3    H247882   0.857   4.404  15.866  0.2059  0.0674 -0.7634
 8823TIP3   OH247883   5.466   2.264  13.596  0.4927 -0.0905  0.4023
 8823TIP3    H147884   5.559   2.289  13.591  0.0181  2.0229  1.4284
 8823TIP3    H247885   5.427   2.331  13.652 -2.0677  0.2228 -1.6627
 8824TIP3   OH247886   1.328   5.196  15.037  0.3033 -0.3176  0.0831
 8824TIP3    H147887   1.281   5.273  15.070  0.2562 -0.9351  1.5012
 8824TIP3    H247888   1.335   5.211  14.943  0.8211  1.7235  0.3978
 8825TIP3   OH247889   1.963   5.711  12.261  0.3565  0.2068  0.0674
 8825TIP3    H147890   1.949   5.690  12.353 -1.6167 -1.0023 -0.4839
 8825TIP3    H247891   1.983   5.627  12.220  0.7140  0.6614 -0.6960
 8826TIP3   OH247892   6.618   5.600  15.093 -0.2199  0.5284  0.2521
 8826TIP3    H147893   6.636   5.675  15.150  2.7066  0.2290 -0.1888
 8826TIP3    H247894   6.704   5.577  15.056 -1.4465 -1.6186 -1.3770
 8827TIP3   OH247895   6.802   5.676  15.702 -0.0590 -0.2197  0.4603
 8827TIP3    H147896   6.777   5.584  15.710 -1.0989  0.2159  2.6608
 8827TIP3    H247897   6.740   5.712  15.638 -0.9899 -0.5891  1.1386
 8828TIP3   OH247898   0.977   3.888  13.388 -0.1149 -0.1663 -0.0830
 8828TIP3    H147899   0.922   3.811  13.399 -0.2932 -0.3011 -1.8216
 8828TIP3    H247900   1.065   3.854  13.378  0.0124 -0.0624  0.7003
 8829TIP3   OH247901   6.112   4.056  14.988 -0.5045  0.3825 -0.0112
 8829TIP3    H147902   6.132   4.115  14.915  0.8071  0.5366  0.4649
 8829TIP3    H247903   6.157   3.975  14.967 -1.3917 -0.0883 -0.1166
 8830TIP3   OH247904   5.354   3.497   0.443 -0.3766 -0.0430 -0.4806
 8830TIP3    H147905   5.288   3.552   0.401  0.5704  1.0758 -0.5630
 8830TIP3    H247906   5.420   3.484   0.374 -0.4413 -1.0243 -0.3585
 8831TIP3   OH247907   2.221   4.731  15.337  0.4231 -0.4098 -0.3138
 8831TIP3    H147908   2.175   4.719  15.420  0.8588 -0.5641 -0.0921
 8831TIP3    H247909   2.187   4.661  15.280  1.3563 -1.3401  0.2732
 8832TIP3   OH247910   3.748   3.243  14.176 -0.0215 -0.2673 -0.0414
 8832TIP3    H147911   3.676   3.266  14.235 -0.1859 -1.7012  0.3529
 8832TIP3    H247912   3.825   3.284  14.214 -0.5062  0.6961 -0.0788
 8833TIP3   OH247913   5.218   1.575  13.391  0.3425 -0.0017 -0.0914
 8833TIP3    H147914   5.130   1.581  13.352  0.3976 -0.9004 -0.3459
 8833TIP3    H247915   5.227   1.656  13.441 -1.4988 -0.8952  1.7516
 8834TIP3   OH247916   1.814   1.283   0.732  0.2308  0.4882  0.2440
 8834TIP3    H147917   1.791   1.218   0.666 -0.0460 -0.1002  0.9150
 8834TIP3    H247918   1.910   1.284   0.732  0.3050 -2.0558  2.2728
 8835TIP3   OH247919   0.028   2.859   1.622  0.2478 -0.1274  0.0481
 8835TIP3    H147920   0.082   2.823   1.692 -0.2749 -0.5065  0.2639
 8835TIP3    H247921  -0.032   2.788   1.599 -3.0162  1.5979  2.7581
 8836TIP3   OH247922   0.317   5.533  15.667  0.0310 -0.1126 -0.2893
 8836TIP3    H147923   0.267   5.468  15.716  1.8582 -0.6815  0.8633
 8836TIP3    H247924   0.321   5.609  15.725  0.3550 -0.0206 -0.4264
 8837TIP3   OH247925   6.537   4.451  14.653  0.0755 -0.3994  1.0143
 8837TIP3    H147926   6.593   4.499  14.592 -2.9372  0.8254 -0.8540
 8837TIP3    H247927   6.588   4.373  14.676  1.9200 -0.0889 -1.8006
 8838TIP3   OH247928   2.770   4.794  12.365 -0.2465  0.1341 -0.0594
 8838TIP3    H147929   2.747   4.886  12.380  0.8027  0.4966 -0.6070
 8838TIP3    H247930   2.781   4.788  12.270 -0.2283 -0.5418 -0.0142
 8839TIP3   OH247931   3.143   6.212   1.157  0.0201  0.3522 -0.0851
 8839TIP3    H147932   3.210   6.225   1.090 -1.2733 -1.3865 -1.7986
 8839TIP3    H247933   3.173   6.136   1.207 -0.6735 -0.4657 -0.8927
 8840TIP3   OH247934   0.663   4.672  13.590 -0.2552 -0.1574 -0.3487
 8840TIP3    H147935   0.658   4.670  13.495 -0.5993  0.6575 -0.3491
 8840TIP3    H247936   0.700   4.587  13.614  0.7618  0.0278 -1.2535
 8841TIP3   OH247937   1.740   6.992  15.443  0.8184  0.2054 -0.3322
 8841TIP3    H147938   1.700   6.905  15.437 -2.7119  1.6758  0.8736
 8841TIP3    H247939   1.786   7.003  15.359  0.6637 -2.4996 -0.8125
 8842TIP3   OH247940   0.097   7.074  15.657  0.0992  0.3236 -0.3843
 8842TIP3    H147941   0.161   7.132  15.616 -0.3642  1.9267  1.0875
 8842TIP3    H247942   0.138   6.988  15.654  2.4375  1.3458  0.6833
 8843TIP3   OH247943   6.933   3.255  14.848 -0.3487  0.2277 -0.1503
 8843TIP3    H147944   6.986   3.328  14.879  1.5552 -1.4020  0.5331
 8843TIP3    H247945   6.992   3.180  14.849 -2.3857 -1.4302 -0.3796
 8844TIP3   OH247946   5.776   3.061  15.931  0.3736 -0.4573  0.1077
 8844TIP3    H147947   5.792   3.120  16.005  0.0393  0.1487 -0.2896
 8844TIP3    H247948   5.817   2.979  15.955 -0.0569 -0.3751  1.1370
 8845TIP3   OH247949   6.609   1.536  12.178 -0.0313 -0.1212  0.6547
 8845TIP3    H147950   6.558   1.612  12.151  0.5441 -0.3314 -1.1470
 8845TIP3    H247951   6.562   1.461  12.141  2.1763 -0.2319 -2.1549
 8846TIP3   OH247952   2.980   5.463   1.927 -0.3647 -0.1617 -0.1277
 8846TIP3    H147953   2.948   5.381   1.966  0.5435  0.0409  1.0756
 8846TIP3    H247954   2.956   5.456   1.835 -1.2970 -1.2913  0.1807
 8847TIP3   OH247955   3.482   0.705   2.208 -0.0353  0.2310  0.1593
 8847TIP3    H147956   3.497   0.620   2.166 -0.3862 -0.4504  1.3752
 8847TIP3    H247957   3.560   0.719   2.262  0.9626  1.6707 -1.6218
 8848TIP3   OH247958   3.336   3.357   3.022 -0.0036 -0.1464  0.2468
 8848TIP3    H147959   3.314   3.265   3.033  0.5136 -0.3642 -0.4909
 8848TIP3    H247960   3.251   3.402   3.018 -0.2431 -0.4799  1.4280
 8849TIP3   OH247961   5.251   6.388  13.704  0.4370  0.4783 -0.2806
 8849TIP3    H147962   5.260   6.481  13.724  0.4961  0.2205  0.9008
 8849TIP3    H247963   5.175   6.383  13.646  1.6813  1.4969 -2.0563
 8850TIP3   OH247964   7.069   6.458   0.268  0.3026 -0.0313 -0.1612
 8850TIP3    H147965   7.147   6.436   0.319  0.5113  0.3837 -0.2964
 8850TIP3    H247966   7.104   6.497   0.187 -0.0425  0.0081 -0.2922
 8851TIP3   OH247967   0.765   5.970  15.005 -0.2284 -0.2184 -0.2424
 8851TIP3    H147968   0.797   5.908  14.940 -0.7585  0.3203 -1.0294
 8851TIP3    H247969   0.680   5.935  15.032  0.0773 -0.5442  0.3106
 8852TIP3   OH247970   5.670   4.888  12.979 -0.6089 -0.1566 -0.0753
 8852TIP3    H147971   5.657   4.916  12.888 -2.0440  1.2024  0.5236
 8852TIP3    H247972   5.677   4.792  12.974 -0.6633 -0.0899 -1.6142
 8853TIP3   OH247973   4.883   2.459  14.163  0.4576  0.2468  0.3102
 8853TIP3    H147974   4.939   2.520  14.210  1.2380 -1.4916  1.7281
 8853TIP3    H247975   4.936   2.428  14.090  0.3691  0.6524  0.0778
 8854TIP3   OH247976   6.611   0.704  15.650 -0.3887  0.4287 -0.3537
 8854TIP3    H147977   6.575   0.694  15.562  1.3525  0.7222 -1.1183
 8854TIP3    H247978   6.539   0.680  15.708 -0.7486 -2.4995 -1.8816
 8855TIP3   OH247979   2.906   4.549   0.299 -0.0961 -0.0631 -0.0854
 8855TIP3    H147980   2.947   4.599   0.370 -1.8071  0.9417  0.2246
 8855TIP3    H247981   2.960   4.566   0.222  2.6275 -2.3164  1.2503
 8856TIP3   OH247982   4.890   3.809   1.553  0.7028 -0.4763 -0.3440
 8856TIP3    H147983   4.815   3.869   1.559  0.0502 -1.1669 -1.5695
 8856TIP3    H247984   4.855   3.730   1.513  1.6819 -1.5093  0.7731
 8857TIP3   OH247985   6.281   4.371   2.168 -0.5773 -0.0861 -0.0565
 8857TIP3    H147986   6.213   4.318   2.126 -0.6872  0.4285 -0.5330
 8857TIP3    H247987   6.353   4.371   2.105 -0.2130 -0.4518  0.3549
 8858TIP3   OH247988   4.176   3.608  11.868  0.4857  0.0716  0.2028
 8858TIP3    H147989   4.150   3.564  11.787  1.2961  0.2172 -0.1473
 8858TIP3    H247990   4.200   3.537  11.927  3.9710  0.0417 -1.1098
 8859TIP3   OH247991   7.068   1.477   2.545  0.6536  0.1649  0.2884
 8859TIP3    H147992   7.157   1.495   2.573  0.3610  1.0333  0.6601
 8859TIP3    H247993   7.033   1.418   2.612  0.2343  1.5590  1.3102
 8860TIP3   OH247994   5.187   4.512  15.136 -0.3161  0.6700 -0.2152
 8860TIP3    H147995   5.115   4.564  15.100  0.1595  3.1254  2.2085
 8860TIP3    H247996   5.245   4.576  15.177  3.2061 -1.2702 -1.9486
 8861TIP3   OH247997   6.106   0.759  13.753 -0.2394 -0.3888  0.5695
 8861TIP3    H147998   6.152   0.819  13.812  1.6173 -2.3148  1.1569
 8861TIP3    H247999   6.051   0.707  13.811 -1.6674  0.5613  0.0863
 8862TIP3   OH248000   7.066   1.890   1.033 -0.3201 -0.1934 -0.0995
 8862TIP3    H148001   6.978   1.876   1.000  0.4121 -0.2377 -2.1499
 8862TIP3    H248002   7.061   1.971   1.084 -1.5603 -0.2494 -0.1322
 8863TIP3   OH248003   2.485   0.158   1.315 -0.4522 -0.5100  0.1146
 8863TIP3    H148004   2.447   0.210   1.386  0.8692  1.1071 -0.3248
 8863TIP3    H248005   2.574   0.139   1.344 -0.1259 -0.4273 -0.7953
 8864TIP3   OH248006   5.641   4.471  10.530  0.4815 -0.0887 -0.4930
 8864TIP3    H148007   5.601   4.384  10.522 -1.1456  0.6589 -0.7965
 8864TIP3    H248008   5.638   4.490  10.624 -0.1923  0.1040 -0.5531
 8865TIP3   OH248009   5.346   4.382  13.790  0.0329  0.0408 -0.0716
 8865TIP3    H148010   5.410   4.339  13.847 -0.4435  0.1392  0.5422
 8865TIP3    H248011   5.263   4.340  13.812  0.0571 -0.8816 -1.6651
 8866TIP3   OH248012   0.470   3.292  10.336  0.4519  0.0111 -0.4093
 8866TIP3    H148013   0.543   3.327  10.284  1.9269  0.4096  1.8582
 8866TIP3    H248014   0.510   3.263  10.418 -2.1418  1.6991  1.5572
 8867TIP3   OH248015   6.393   2.174  10.270 -0.0542  0.1425  0.4208
 8867TIP3    H148016   6.306   2.204  10.299 -1.0667 -2.1883 -0.0702
 8867TIP3    H248017   6.453   2.241  10.302 -1.8360  0.9139  2.3263
 8868TIP3   OH248018   0.073   6.113  15.767 -0.3089  0.6969 -0.4310
 8868TIP3    H148019   0.018   6.156  15.832 -0.4712  1.2811 -0.9431
 8868TIP3    H248020   0.155   6.163  15.768 -0.9481  1.8509 -1.9186
 8869TIP3   OH248021   7.147   2.682  11.818 -0.1092  0.0897  0.1419
 8869TIP3    H148022   7.065   2.694  11.769  0.2194  0.8302 -0.2296
 8869TIP3    H248023   7.190   2.767  11.815  0.2064 -0.0207  1.2063
 8870TIP3   OH248024   0.188   6.769  13.464  0.5388  0.5113 -0.8482
 8870TIP3    H148025   0.134   6.709  13.515  1.5016 -0.0427 -0.4790
 8870TIP3    H248026   0.189   6.850  13.515 -0.4105  0.7177 -1.1412
 8871TIP3   OH248027   1.390   2.685  14.934  0.4982  0.2867  0.2178
 8871TIP3    H148028   1.415   2.775  14.956 -0.3487  0.6303 -0.1800
 8871TIP3    H248029   1.450   2.659  14.865  1.8860 -0.0888  1.5327
 8872TIP3   OH248030   2.136   5.066  13.446 -0.4333 -0.0010 -0.0356
 8872TIP3    H148031   2.186   5.123  13.388 -1.2037 -0.0013 -0.7048
 8872TIP3    H248032   2.047   5.099  13.443 -0.4692  0.0571  1.2338
 8873TIP3   OH248033   6.369   4.866  11.965  0.2774  0.8105 -0.3800
 8873TIP3    H148034   6.435   4.914  11.916 -0.9622  2.5350 -0.4181
 8873TIP3    H248035   6.303   4.842  11.899 -0.4744  1.5052  0.1147
 8874TIP3   OH248036   7.054   4.475  13.520 -0.3104  0.0857 -0.0114
 8874TIP3    H148037   7.069   4.468  13.426  1.3701  1.7002  0.1325
 8874TIP3    H248038   7.023   4.564  13.533 -3.4507 -1.0303  0.6110
 8875TIP3   OH248039   6.521   2.722  12.243  0.4084 -0.4896  0.4691
 8875TIP3    H148040   6.606   2.684  12.264 -0.0366  0.0591  3.3766
 8875TIP3    H248041   6.457   2.663  12.283 -0.4336  1.1512  1.5917
 8876TIP3   OH248042   5.403   2.153  12.700  0.0197  0.1078 -0.2228
 8876TIP3    H148043   5.444   2.082  12.650  0.7710  0.0761  0.4337
 8876TIP3    H248044   5.467   2.223  12.699 -0.2896  0.3938  0.0354
 8877TIP3   OH248045   6.363   5.317   0.707 -0.4685  0.8488 -0.7150
 8877TIP3    H148046   6.352   5.371   0.628  2.0151  0.4322 -1.3844
 8877TIP3    H248047   6.436   5.358   0.754 -0.6593 -0.0585  0.3804
 8878TIP3   OH248048   2.982   4.463  14.564  0.3192 -0.0503 -0.6305
 8878TIP3    H148049   2.892   4.479  14.593  0.1278  0.6616 -1.5784
 8878TIP3    H248050   3.019   4.550  14.552  0.8151 -0.3367 -1.2100
 8879TIP3   OH248051   4.408   0.698   0.029  0.7139  0.0485  0.1969
 8879TIP3    H148052   4.414   0.732   0.118  1.4098  0.0488  0.1487
 8879TIP3    H248053   4.325   0.651   0.027  1.3935 -1.2054  1.2613
 8880TIP3   OH248054   1.284   3.815   3.532 -0.2872  0.3078  0.2104
 8880TIP3    H148055   1.302   3.726   3.503  1.5479  0.9551 -0.6927
 8880TIP3    H248056   1.311   3.817   3.624 -0.3979 -0.0789  0.2523
 8881TIP3   OH248057   0.146   6.999  14.356 -0.6272 -0.1650  0.2862
 8881TIP3    H148058   0.075   7.017  14.293 -0.1501  0.8631  0.0203
 8881TIP3    H248059   0.218   7.054  14.326 -0.2814  0.0748  1.5409
 8882TIP3   OH248060   3.343   6.379  13.996  0.3160 -0.1011  0.1971
 8882TIP3    H148061   3.281   6.451  13.987  1.0216  0.3578 -1.0889
 8882TIP3    H248062   3.292   6.309  14.037 -0.2140  1.3166  2.0822
 8883TIP3   OH248063   3.757   2.367  13.342 -0.2461 -0.0736  0.1653
 8883TIP3    H148064   3.716   2.347  13.258 -2.1106  0.5297  0.9172
 8883TIP3    H248065   3.696   2.426  13.386  1.3682  0.7567  1.3705
 8884TIP3   OH248066   1.268   3.593  10.929 -0.3069  0.0153  0.8836
 8884TIP3    H148067   1.232   3.552  11.008 -0.1851 -0.7386  0.5572
 8884TIP3    H248068   1.362   3.598  10.946 -0.3419  0.3105  0.9898
 8885TIP3   OH248069   6.200   4.837  13.488 -0.3231  0.3432  0.2888
 8885TIP3    H148070   6.116   4.876  13.513 -0.5313 -0.2703  0.5521
 8885TIP3    H248071   6.261   4.912  13.483 -0.4855  0.5922  1.7397
 8886TIP3   OH248072   6.266   6.213  14.658 -0.0433 -0.0345 -0.8718
 8886TIP3    H148073   6.304   6.137  14.615  0.6878 -0.5757  0.6950
 8886TIP3    H248074   6.211   6.177  14.727 -0.1103  0.8476 -0.4524
 8887TIP3   OH248075   1.751   3.560  15.728 -0.7858  0.4242 -0.5249
 8887TIP3    H148076   1.735   3.627  15.795  2.4322 -0.6714  1.4247
 8887TIP3    H248077   1.763   3.610  15.647  1.1112  2.1964  0.8070
 8888TIP3   OH248078   0.865   0.076  11.825 -0.3135 -0.0419  0.2566
 8888TIP3    H148079   0.894  -0.012  11.801  2.6821  0.7015  0.9066
 8888TIP3    H248080   0.825   0.066  11.912 -0.4833 -0.8305  0.0916
 8889TIP3   OH248081   7.288   0.759   1.919  0.2841  0.1633  0.7857
 8889TIP3    H148082   7.286   0.745   1.824  0.3447 -2.6835  1.1527
 8889TIP3    H248083   7.323   0.847   1.930 -2.8730  1.8512 -1.9213
 8890TIP3   OH248084   3.939   6.618  12.773 -0.1302 -0.3570  0.2929
 8890TIP3    H148085   3.864   6.563  12.748 -0.2302 -0.9454  1.8333
 8890TIP3    H248086   3.910   6.664  12.851  0.1673  1.4893 -0.6675
 8891TIP3   OH248087   5.548   1.399  14.936  0.1709 -0.4744  0.1607
 8891TIP3    H148088   5.487   1.372  15.005 -0.4843 -0.5088 -0.4282
 8891TIP3    H248089   5.598   1.320  14.916  1.0802 -0.2192  1.3071
 8892TIP3   OH248090   2.576   1.235  14.201  0.7537 -0.3981  0.4402
 8892TIP3    H148091   2.611   1.156  14.160 -0.9376 -0.5429 -0.7874
 8892TIP3    H248092   2.653   1.287  14.222  1.7718 -1.2188 -1.1291
 8893TIP3   OH248093   0.421   1.416  13.007  0.1599 -0.1316 -0.1694
 8893TIP3    H148094   0.437   1.508  13.024  1.4647 -0.4383  0.3413
 8893TIP3    H248095   0.332   1.400  13.039 -0.8586  1.3959 -2.1517
 8894TIP3   OH248096   0.979   0.348   1.098  0.0016  0.1150  0.2814
 8894TIP3    H148097   1.000   0.415   1.162 -0.4856  1.0273 -0.4930
 8894TIP3    H248098   0.894   0.375   1.062  1.5986  1.2241 -2.8211
 8895TIP3   OH248099   6.122   2.978  15.803 -0.1124 -0.0945 -0.6981
 8895TIP3    H148100   6.086   3.000  15.717  2.2339  2.0064 -1.1992
 8895TIP3    H248101   6.189   2.912  15.785 -0.2387 -0.3059 -0.3876
 8896TIP3   OH248102   2.800   0.056   2.808  0.2621  0.7549  0.6303
 8896TIP3    H148103   2.724   0.049   2.750 -0.0275  0.8161  0.9979
 8896TIP3    H248104   2.820   0.149   2.810  1.7128  0.5060 -1.1997
 8897TIP3   OH248105   5.117   2.046  13.084  0.0260  0.6011 -0.6234
 8897TIP3    H148106   5.156   2.125  13.122  0.3138  0.7264 -1.1752
 8897TIP3    H248107   5.044   2.025  13.143  0.8981  0.3774  0.4010
 8898TIP3   OH248108   1.827   5.388  15.149  0.1114  0.2337  0.3568
 8898TIP3    H148109   1.771   5.455  15.189 -1.2235 -0.0869 -0.8998
 8898TIP3    H248110   1.769   5.343  15.088  1.2863 -1.3696  0.4110
 8899TIP3   OH248111   4.330   6.095  12.834  0.5507 -0.4363  0.5475
 8899TIP3    H148112   4.341   6.034  12.907  0.6893 -0.0291  0.8657
 8899TIP3    H248113   4.373   6.175  12.863 -1.4498  0.5061  0.9744
 8900TIP3   OH248114   1.550   3.035  15.938  0.5895 -0.0631  0.3160
 8900TIP3    H148115   1.593   2.964  15.889  0.8569  1.8437 -2.3285
 8900TIP3    H248116   1.458   3.009  15.941  0.5083 -0.0958 -1.5396
 8901TIP3   OH248117   1.347   5.205  14.771 -0.3262 -0.0522 -0.1370
 8901TIP3    H148118   1.302   5.227  14.689  0.6721  3.4425  0.1924
 8901TIP3    H248119   1.440   5.215  14.751 -0.1043  1.4708  1.5834
 8902TIP3   OH248120   1.044   2.548  14.090  0.2379 -0.2188 -0.0371
 8902TIP3    H148121   1.073   2.459  14.070 -0.7213 -0.1363 -1.8644
 8902TIP3    H248122   0.950   2.541  14.105  0.3626  0.2939  1.0275
 8903TIP3   OH248123   7.137   6.576   2.078 -0.0334 -0.0368  0.4472
 8903TIP3    H148124   7.204   6.643   2.094 -0.2196  0.1371  0.4991
 8903TIP3    H248125   7.147   6.554   1.985 -0.3515  0.4772  0.2880
 8904TIP3   OH248126   0.236   1.550  12.143  0.0016  0.4962 -0.3580
 8904TIP3    H148127   0.201   1.462  12.153 -0.7461  0.8558  0.2761
 8904TIP3    H248128   0.331   1.538  12.141  0.0891 -0.0413  3.2056
 8905TIP3   OH248129   1.514   5.140  13.048  0.1622  0.1955  0.1641
 8905TIP3    H148130   1.569   5.192  12.989  0.2339 -0.9905 -0.8434
 8905TIP3    H248131   1.543   5.164  13.135  0.8888  1.0967 -0.3178
 8906TIP3   OH248132   3.006   6.165  11.759 -0.3157 -0.0915  0.3781
 8906TIP3    H148133   3.029   6.256  11.781 -0.3757 -0.1704  0.7688
 8906TIP3    H248134   3.066   6.112  11.812 -0.2254 -0.2784  0.0859
 8907TIP3   OH248135   6.205   0.969  12.589 -0.3222  0.1991 -0.4544
 8907TIP3    H148136   6.137   0.996  12.651  0.1397 -0.6231  0.4321
 8907TIP3    H248137   6.281   1.022  12.613 -0.3843  0.4835 -0.8746
 8908TIP3   OH248138   6.072   0.493  15.428 -0.0719  0.4282 -0.1887
 8908TIP3    H148139   6.110   0.579  15.408 -1.3064  0.2687 -3.6680
 8908TIP3    H248140   5.984   0.513  15.462  0.1214  0.5907  0.2118
 8909TIP3   OH248141   6.205   1.775  13.303  0.0160  0.6064 -0.2702
 8909TIP3    H148142   6.297   1.800  13.306  0.5600 -1.3124  0.1222
 8909TIP3    H248143   6.198   1.717  13.227 -0.3654 -1.0496  0.9931
 8910TIP3   OH248144   0.929   1.950  13.985 -0.1312 -0.1855  1.0285
 8910TIP3    H148145   0.991   1.905  13.927  0.9425 -0.4374  2.3489
 8910TIP3    H248146   0.913   1.888  14.056  0.1188  0.8855  2.0387
 8911TIP3   OH248147   1.907   3.125  12.904 -0.6380  0.6525  0.2561
 8911TIP3    H148148   1.981   3.182  12.921 -0.3296  0.5789 -0.8251
 8911TIP3    H248149   1.946   3.041  12.879 -1.0913  0.3789  0.4454
 8912TIP3   OH248150   4.360   5.838  13.417  0.0446 -0.1417  0.6556
 8912TIP3    H148151   4.419   5.908  13.445 -0.9420  1.2437 -0.5900
 8912TIP3    H248152   4.413   5.782  13.361  0.5428  0.3206  0.6620
 8913TIP3   OH248153   5.048   4.725  12.822 -0.0455 -0.0396  0.1776
 8913TIP3    H148154   5.005   4.762  12.899 -1.3858 -0.0984 -0.5289
 8913TIP3    H248155   5.134   4.766  12.820 -0.6919  1.3543  0.6570
 8914TIP3   OH248156   0.909   2.093  11.999  0.2682  0.7544  0.1028
 8914TIP3    H148157   0.910   2.034  11.924 -2.0183  0.3760  0.3361
 8914TIP3    H248158   0.996   2.084  12.037 -0.4820 -3.6704  1.0291
 8915TIP3   OH248159   6.686   4.919  15.597  0.5151 -0.5966 -0.0548
 8915TIP3    H148160   6.733   4.902  15.515 -0.6780 -0.3505 -0.7987
 8915TIP3    H248161   6.712   5.008  15.621  1.8616 -1.1271  0.5234
 8916TIP3   OH248162   6.183   1.304   0.251  0.4232 -0.3816 -0.3206
 8916TIP3    H148163   6.107   1.247   0.264  1.4155 -1.8430 -0.7587
 8916TIP3    H248164   6.243   1.252   0.197  1.6265  0.8504 -0.2046
 8917TIP3   OH248165   2.916   6.696  14.461  0.0083  0.2973  0.1721
 8917TIP3    H148166   2.947   6.786  14.447 -0.6254  0.5169  0.1649
 8917TIP3    H248167   2.875   6.672  14.378 -1.5823  0.7138  0.8324
 8918TIP3   OH248168   1.889   0.540  14.112 -0.4927 -0.3369 -0.6192
 8918TIP3    H148169   1.957   0.607  14.124 -0.0610 -0.9362  0.4408
 8918TIP3    H248170   1.819   0.565  14.172 -0.6599 -0.4037 -0.7864
 8919TIP3   OH248171   1.669   3.641   1.571 -0.3639  0.6551 -0.0934
 8919TIP3    H148172   1.595   3.687   1.531 -1.1571 -0.1215  0.4574
 8919TIP3    H248173   1.646   3.635   1.663  0.6552  0.8996  0.1841
 8920TIP3   OH248174   1.103   7.064  15.607 -0.6101  0.0542 -0.3558
 8920TIP3    H148175   1.162   7.048  15.533  0.3177 -1.2691  0.6369
 8920TIP3    H248176   1.071   7.153  15.594  1.6157  0.8074 -0.9432
 8921TIP3   OH248177   5.873   1.769  12.442 -0.2336 -0.2976  0.1843
 8921TIP3    H148178   5.918   1.777  12.357  0.4122 -0.7313  0.4854
 8921TIP3    H248179   5.798   1.712  12.424 -0.0604 -0.4428 -0.0763
 8922TIP3   OH248180   1.530   1.383  14.856  0.3476  0.4518  0.0854
 8922TIP3    H148181   1.473   1.458  14.839  0.1703  0.1769 -0.5687
 8922TIP3    H248182   1.547   1.346  14.769 -1.4256 -1.6066  0.5595
 8923TIP3   OH248183   0.338   0.029  13.159  0.4183 -0.3043  0.3231
 8923TIP3    H148184   0.243   0.029  13.169  0.6755  0.4943  3.3572
 8923TIP3    H248185   0.367  -0.049  13.207  1.2382 -1.0044 -1.2878
 8924TIP3   OH248186   1.307   6.694  14.239 -0.3531  0.2293 -0.2538
 8924TIP3    H148187   1.300   6.647  14.322  0.4727 -0.5453 -0.6127
 8924TIP3    H248188   1.399   6.715  14.230 -0.8569  2.8818  0.3821
 8925TIP3   OH248189   3.587   0.300   1.176 -1.0129 -0.0214  1.0383
 8925TIP3    H148190   3.679   0.316   1.157 -0.6253 -0.9432  2.0824
 8925TIP3    H248191   3.540   0.343   1.105  0.2439 -0.1150  0.1343
 8926TIP3   OH248192   0.470   1.160  14.161 -0.3087  0.4853  0.2501
 8926TIP3    H148193   0.459   1.077  14.114 -2.3259  0.1431  1.2714
 8926TIP3    H248194   0.383   1.178  14.197  0.3801  2.5079  0.9259
 8927TIP3   OH248195   0.415   1.449  15.491  0.5291 -0.3752  0.1620
 8927TIP3    H148196   0.340   1.452  15.431  0.8421 -0.2979 -0.2251
 8927TIP3    H248197   0.439   1.357  15.495  0.3768 -0.4096  0.3394
 8928TIP3   OH248198   4.943   6.775  14.804 -0.2826  0.1719  0.2426
 8928TIP3    H148199   4.939   6.683  14.829 -1.8922  0.5904  1.5924
 8928TIP3    H248200   4.950   6.822  14.886 -1.3642  1.3521 -0.3148
 8929TIP3   OH248201   7.284   0.370   1.337 -0.3610  0.6199 -0.1579
 8929TIP3    H148202   7.288   0.287   1.290 -0.4069  2.2601 -3.1511
 8929TIP3    H248203   7.197   0.404   1.318 -0.8445  0.7850  2.1426
 8930TIP3   OH248204   4.355   6.363  14.559 -0.2412  0.1689  0.1641
 8930TIP3    H148205   4.291   6.295  14.537 -0.7065  0.7893 -0.4055
 8930TIP3    H248206   4.337   6.385  14.650 -1.5906  1.1649 -0.3406
 8931TIP3   OH248207   2.948   0.805  11.680 -0.4401  0.2553 -0.5987
 8931TIP3    H148208   3.043   0.819  11.682 -0.1563 -1.7499  1.6011
 8931TIP3    H248209   2.911   0.888  11.710  0.7951 -0.1623  2.2767
 8932TIP3   OH248210   7.141   6.991  15.569 -0.2853  0.5465 -0.0333
 8932TIP3    H148211   7.174   6.942  15.494 -1.1654 -3.1108  1.8696
 8932TIP3    H248212   7.218   7.011  15.621  0.0814  1.2299 -0.8325
 8933TIP3   OH248213   3.196   0.186  13.138 -0.4086 -0.3099  0.4894
 8933TIP3    H148214   3.202   0.281  13.138 -0.6676 -0.2902  0.9123
 8933TIP3    H248215   3.155   0.165  13.054 -2.0480  0.0821  1.1593
 8934TIP3   OH248216   4.284   6.952  12.951 -0.3503  0.3778 -0.5769
 8934TIP3    H148217   4.197   6.937  12.916  0.8569 -1.0470 -3.1446
 8934TIP3    H248218   4.342   6.904  12.892  2.0575  0.0690  1.9196
 8935TIP3   OH248219   0.959   5.877  14.324 -0.1611  0.2152 -0.2088
 8935TIP3    H148220   0.931   5.889  14.415 -2.5162 -0.5104 -0.8323
 8935TIP3    H248221   0.932   5.957  14.279 -0.5470 -0.1663 -0.6574
 8936TIP3   OH248222   1.295   5.863  13.030  0.0609  0.1690 -0.5094
 8936TIP3    H148223   1.213   5.848  12.983  0.7499  0.1613 -1.7186
 8936TIP3    H248224   1.347   5.917  12.971  0.4488  1.2297  0.7694
 8937TIP3   OH248225   4.876   3.525  12.358  0.5012 -0.0214 -0.1136
 8937TIP3    H148226   4.940   3.589  12.388  0.4798 -0.5470  1.1106
 8937TIP3    H248227   4.792   3.568  12.369  0.2459 -1.2883  3.6383
 8938TIP3   OH248228   1.883   2.486  15.447 -0.0102 -0.2474 -0.6496
 8938TIP3    H148229   1.950   2.450  15.505  0.5450  0.9086 -0.5627
 8938TIP3    H248230   1.857   2.412  15.392 -0.6902 -1.4152  1.1981
 8939TIP3   OH248231   3.184   0.782  13.260  0.0096  0.1354 -0.2197
 8939TIP3    H148232   3.227   0.812  13.180 -0.7407 -1.3121 -1.1698
 8939TIP3    H248233   3.216   0.842  13.328  0.1448  1.7907 -1.7071
 8940TIP3   OH248234   6.824   0.441  11.999  0.2772  0.0495  0.0768
 8940TIP3    H148235   6.810   0.528  11.961  0.4242  2.5200  5.2880
 8940TIP3    H248236   6.748   0.391  11.971 -1.7354  3.0063 -0.0222
 8941TIP3   OH248237   4.614   2.824  13.619 -0.5137 -0.2429 -0.2484
 8941TIP3    H148238   4.648   2.908  13.589 -0.7810  0.1591  0.5565
 8941TIP3    H248239   4.553   2.796  13.551 -1.9085  1.1571  0.4167
 8942TIP3   OH248240   1.581   0.945  15.759  0.3398 -0.3284  0.6029
 8942TIP3    H148241   1.667   0.970  15.727  0.2609  1.2097  1.5530
 8942TIP3    H248242   1.525   0.946  15.682  0.9407 -0.3325  0.1602
 8943TIP3   OH248243   2.645   6.040  13.672 -0.5131 -0.0576  0.0270
 8943TIP3    H148244   2.700   6.087  13.609  0.0696  0.4429  0.8963
 8943TIP3    H248245   2.632   5.954  13.632  0.5769 -0.0463 -0.3837
 8944TIP3   OH248246   6.866   3.418  10.350  0.1992  0.1800  0.7225
 8944TIP3    H148247   6.896   3.464  10.272 -1.3567  0.3230  0.1838
 8944TIP3    H248248   6.909   3.464  10.423  0.2742  1.1721  0.0592
 8945TIP3   OH248249   5.891   0.945  13.951  0.2498  0.1655 -0.0929
 8945TIP3    H148250   5.810   0.980  13.989 -0.4930 -1.7514  0.1326
 8945TIP3    H248251   5.873   0.852  13.939  2.5218 -0.3164  0.1800
 8946TIP3   OH248252   4.021   4.388  14.421 -0.1809  0.0253  0.5202
 8946TIP3    H148253   3.957   4.377  14.492 -1.2592  1.7256 -0.1353
 8946TIP3    H248254   4.076   4.461  14.450 -0.7216  0.8287 -0.4384
 8947TIP3   OH248255   3.639   2.296  12.209  0.3000  0.0567 -0.0113
 8947TIP3    H148256   3.720   2.305  12.259  0.2099 -0.0750  0.1620
 8947TIP3    H248257   3.570   2.307  12.274  0.1513  2.4613 -0.5589
 8948TIP3   OH248258   1.761   0.724  12.976  0.0157 -0.2267  0.3803
 8948TIP3    H148259   1.764   0.793  13.042 -2.0972 -0.0745  0.3522
 8948TIP3    H248260   1.712   0.653  13.017  1.7582 -1.5545  0.2376
 8949TIP3   OH248261   0.603   0.047  12.741  0.1464  0.1083 -0.3385
 8949TIP3    H148262   0.687   0.092  12.741  0.3100 -0.1631  0.9602
 8949TIP3    H248263   0.538   0.117  12.757  0.4143 -0.0853  1.8587
 8950TIP3   OH248264   6.359   1.910  11.722 -0.3208 -0.2032 -0.1459
 8950TIP3    H148265   6.291   1.968  11.688 -0.7758 -0.2609  0.6408
 8950TIP3    H248266   6.428   1.911  11.655 -1.2968 -0.5065 -1.1704
 8951TIP3   OH248267   0.710   4.796  14.949 -0.1201 -0.0858  0.6398
 8951TIP3    H148268   0.686   4.883  14.919 -0.6482 -0.7145 -0.7982
 8951TIP3    H248269   0.627   4.756  14.975  0.1338 -0.1219  1.3974
 8952TIP3   OH248270   5.516   2.607  13.495 -0.7204  1.1650 -0.3279
 8952TIP3    H148271   5.591   2.667  13.493 -0.2244  0.5638 -0.0638
 8952TIP3    H248272   5.544   2.533  13.440 -0.4935  0.2167  1.0489
 8953TIP3   OH248273   6.515   3.398  13.762 -0.0403  0.1669  0.2834
 8953TIP3    H148274   6.475   3.468  13.710  2.0161 -0.6492 -2.5135
 8953TIP3    H248275   6.605   3.427  13.776  0.0304 -0.6293  1.5592
 8954TIP3   OH248276   1.986   0.101  15.276 -0.0817  0.1187  0.5791
 8954TIP3    H148277   1.896   0.111  15.306 -0.8121  0.1822 -1.6144
 8954TIP3    H248278   2.021   0.190  15.271 -0.8695  0.3299 -1.4852
 8955TIP3   OH248279   0.525   3.227  13.997  0.2199 -0.3760  0.1900
 8955TIP3    H148280   0.483   3.302  14.039  1.4826 -0.0551  0.8963
 8955TIP3    H248281   0.453   3.180  13.955 -0.9749 -0.3077  2.1007
 8956TIP3   OH248282   0.350   2.754  12.682  0.4367 -0.8752 -0.1121
 8956TIP3    H148283   0.324   2.837  12.640 -0.8187 -0.5568  1.2513
 8956TIP3    H248284   0.445   2.751  12.670  0.3943  0.3434 -0.9443
 8957TIP3   OH248285   1.984   3.463  13.603  0.2361 -0.0377  0.2732
 8957TIP3    H148286   2.000   3.420  13.687 -2.0567  0.1239  0.8319
 8957TIP3    H248287   1.890   3.484  13.604  0.7558  2.5362 -1.1224
 8958TIP3   OH248288   3.472   2.262  13.548 -0.3039  0.0699 -0.0337
 8958TIP3    H148289   3.553   2.212  13.560  0.0180  0.4363 -0.6874
 8958TIP3    H248290   3.484   2.308  13.465 -1.6628 -0.7920 -0.7185
 8959TIP3   OH248291   5.958   0.555  14.216  0.2521 -0.0622  0.3550
 8959TIP3    H148292   6.002   0.604  14.286  0.6411  0.4233 -0.2197
 8959TIP3    H248293   6.029   0.524  14.160 -0.0900 -0.0071 -0.1122
 8960TIP3   OH248294   0.853   6.439  15.476 -0.3166 -0.1964  0.5918
 8960TIP3    H148295   0.863   6.533  15.494  1.9325  0.0987 -1.8326
 8960TIP3    H248296   0.762   6.430  15.447 -0.0694  1.5645 -0.8503
 8961TIP3   OH248297   1.265   4.753  12.465  0.6467  0.2123 -0.3250
 8961TIP3    H148298   1.224   4.726  12.547 -1.1335 -0.4741 -1.3978
 8961TIP3    H248299   1.332   4.687  12.448  0.2736 -0.2553  0.0193
 8962TIP3   OH248300   1.818   0.020   0.436 -0.0957 -0.0954  0.2780
 8962TIP3    H148301   1.724   0.017   0.456  0.0232  0.1836  0.8852
 8962TIP3    H248302   1.861   0.010   0.521  0.4134  2.0845  0.2989
 8963TIP3   OH248303   2.251   0.453  11.687 -0.1038  0.6251 -0.1141
 8963TIP3    H148304   2.219   0.430  11.599  0.3481  1.0977 -0.4072
 8963TIP3    H248305   2.347   0.449  11.679 -0.0841 -1.6689  0.9911
 8964TIP3   OH248306   7.044   7.051   2.782 -0.7143 -0.1551  0.3254
 8964TIP3    H148307   7.015   7.104   2.708  1.4209 -1.2321 -1.3529
 8964TIP3    H248308   7.083   7.114   2.843  2.0369  0.2993 -1.7693
 8965TIP3   OH248309   0.326   5.525   2.288 -0.0334 -0.3271 -0.5788
 8965TIP3    H148310   0.276   5.589   2.237  0.4176  1.3364  1.0232
 8965TIP3    H248311   0.269   5.505   2.363  0.8704  0.1357  0.2447
 8966TIP3   OH248312   1.201   0.429  14.379  0.2543 -0.3320 -0.4175
 8966TIP3    H148313   1.231   0.418  14.470  0.8959 -0.8400 -0.6838
 8966TIP3    H248314   1.153   0.512  14.379  0.2791 -0.3146  0.3804
 8967TIP3   OH248315   1.587   0.974   0.109  0.4051  0.3164  0.2517
 8967TIP3    H148316   1.641   0.907   0.150  1.9024  0.8118 -0.8438
 8967TIP3    H248317   1.507   0.928   0.083  0.6413 -0.6177  1.1721
 8968TIP3   OH248318   0.280   0.789   0.524 -0.8686  0.1444  0.0180
 8968TIP3    H148319   0.283   0.822   0.614 -0.3470 -1.3798  0.5823
 8968TIP3    H248320   0.188   0.792   0.500 -1.1452 -0.4174  0.9894
 8969TIP3   OH248321   1.753   1.302  13.214 -0.1592 -0.0139 -0.0453
 8969TIP3    H148322   1.825   1.352  13.253  0.1431  0.5397 -1.2829
 8969TIP3    H248323   1.693   1.285  13.287  0.0424  1.6250  0.5250
 8970TIP3   OH248324   2.033   0.717  15.590 -0.3855  0.0338  0.0029
 8970TIP3    H148325   1.968   0.680  15.649 -0.4447  1.1654  0.6538
 8970TIP3    H248326   2.108   0.657  15.596 -0.1384  0.5166  1.7398
 8971TIP3   OH248327   0.600   6.460  15.382 -0.7378  0.4095  0.2246
 8971TIP3    H148328   0.606   6.422  15.295  1.3325 -0.1116  0.5539
 8971TIP3    H248329   0.515   6.430  15.416 -0.6771 -1.0496 -0.8455
 8972TIP3   OH248330   5.815   1.811   0.822 -0.0881 -0.5473 -0.9116
 8972TIP3    H148331   5.879   1.778   0.760 -0.9330  0.8381 -2.5629
 8972TIP3    H248332   5.762   1.735   0.846  0.6004 -1.1970 -1.4376
 8973TIP3   OH248333   0.645   1.987  13.394  0.1054 -0.1347  0.2454
 8973TIP3    H148334   0.667   1.934  13.471  0.5445  1.1187  0.9992
 8973TIP3    H248335   0.575   2.045  13.425  0.2022  0.2927 -0.3415
 8974TIP3   OH248336   5.437   2.069  15.933  0.1056 -0.2358 -0.1358
 8974TIP3    H148337   5.391   1.986  15.941 -1.0382  0.4204  0.1786
 8974TIP3    H248338   5.530   2.046  15.935 -0.2098 -1.4893  0.0389
 8975TIP3   OH248339   2.665   6.850  12.670  0.1400  0.5498 -0.4055
 8975TIP3    H148340   2.666   6.929  12.615  0.0842  2.1240  1.7781
 8975TIP3    H248341   2.706   6.783  12.616  2.8791  2.8179 -1.2671
 8976TIP3   OH248342   1.757   0.673  14.475  0.3750  0.2901 -0.1105
 8976TIP3    H148343   1.675   0.625  14.466  0.3812  0.4327 -0.9323
 8976TIP3    H248344   1.819   0.608  14.511 -0.5232  0.6412  2.1722
 8977TIP3   OH248345   6.628   6.068  15.420  0.6981  0.4947 -0.1311
 8977TIP3    H148346   6.636   6.002  15.351 -0.9005 -1.1997  1.2440
 8977TIP3    H248347   6.637   6.151  15.375  1.1847 -0.6220 -2.1587
 8978TIP3   OH248348   6.150   2.987  12.228  0.4427 -0.1600  0.1374
 8978TIP3    H148349   6.177   2.913  12.283 -0.2398  1.5641  2.8738
 8978TIP3    H248350   6.225   3.047  12.230 -0.3632  0.8357  0.8909
 8979TIP3   OH248351   6.392   1.849   1.003  0.0864  0.3713  0.3659
 8979TIP3    H148352   6.374   1.816   0.915 -1.4844  2.4421 -0.1315
 8979TIP3    H248353   6.312   1.831   1.052  0.5467  0.2150  1.0718
 8980TIP3   OH248354   6.954   0.833  14.171  0.0973 -0.5152  0.0045
 8980TIP3    H148355   7.041   0.868  14.192 -0.3543  0.1970  0.7233
 8980TIP3    H248356   6.955   0.823  14.075  0.0920  1.9437 -0.3035
 8981TIP3   OH248357   0.495   6.715  13.195 -0.2538 -0.2217  0.1245
 8981TIP3    H148358   0.461   6.701  13.107 -0.0887 -0.2110  0.0589
 8981TIP3    H248359   0.563   6.782  13.183 -1.2449  0.8685  0.4830
 8982TIP3   OH248360   1.243   6.470  15.524  0.8893 -0.2698 -0.1092
 8982TIP3    H148361   1.332   6.481  15.558  1.8665 -0.5007 -2.4379
 8982TIP3    H248362   1.247   6.388  15.474 -0.3753  0.2120 -1.0091
 8983TIP3   OH248363   3.414   1.297   1.950  0.3475 -0.7419  0.0950
 8983TIP3    H148364   3.444   1.243   1.877  0.0870 -0.6534 -0.0771
 8983TIP3    H248365   3.360   1.239   2.003 -1.3131 -0.2287 -0.9724
 8984TIP3   OH248366   0.471   0.341  11.789  0.0550 -0.4236 -0.3584
 8984TIP3    H148367   0.392   0.394  11.775  0.1258  0.1387  1.2164
 8984TIP3    H248368   0.502   0.320  11.701 -1.6962 -0.4244 -1.0032
 8985TIP3   OH248369   0.622   5.355   0.386 -0.4896 -0.0459 -0.2576
 8985TIP3    H148370   0.561   5.321   0.320  0.9898 -1.2921 -0.9865
 8985TIP3    H248371   0.697   5.385   0.337  1.4907 -2.7895  0.9592
 8986TIP3   OH248372   1.372   6.911  14.621  0.0345  0.3405 -0.2886
 8986TIP3    H148373   1.439   6.939  14.683  0.8992  1.1053 -1.5392
 8986TIP3    H248374   1.412   6.839  14.572 -0.0139  0.8358 -1.0799
 8987TIP3   OH248375   1.217   6.099  14.023 -0.6242 -0.4485  0.4558
 8987TIP3    H148376   1.236   6.007  14.042 -0.9605 -0.3725  1.1906
 8987TIP3    H248377   1.200   6.138  14.109  0.6915  0.5723  0.2649
 8988TIP3   OH248378   6.785   3.730  10.322  0.1458  0.2245 -0.1878
 8988TIP3    H148379   6.694   3.701  10.322 -0.3068  1.5199  1.6798
 8988TIP3    H248380   6.791   3.791  10.396  2.1185  1.4886 -1.3390
 8989TIP3   OH248381   7.126   0.212  14.684 -0.2555 -0.5394  0.5714
 8989TIP3    H148382   7.032   0.224  14.669 -0.4638 -0.5784  1.8185
 8989TIP3    H248383   7.142   0.251  14.770  1.1561  0.7846 -0.2729
 8990TIP3   OH248384   2.370   3.143  15.199 -0.2815 -0.2660  0.4984
 8990TIP3    H148385   2.310   3.218  15.196 -1.6717 -1.3336  1.0261
 8990TIP3    H248386   2.445   3.171  15.147 -0.9195  1.3709  0.4064
 8991TIP3   OH248387   6.387   3.887  14.415  0.3772  0.1969 -0.5703
 8991TIP3    H148388   6.328   3.952  14.377 -0.6930  1.1059  2.5179
 8991TIP3    H248389   6.455   3.939  14.458  0.6681 -0.7816  0.1527
 8992TIP3   OH248390   7.170   0.881  14.817  0.8970 -0.2346 -0.1396
 8992TIP3    H148391   7.120   0.813  14.772  2.4982 -1.4039 -0.1998
 8992TIP3    H248392   7.116   0.905  14.892  0.2810 -1.5318 -0.1566
 8993TIP3   OH248393   1.280   6.236  11.939 -0.3640  0.3261  0.0973
 8993TIP3    H148394   1.353   6.249  11.879 -0.4461 -1.3684 -0.3913
 8993TIP3    H248395   1.282   6.313  11.996 -0.1710  1.8998 -1.9318
 8994TIP3   OH248396   2.023   7.283  13.441 -0.0091  0.2344 -0.3365
 8994TIP3    H148397   1.985   7.359  13.396 -0.2818  0.5758  0.4697
 8994TIP3    H248398   1.983   7.285  13.528  2.4309  1.0138  0.7870
 8995TIP3   OH248399   2.855   1.564   0.533 -0.0427 -0.0136  0.1832
 8995TIP3    H148400   2.783   1.500   0.528  1.6771 -1.9726 -0.5685
 8995TIP3    H248401   2.812   1.647   0.553 -2.4823 -1.1825  0.0452
 8996TIP3   OH248402   0.108   1.753   0.945  0.2084  0.4026 -0.0512
 8996TIP3    H148403   0.114   1.657   0.945  2.4172  0.4621  2.5497
 8996TIP3    H248404   0.129   1.778   0.855  0.7503 -1.5213 -0.4891
 8997TIP3   OH248405   1.002   5.038  15.065 -0.1125 -0.5852 -0.7049
 8997TIP3    H148406   0.971   5.126  15.047  0.5997 -0.0789  0.5164
 8997TIP3    H248407   1.074   5.049  15.126  0.4528 -1.9681 -1.0895
 8998TIP3   OH248408   6.700   2.017  14.753  0.1630  0.0248  0.2552
 8998TIP3    H148409   6.721   2.025  14.660  1.5929  1.1978  0.6462
 8998TIP3    H248410   6.604   2.021  14.757 -0.0861 -2.9014 -1.3885
 8999TIP3   OH248411   6.436   2.358  14.764 -0.1012 -0.4751  0.3458
 8999TIP3    H148412   6.445   2.443  14.722 -0.0791 -1.1742 -1.0824
 8999TIP3    H248413   6.446   2.294  14.693  0.9670 -1.7032  1.5431
 9000TIP3   OH248414   1.393   0.450  10.391 -0.1937  0.0647 -0.4790
 9000TIP3    H148415   1.336   0.417  10.321  0.6180 -0.9065 -0.6995
 9000TIP3    H248416   1.408   0.542  10.368 -1.8364  0.3930 -0.2912
 9001TIP3   OH248417   5.134   6.827  14.594 -0.4703 -0.0311 -0.0639
 9001TIP3    H148418   5.102   6.823  14.684  0.6672  1.0870  0.4078
 9001TIP3    H248419   5.132   6.737  14.563 -2.9148 -0.1538  0.3421
 9002TIP3   OH248420   5.862   6.385  10.870  0.1875 -0.0494 -0.3487
 9002TIP3    H148421   5.925   6.454  10.848 -0.5391  0.1693 -1.8118
 9002TIP3    H248422   5.837   6.347  10.785 -1.3313 -0.4023  0.2385
 9003TIP3   OH248423   2.412   1.080   1.062 -0.5098 -0.3042 -0.2921
 9003TIP3    H148424   2.460   1.061   0.981 -0.5894  0.8158 -0.6209
 9003TIP3    H248425   2.336   1.130   1.033 -0.3760  0.3829  0.4966
 9004TIP3   OH248426   6.429   2.633  10.778 -0.2048 -0.8176  0.0181
 9004TIP3    H148427   6.463   2.668  10.861  1.5121 -1.0278 -0.5655
 9004TIP3    H248428   6.371   2.562  10.805 -0.4759 -0.2125  1.0750
 9005TIP3   OH248429   7.283   0.047  14.133  0.3844  0.2073 -0.8099
 9005TIP3    H148430   7.236   0.104  14.072 -2.1446 -1.3889 -0.4438
 9005TIP3    H248431   7.273   0.090  14.218  3.2440  2.0250 -1.3143
 9006TIP3   OH248432   0.845   6.975   0.961  0.2040 -0.3631 -1.0931
 9006TIP3    H148433   0.762   6.928   0.960  0.7339 -1.3238 -0.9786
 9006TIP3    H248434   0.857   7.001   1.053 -1.2464  2.1203 -1.5755
 9007TIP3   OH248435   6.024   5.949  13.243  0.5440  0.3463 -0.6880
 9007TIP3    H148436   6.074   6.030  13.255  1.0706 -0.2140  1.0964
 9007TIP3    H248437   6.052   5.893  13.316 -0.2526 -1.2187 -1.5666
 9008TIP3   OH248438   1.492   0.500  15.737  0.5894 -0.3332  0.3442
 9008TIP3    H148439   1.550   0.471  15.666 -0.8224 -0.0004 -0.9624
 9008TIP3    H248440   1.422   0.548  15.693 -1.5046 -1.9785  1.7668
 9009TIP3   OH248441   3.049   0.340   0.006 -0.3094  0.5069 -0.4730
 9009TIP3    H148442   3.127   0.293  -0.024 -0.6427  0.8062 -1.8502
 9009TIP3    H248443   2.984   0.271   0.020 -0.5660  0.4572 -1.7773
 9010TIP3   OH248444   3.196   2.372  14.612  0.2983 -0.5405  0.4070
 9010TIP3    H148445   3.272   2.430  14.606 -0.7128  0.7094 -0.7481
 9010TIP3    H248446   3.137   2.417  14.672 -0.1215 -0.7956  0.1873
 9011TIP3   OH248447   6.829   7.152  12.431 -0.0292  0.0226 -0.1853
 9011TIP3    H148448   6.774   7.151  12.353 -0.0225 -1.0747 -0.1819
 9011TIP3    H248449   6.907   7.104  12.406 -0.1269 -0.5405  0.5615
 9012TIP3   OH248450   0.885   0.064   0.788 -0.1704 -0.0017  0.0594
 9012TIP3    H148451   0.950   0.121   0.830 -0.2503  0.2978 -0.2112
 9012TIP3    H248452   0.803   0.087   0.830  0.1281 -1.4550  1.4546
 9013TIP3   OH248453   4.206   6.490   2.519  0.1300 -0.4204 -0.4068
 9013TIP3    H148454   4.207   6.395   2.513  0.5145 -0.3755 -1.0315
 9013TIP3    H248455   4.188   6.520   2.430  1.1428  0.1119 -0.4395
 9014TIP3   OH248456   2.860   6.526  15.506  0.3576 -0.1510  0.1197
 9014TIP3    H148457   2.803   6.482  15.444 -1.2617  1.8019  0.1839
 9014TIP3    H248458   2.808   6.600  15.538  1.3901 -0.7388  3.2996
 9015TIP3   OH248459   0.704   7.109  11.974  0.1404 -0.0215 -0.4497
 9015TIP3    H148460   0.656   7.080  11.896 -0.2308 -3.9037  1.0980
 9015TIP3    H248461   0.719   7.029  12.024  3.9084  1.7920  1.5677
 9016TIP3   OH248462   3.154   0.689  14.756  0.7250 -0.3888  0.2244
 9016TIP3    H148463   3.198   0.772  14.774  1.4695 -0.8217  0.4414
 9016TIP3    H248464   3.148   0.646  14.842 -0.8972  0.0323  0.3360
 9017TIP3   OH248465   1.876   6.747   0.090 -0.2316  0.3233  0.4053
 9017TIP3    H148466   1.809   6.815   0.098 -0.5141  0.5101 -2.7539
 9017TIP3    H248467   1.837   6.670   0.132 -1.5709  1.0134  0.4658
 9018TIP3   OH248468   1.557   0.440  15.247 -0.0132 -0.7359 -0.3299
 9018TIP3    H148469   1.631   0.410  15.195  1.6359 -1.6127  2.4519
 9018TIP3    H248470   1.563   0.536  15.245  2.2158 -0.8219  1.2629
 9019TIP3   OH248471   1.466   6.682   0.197  0.1805 -0.0383 -0.0119
 9019TIP3    H148472   1.462   6.633   0.115  2.8752 -0.4338  0.0751
 9019TIP3    H248473   1.417   6.762   0.179  1.2009  0.1256 -2.1940
 9020TIP3   OH248474   4.775   5.972   0.411 -0.0734  0.4144  0.3793
 9020TIP3    H148475   4.829   5.931   0.478  0.6127  0.4083 -0.1764
 9020TIP3    H248476   4.836   6.024   0.359 -0.1244 -1.7702 -1.9539
 9021TIP3   OH248477   2.110   7.153   0.017  0.1007 -0.2051  0.3372
 9021TIP3    H148478   2.105   7.139   0.112  0.4552 -0.1793  0.3608
 9021TIP3    H248479   2.029   7.199  -0.005  0.8146  1.3705  0.9054
 9022TIP3   OH248480   5.190   1.858  12.486  0.3186  0.1331 -0.0004
 9022TIP3    H148481   5.131   1.844  12.560 -1.3602 -0.1843 -1.3774
 9022TIP3    H248482   5.203   1.771  12.449 -0.1018  0.5000 -1.0185
 9023TIP3   OH248483   1.446   5.610   0.752  0.7354 -0.3443  0.1864
 9023TIP3    H148484   1.477   5.569   0.671 -0.6159  0.5460 -0.8051
 9023TIP3    H248485   1.368   5.560   0.776 -0.2251  0.8532 -0.3738
 9024TIP3   OH248486   6.354   5.649  14.980 -0.3699  0.8672  0.0773
 9024TIP3    H148487   6.448   5.665  14.971  0.0145 -0.3580  1.5397
 9024TIP3    H248488   6.344   5.554  14.966 -1.2829  0.8779  0.5809
 9025TIP3   OH248489   0.215   3.612  14.518 -0.9822 -0.4391  0.1671
 9025TIP3    H148490   0.203   3.593  14.611 -2.3866  1.4123  0.4011
 9025TIP3    H248491   0.239   3.528  14.479  1.6314 -0.8528  2.4987
 9026TIP3   OH248492   6.067   7.006   0.424  0.0042 -0.6339  0.3767
 9026TIP3    H148493   6.046   7.046   0.340  0.3082  1.1051  1.1065
 9026TIP3    H248494   5.999   6.940   0.438 -0.2866 -0.6328 -1.0287
 9027TIP3   OH248495   6.078   0.500  10.992 -0.3518 -0.2219  0.9485
 9027TIP3    H148496   6.041   0.413  10.974 -1.1287  0.3821 -0.4360
 9027TIP3    H248497   6.052   0.519  11.082  1.6283 -2.3210  2.0149
 9028TIP3   OH248498   0.048   5.950  15.076  0.1667  0.3910 -0.4617
 9028TIP3    H148499   0.017   5.908  14.997  0.8128 -0.8356 -0.0728
 9028TIP3    H248500   0.115   6.011  15.046  0.8340 -0.5029 -0.8073
 9029TIP3   OH248501   4.083   0.453  14.652 -0.1265 -0.0156 -0.2935
 9029TIP3    H148502   4.137   0.395  14.705  1.8663  1.6188 -0.4843
 9029TIP3    H248503   4.108   0.435  14.562  0.9756  1.5287 -0.3257
 9030TIP3   OH248504   0.308   0.099   2.140 -1.1408 -0.1189  0.1458
 9030TIP3    H148505   0.379   0.135   2.087 -1.0001  0.8324  0.9653
 9030TIP3    H248506   0.350   0.040   2.202 -0.8559  1.6359  1.6713
 9031TIP3   OH248507   1.897   0.705  15.131  0.4247  0.1384 -0.5293
 9031TIP3    H148508   1.954   0.776  15.103 -1.2558  1.0173 -1.8442
 9031TIP3    H248509   1.835   0.693  15.058  0.9775 -3.0270 -0.5762
 9032TIP3   OH248510   4.852   0.026   0.443  0.6766  0.2723 -0.3638
 9032TIP3    H148511   4.808   0.110   0.431  0.4226  0.5630  2.2922
 9032TIP3    H248512   4.794  -0.038   0.401 -0.1726  1.1692 -0.5650
 9033TIP3   OH248513   1.922   0.026   1.449  0.8662  0.3113  0.5231
 9033TIP3    H148514   1.999   0.078   1.470  0.9303  0.8822 -1.0100
 9033TIP3    H248515   1.950  -0.031   1.377  0.1052 -0.0800  0.5308
 9034TIP3   OH248516   0.749   7.193   1.138  0.0661  0.2119 -0.2101
 9034TIP3    H148517   0.787   7.128   1.198  1.8357  0.0384 -1.4986
 9034TIP3    H248518   0.816   7.260   1.129  0.1384 -0.1306 -2.5604
 9035TIP3   OH248519   1.634   6.595  15.906  0.0332 -0.0514 -0.0963
 9035TIP3    H148520   1.707   6.557  15.956  0.2982  0.8116  0.1830
 9035TIP3    H248521   1.660   6.686  15.892 -0.9754  0.2496 -0.0361
 9036TIP3   OH248522   2.368   1.891  13.259 -0.3954  0.5902 -0.3453
 9036TIP3    H148523   2.421   1.896  13.179  0.4809  1.4061  0.2712
 9036TIP3    H248524   2.391   1.807  13.298  0.4275  0.9114 -0.1129
 9037TIP3   OH248525   2.915   3.071  10.759 -0.2168  0.3636 -0.0052
 9037TIP3    H148526   2.840   3.127  10.781 -1.7422 -1.2790 -0.8027
 9037TIP3    H248527   2.989   3.110  10.805 -1.5867  1.9720  0.9085
 9038TIP3   OH248528   1.099   6.425  10.994 -0.6316  0.2691 -0.2965
 9038TIP3    H148529   1.055   6.342  11.012 -0.9212  0.5298  0.2132
 9038TIP3    H248530   1.048   6.465  10.924 -1.7921  1.0197  0.9663
 9039TIP3   OH248531   2.045   1.992  14.799  0.1149 -0.2335  0.0909
 9039TIP3    H148532   2.127   1.943  14.801  0.6996  0.7596  0.4605
 9039TIP3    H248533   2.003   1.972  14.883  1.1439  1.2247  0.9755
 9040TIP3   OH248534   2.189   5.447  14.444  0.0907 -0.4065 -0.3251
 9040TIP3    H148535   2.163   5.369  14.493  1.0569  0.7905  2.2020
 9040TIP3    H248536   2.107   5.484  14.412 -0.8073  0.0341  2.3877
 9041TIP3   OH248537   5.098   0.368   1.896 -0.1193 -0.4614  0.8125
 9041TIP3    H148538   5.013   0.328   1.878 -0.1595  0.3852 -1.0016
 9041TIP3    H248539   5.149   0.298   1.937 -1.5380 -1.0975  1.5338
 9042TIP3   OH248540   2.007   6.797  12.905  0.1705 -0.5421 -0.1722
 9042TIP3    H148541   2.084   6.752  12.939  1.9969  2.1951 -0.5375
 9042TIP3    H248542   2.035   6.832  12.821 -2.1087 -1.1863 -1.2312
 9043TIP3   OH248543   1.890   2.916  15.424  0.0100  0.0157 -0.3502
 9043TIP3    H148544   1.812   2.934  15.476  1.1987 -1.4820  2.0287
 9043TIP3    H248545   1.898   2.821  15.424  0.6388  0.0344 -2.4332
 9044TIP3   OH248546   6.661   4.469  13.011  0.0589 -0.4104  0.4888
 9044TIP3    H148547   6.683   4.560  12.993 -1.0616 -0.3969 -0.9120
 9044TIP3    H248548   6.691   4.422  12.934  1.4265 -1.3728  1.5770
 9045TIP3   OH248549   6.568   5.238   0.201 -0.3473  0.0688  0.0784
 9045TIP3    H148550   6.505   5.263   0.269  0.0956 -1.4973  1.0904
 9045TIP3    H248551   6.617   5.166   0.240 -0.2039 -0.9741 -1.9836
 9046TIP3   OH248552   6.006   7.215  15.310  0.2053 -0.5567  0.1130
 9046TIP3    H148553   5.929   7.175  15.350 -0.1428  0.7670  0.7814
 9046TIP3    H248554   6.055   7.253  15.383  1.2466 -0.9493 -0.3612
 9047TIP3   OH248555   6.838   1.301   0.721 -0.1036 -0.2468  0.0020
 9047TIP3    H148556   6.780   1.323   0.648  1.0474  1.1412 -0.5279
 9047TIP3    H248557   6.785   1.314   0.799 -1.4523 -2.0834 -0.5833
 9048TIP3   OH248558   1.355   1.859  13.656  0.6320 -1.3148 -0.1282
 9048TIP3    H148559   1.314   1.803  13.722 -2.7783  1.2482  0.0708
 9048TIP3    H248560   1.325   1.824  13.572 -1.5967  0.2119 -0.0003
 9049TIP3   OH248561   2.008   4.923  15.846  0.2482 -0.0213 -0.2150
 9049TIP3    H148562   1.957   4.881  15.777 -1.6296  2.9689 -0.7518
 9049TIP3    H248563   1.943   4.956  15.907  1.6855  1.3313  0.6188
 9050TIP3   OH248564   0.602   2.606   1.118 -0.1935  0.7761 -0.1821
 9050TIP3    H148565   0.573   2.697   1.124 -1.3163  0.3599  1.0241
 9050TIP3    H248566   0.520   2.555   1.117  0.4085 -0.2136 -1.1342
 9051TIP3   OH248567   5.556   0.340   1.188  0.2372 -0.2946  0.0359
 9051TIP3    H148568   5.578   0.308   1.100 -0.7710 -1.2120  0.1011
 9051TIP3    H248569   5.527   0.430   1.174 -1.3339 -0.8967 -0.7887
 9052TIP3   OH248570   2.308   0.659  13.008  0.6574 -0.0739  0.0685
 9052TIP3    H148571   2.327   0.707  12.927 -0.2074  1.3495  0.6741
 9052TIP3    H248572   2.386   0.606  13.024  1.2155  0.3450 -1.1865
 9053TIP3   OH248573   6.766   6.087   1.720 -0.0474  0.5157 -0.1713
 9053TIP3    H148574   6.736   6.131   1.640  2.2604  2.5778  0.0527
 9053TIP3    H248575   6.844   6.136   1.747  2.4172 -3.4436  0.3478
 9054TIP3   OH248576   1.446   5.094  14.068  0.7891  0.8437  0.1829
 9054TIP3    H148577   1.512   5.045  14.019  0.2052  0.6226 -0.3804
 9054TIP3    H248578   1.377   5.112  14.004  0.0527  0.6038  0.9076
 9055TIP3   OH248579   1.413   6.343   1.762 -0.4081  0.6782 -0.1511
 9055TIP3    H148580   1.507   6.336   1.747 -0.6590  0.5762 -1.7981
 9055TIP3    H248581   1.394   6.277   1.829  0.5820  0.2072 -0.3226
 9056TIP3   OH248582   5.881   5.993   0.938  0.3827 -0.0059  0.4268
 9056TIP3    H148583   5.966   5.964   0.971  1.4409  0.6403 -1.6369
 9056TIP3    H248584   5.887   6.088   0.935 -0.3729  0.0402  0.1646
 9057TIP3   OH248585   0.615   4.307  13.353  0.3438 -0.4524  0.1011
 9057TIP3    H148586   0.649   4.373  13.291  0.4630  0.0402  0.6854
 9057TIP3    H248587   0.530   4.283  13.318  0.5385 -0.3966 -0.4226
 9058TIP3   OH248588   1.233   4.157  15.413  0.4406  0.6809  0.0472
 9058TIP3    H148589   1.159   4.183  15.469 -0.7168  2.3569 -2.1681
 9058TIP3    H248590   1.292   4.231  15.415  0.7707  0.4300 -0.3119
 9059TIP3   OH248591   1.662   6.518  12.067  0.3084  0.6101  0.1324
 9059TIP3    H148592   1.576   6.557  12.079  0.3643  0.6529  0.4003
 9059TIP3    H248593   1.720   6.569  12.124  0.5989  0.8911 -0.4142
 9060TIP3   OH248594   6.647   3.004   0.878 -0.1422  0.4250 -0.3493
 9060TIP3    H148595   6.627   2.914   0.853 -0.0061 -0.1491  1.5008
 9060TIP3    H248596   6.562   3.043   0.898 -0.0551  0.1406  0.6129
 9061TIP3   OH248597   0.710   5.016  14.018 -0.2127  0.1778 -0.8733
 9061TIP3    H148598   0.649   5.005  13.945  1.0476 -1.2109 -1.7544
 9061TIP3    H248599   0.712   4.930  14.060  0.7179  0.3684 -0.5188
 9062TIP3   OH248600   4.748   5.326  14.537  0.2163 -0.1721 -0.0810
 9062TIP3    H148601   4.810   5.397  14.522 -0.5923  0.5272 -0.2033
 9062TIP3    H248602   4.670   5.370  14.572 -0.3429 -0.9890 -0.2804
 9063TIP3   OH248603   1.390   2.477  14.552  0.9296 -0.7550  0.1145
 9063TIP3    H148604   1.436   2.525  14.621  1.7969 -0.3938 -0.7068
 9063TIP3    H248605   1.460   2.439  14.498  0.2840  0.2153 -1.4420
 9064TIP3   OH248606   0.898   3.637  15.569 -0.4335  0.2923 -0.1936
 9064TIP3    H148607   0.874   3.723  15.535  0.9391  0.8556  0.2381
 9064TIP3    H248608   0.944   3.656  15.651 -0.3280 -0.8640  0.0131
 9065TIP3   OH248609   4.081   3.134  13.918 -0.6793 -0.0943 -0.2812
 9065TIP3    H148610   4.164   3.102  13.884 -1.2256  1.1978 -3.0005
 9065TIP3    H248611   4.104   3.211  13.970 -0.0555 -0.7256  0.4042
 9066TIP3   OH248612   3.205   0.731  15.741 -0.2845 -0.2194 -0.1023
 9066TIP3    H148613   3.270   0.798  15.719 -0.6759 -0.4264 -1.9355
 9066TIP3    H248614   3.133   0.747  15.681 -1.1472 -1.1848  0.6544
 9067TIP3   OH248615   5.949   5.542  12.008  0.4164  0.2215  0.1493
 9067TIP3    H148616   5.971   5.512  12.096 -0.9853  0.9470  0.7700
 9067TIP3    H248617   5.998   5.624  11.997  2.2220 -0.9279 -0.5603
 9068TIP3   OH248618   6.272   6.572  11.760 -0.0584  0.5161 -0.0194
 9068TIP3    H148619   6.177   6.581  11.760 -0.1757 -0.5887  1.3967
 9068TIP3    H248620   6.289   6.501  11.698 -0.0974  1.0569 -0.6666
 9069TIP3   OH248621   1.363   4.432  15.511 -0.0981 -0.0168  0.0760
 9069TIP3    H148622   1.341   4.428  15.603  0.7522  1.6513  0.3818
 9069TIP3    H248623   1.423   4.359  15.497 -0.4484 -0.4380  0.7842
 9070TIP3   OH248624   1.096   0.170  14.303 -0.0789 -0.4242  0.4046
 9070TIP3    H148625   1.023   0.173  14.366  0.2814 -0.0797  0.8154
 9070TIP3    H248626   1.141   0.253  14.316 -0.3849 -0.0749 -0.7833
 9071TIP3   OH248627   2.790   7.104  12.115 -0.0816  0.7077  0.5816
 9071TIP3    H148628   2.786   7.199  12.120 -0.1867  0.7616 -0.4236
 9071TIP3    H248629   2.699   7.076  12.109  0.0416  0.6654 -1.1317
 9072TIP3   OH248630   2.331   0.537  15.694  0.4976  0.0865 -0.5340
 9072TIP3    H148631   2.373   0.533  15.780  0.1025  2.7887 -0.1516
 9072TIP3    H248632   2.258   0.475  15.700  0.6078  0.0860  1.0222
 9073TIP3   OH248633   2.069   1.201  14.150 -0.2358  0.8004  0.9109
 9073TIP3    H148634   1.974   1.206  14.161 -0.4558  1.1389 -0.9881
 9073TIP3    H248635   2.085   1.239  14.063  1.5279 -0.1832  0.7876
 9074TIP3   OH248636   3.326   2.155  12.465  0.5790  0.8517  0.1080
 9074TIP3    H148637   3.299   2.131  12.377 -0.8879  0.2869  0.7117
 9074TIP3    H248638   3.374   2.079  12.497  3.7551  2.1516 -1.2617
 9075TIP3   OH248639   1.666   6.316  12.557 -0.1296  0.7660 -0.3373
 9075TIP3    H148640   1.750   6.308  12.511 -0.9999  0.4443 -1.9379
 9075TIP3    H248641   1.615   6.242  12.526 -0.1258 -0.5009  2.6051
 9076TIP3   OH248642   4.787   4.944  14.512 -0.1521  0.2368  0.2522
 9076TIP3    H148643   4.774   4.859  14.555 -1.4475  0.7598  0.9398
 9076TIP3    H248644   4.831   4.997  14.579  2.2607 -0.3963 -0.7807
 9077TIP3   OH248645   4.960   4.848   0.072  0.1211 -0.3301  0.1429
 9077TIP3    H148646   4.946   4.934   0.111  0.3209 -0.9642  1.6341
 9077TIP3    H248647   4.985   4.867  -0.019  0.3650  1.1880  0.5178
 9078TIP3   OH248648   6.180   6.274  14.270 -0.0526 -0.0443 -0.4852
 9078TIP3    H148649   6.236   6.324  14.210 -0.0788  0.1078 -0.3836
 9078TIP3    H248650   6.162   6.334  14.342 -1.0265  0.1780 -0.9112
 9079TIP3   OH248651   1.453   5.059  15.230  0.3772 -0.4847  0.0343
 9079TIP3    H148652   1.385   5.088  15.169 -1.0500 -0.4610  1.5854
 9079TIP3    H248653   1.462   4.965  15.214 -2.7103 -1.2593  2.2822
 9080TIP3   OH248654   0.595   0.846  13.459 -0.1338  0.2153  0.1666
 9080TIP3    H148655   0.542   0.797  13.521  0.5321  0.2753  0.7885
 9080TIP3    H248656   0.539   0.918  13.430 -1.3589 -1.2883 -1.2598
 9081TIP3   OH248657   3.824   6.340  13.456  0.2978  0.0294  0.2838
 9081TIP3    H148658   3.848   6.417  13.405 -0.7528  0.5214  0.5070
 9081TIP3    H248659   3.890   6.334  13.525 -0.9355  2.1427  1.7026
 9082TIP3   OH248660   1.300   0.929   1.329 -0.2153 -0.0021 -0.7534
 9082TIP3    H148661   1.245   0.955   1.403  1.2802  0.2579  0.2961
 9082TIP3    H248662   1.357   1.004   1.314  1.0322 -0.9263 -0.6862
 9083TIP3   OH248663   6.975   5.826  13.577 -0.2689  0.3857 -0.2528
 9083TIP3    H148664   6.986   5.782  13.661  1.4964  1.7077  0.2301
 9083TIP3    H248665   7.036   5.782  13.518 -0.5647  0.3155 -0.5111
 9084TIP3   OH248666   1.336   5.683  11.348 -0.0311 -0.0114  0.4147
 9084TIP3    H148667   1.273   5.690  11.276 -0.0624 -0.1344  0.4289
 9084TIP3    H248668   1.321   5.761  11.401 -0.2728 -0.1158  0.5002
 9085TIP3   OH248669   6.413   6.068  14.227  0.4075 -0.7124 -0.1811
 9085TIP3    H148670   6.343   6.133  14.237  1.9467  0.7465  1.3919
 9085TIP3    H248671   6.420   6.027  14.313  0.5540 -1.8503 -0.7243
 9086TIP3   OH248672   5.234   1.201  14.472 -0.3939 -0.4762 -0.7806
 9086TIP3    H148673   5.231   1.163  14.385 -0.3652  0.4802 -1.2069
 9086TIP3    H248674   5.278   1.135  14.526  1.2422 -0.3059 -1.8751
 9087TIP3   OH248675   2.299   6.209  14.933  0.0841  0.5269 -0.1120
 9087TIP3    H148676   2.231   6.148  14.962  0.3644  0.2697  0.0194
 9087TIP3    H248677   2.267   6.295  14.958 -0.0512  0.3793  0.2326
 9088TIP3   OH248678   1.868   7.219  14.290  0.0241  0.0575  0.2595
 9088TIP3    H148679   1.892   7.299  14.337  0.4403 -1.0466  1.9825
 9088TIP3    H248680   1.865   7.245  14.198  1.5935  1.7171  0.6464
 9089TIP3   OH248681   1.223   0.053  15.842  0.5000  0.2286 -0.1373
 9089TIP3    H148682   1.295   0.031  15.783  0.4211  0.2933 -0.2562
 9089TIP3    H248683   1.204   0.146  15.824  0.4605  0.2423 -0.0273
 9090TIP3   OH248684   1.459   1.705  14.074  0.3012 -0.4084 -0.4585
 9090TIP3    H148685   1.392   1.637  14.085 -0.6985  0.5405 -0.6083
 9090TIP3    H248686   1.475   1.737  14.162 -0.1205 -0.0045 -0.5248
 9091TIP3   OH248687   6.745   3.501  13.926  0.0054  0.1957  0.2198
 9091TIP3    H148688   6.725   3.439  13.996  0.8796 -0.8119 -0.4145
 9091TIP3    H248689   6.828   3.470  13.890 -1.5108 -0.5914 -2.7059
 9092TIP3   OH248690   2.884   4.384   1.062  0.5185 -0.4523 -0.0968
 9092TIP3    H148691   2.945   4.348   1.127  1.4608  0.7449 -0.2934
 9092TIP3    H248692   2.912   4.475   1.051 -2.0374  0.4788  0.6974
 9093TIP3   OH248693   4.080   6.198  15.532 -0.2560 -0.7411  0.1178
 9093TIP3    H148694   4.070   6.272  15.592  1.2478 -1.1167  0.8240
 9093TIP3    H248695   4.031   6.225  15.454 -0.5428  0.5822  0.7407
 9094TIP3   OH248696   4.433   0.437  13.392  0.2705  0.2254 -0.1909
 9094TIP3    H148697   4.345   0.456  13.425  0.1967  0.7617 -0.6839
 9094TIP3    H248698   4.450   0.347  13.419 -0.2892  0.2368  0.2140
 9095TIP3   OH248699   4.375   0.510  15.472 -0.1432  0.1730 -0.4096
 9095TIP3    H148700   4.388   0.429  15.521  3.3992  1.4398  0.9012
 9095TIP3    H248701   4.331   0.569  15.534 -1.8764 -0.3960 -1.0619
 9096TIP3   OH248702   5.604   1.411  15.370  0.1581  0.3736  0.7008
 9096TIP3    H148703   5.528   1.420  15.313  0.3225 -0.8592  0.2582
 9096TIP3    H248704   5.608   1.493  15.419 -1.1185  0.6723  0.3211
 9097TIP3   OH248705   4.090   6.116  13.742 -0.2498 -0.6947 -0.6498
 9097TIP3    H148706   4.175   6.124  13.785 -0.9094 -0.8003  0.6998
 9097TIP3    H248707   4.099   6.040  13.684  0.9348 -0.0095 -1.3945
 9098TIP3   OH248708   4.051   4.262  14.827  0.0472 -0.7670  0.4961
 9098TIP3    H148709   3.981   4.324  14.848  1.7703  1.4297  0.0054
 9098TIP3    H248710   4.091   4.241  14.911  0.4695  0.0685  0.5117
 9099TIP3   OH248711   2.374   2.121   0.266  0.0384  0.6043 -0.1493
 9099TIP3    H148712   2.302   2.179   0.291 -0.5794  0.0332 -0.5805
 9099TIP3    H248713   2.362   2.107   0.172  0.0579 -0.3809 -0.0143
 9100TIP3   OH248714   5.503   0.647  14.217 -0.1318 -0.1123  0.6336
 9100TIP3    H148715   5.477   0.715  14.154  2.4889  0.3236 -0.0279
 9100TIP3    H248716   5.432   0.647  14.281 -1.1932  1.8222 -0.4573
 9101TIP3   OH248717   4.948   4.449  11.396 -0.6419 -0.0138 -0.5583
 9101TIP3    H148718   4.965   4.466  11.303 -0.5265  1.9124 -0.2121
 9101TIP3    H248719   4.863   4.490  11.412  0.2687  1.4432  0.6377
 9102TIP3   OH248720   3.902   7.294  11.193  0.4839  0.5085 -0.0885
 9102TIP3    H148721   3.934   7.288  11.283  0.6822 -1.3671 -0.2522
 9102TIP3    H248722   3.816   7.253  11.195  0.2371  0.9952 -0.6279
 9103TIP3   OH248723   2.399   2.194  15.712 -0.4721  0.4067 -0.1364
 9103TIP3    H148724   2.329   2.130  15.720  0.7213 -0.7822  1.0705
 9103TIP3    H248725   2.464   2.166  15.776  1.2263  1.3377 -1.4281
 9104TIP3   OH248726   1.693   5.387  14.029 -0.3446  0.0868  0.9052
 9104TIP3    H148727   1.688   5.292  14.027  2.5395 -0.1119  0.4846
 9104TIP3    H248728   1.643   5.416  13.953 -1.2997 -1.0852  1.0792
 9105TIP3   OH248729   3.012   0.029  15.088  0.1531  0.0495  0.4857
 9105TIP3    H148730   2.916   0.032  15.082  0.3089  0.8077 -2.0653
 9105TIP3    H248731   3.041   0.113  15.053  1.6960  1.0651  3.9156
 9106TIP3   OH248732   1.689   6.825  15.792 -0.4070  0.0550  0.5642
 9106TIP3    H148733   1.620   6.821  15.725 -0.0593  1.5724  0.0953
 9106TIP3    H248734   1.765   6.861  15.746  0.8858 -2.0681  0.9497
 9107TIP3   OH248735   5.219   6.922  13.546 -0.1253  0.0551 -0.2936
 9107TIP3    H148736   5.175   6.877  13.618 -0.7955  0.3169 -0.5386
 9107TIP3    H248737   5.154   6.983  13.512  0.4114  0.4109 -0.6907
 9108TIP3   OH248738   5.889   5.556  14.223  0.4525  0.1034  0.3347
 9108TIP3    H148739   5.869   5.467  14.251 -0.7525  0.8383  1.8758
 9108TIP3    H248740   5.975   5.575  14.262  0.5701 -0.2765  0.2602
 9109TIP3   OH248741   2.036   6.937   1.201  0.5270  0.4726  0.2973
 9109TIP3    H148742   2.100   6.881   1.246 -0.0579 -0.2487  0.2536
 9109TIP3    H248743   1.978   6.875   1.156 -1.2368  1.0621  1.7325
 9110TIP3   OH248744   5.845   0.311  13.677 -0.5625  0.0521  0.1278
 9110TIP3    H148745   5.839   0.241  13.612  3.3205  0.5855 -0.9330
 9110TIP3    H248746   5.866   0.389  13.626 -0.0522  1.0203  1.7804
 9111TIP3   OH248747   2.870   0.766  14.791 -0.2430 -0.7333 -0.1446
 9111TIP3    H148748   2.880   0.764  14.887 -0.4844  1.8562 -0.0341
 9111TIP3    H248749   2.960   0.760  14.758  0.1247  1.3824  0.3588
 9112TIP3   OH248750   3.578   0.518  15.354  0.0913 -0.0865  0.4653
 9112TIP3    H148751   3.659   0.547  15.310 -1.2816  1.1046 -1.3340
 9112TIP3    H248752   3.549   0.594  15.403 -1.1783  0.2266 -0.7576
 9113TIP3   OH248753   7.298   6.017   1.270 -1.0562  0.1586 -0.6793
 9113TIP3    H148754   7.236   6.088   1.254 -1.6860 -0.4913 -1.1516
 9113TIP3    H248755   7.298   5.967   1.189  1.5818  1.2815 -1.4261
 9114TIP3   OH248756   1.715   6.111  14.326 -0.3278  0.6169  0.3456
 9114TIP3    H148757   1.769   6.111  14.405 -0.3713  0.8062  0.3771
 9114TIP3    H248758   1.711   6.204  14.300  1.5903  0.2954 -1.1894
 9115TIP3   OH248759   2.998   0.525  13.244 -0.3744  0.5392 -0.5525
 9115TIP3    H148760   2.956   0.523  13.158 -0.3181  0.5842 -0.5814
 9115TIP3    H248761   2.998   0.618  13.268 -0.2651  0.5440 -0.5676
 9116TIP3   OH248762   1.631   0.731  15.944 -0.4456 -0.7425  0.0706
 9116TIP3    H148763   1.543   0.729  15.982 -0.8499 -0.6260 -0.8615
 9116TIP3    H248764   1.628   0.800  15.879  0.2258 -0.9960 -0.2359
 9117TIP3   OH248765   5.221   5.573  14.712  0.1127 -0.8360 -0.1504
 9117TIP3    H148766   5.225   5.523  14.794  1.0273  0.0309  0.3368
 9117TIP3    H248767   5.127   5.576  14.692 -0.2397 -0.0580  1.4918
 9118TIP3   OH248768   1.307   6.528  14.471  0.3033 -0.0990  0.3685
 9118TIP3    H148769   1.372   6.468  14.508 -1.0266 -0.4684  2.1652
 9118TIP3    H248770   1.223   6.482  14.482 -0.5135  1.2850  0.0333
 9119TIP3   OH248771   6.384   7.250  13.586 -0.1281  0.0688 -0.3356
 9119TIP3    H148772   6.387   7.224  13.678 -1.4800  2.3407  0.3909
 9119TIP3    H248773   6.464   7.300  13.572  0.7845 -1.4938 -0.8059
 9120TIP3   OH248774   1.813   4.970  14.146 -0.3842  0.4941  0.3083
 9120TIP3    H148775   1.830   4.942  14.056  1.1255 -1.5106  1.2001
 9120TIP3    H248776   1.899   4.972  14.188 -1.3119 -0.7793  2.3270
 9121TIP3   OH248777   4.880   3.169   1.555 -0.0958  0.1336 -0.2204
 9121TIP3    H148778   4.855   3.091   1.604  0.6474 -0.2391 -0.4233
 9121TIP3    H248779   4.834   3.241   1.599 -1.5388 -0.5338 -0.6176
 9122TIP3   OH248780   0.619   5.555  12.774  0.3536 -0.0438 -0.8412
 9122TIP3    H148781   0.678   5.500  12.825 -0.9958  0.2475  1.0991
 9122TIP3    H248782   0.585   5.498  12.705  0.0598 -1.2338  0.2818
 9123TIP3   OH248783   1.719   6.966  14.364 -0.0416  0.5521  0.2532
 9123TIP3    H148784   1.766   7.041  14.326  0.6088  0.4155  0.7800
 9123TIP3    H248785   1.630   6.998  14.377 -0.5111  0.3269 -2.2202
 9124TIP3   OH248786   6.661   5.475  13.160  0.1421 -0.2648 -1.0012
 9124TIP3    H148787   6.725   5.490  13.090 -0.7105  1.7144 -1.4043
 9124TIP3    H248788   6.692   5.528  13.233  0.0980 -0.9688 -0.4707
 9125TIP3   OH248789   6.904   1.248  14.453  0.2733 -0.3606 -0.1941
 9125TIP3    H148790   6.883   1.165  14.411 -1.2824  1.0108 -2.2000
 9125TIP3    H248791   6.824   1.273  14.498 -0.2154  1.4107 -1.9695
 9126TIP3   OH248792   0.075   6.467  15.391  0.1749 -0.2735 -0.0630
 9126TIP3    H148793   0.075   6.392  15.450 -0.4852  1.2170  1.9085
 9126TIP3    H248794   0.166   6.496  15.389 -0.1005  0.8942  1.9280
 9127TIP3   OH248795   3.372   6.880  15.670  0.1897  0.6998  0.4310
 9127TIP3    H148796   3.286   6.899  15.634 -0.4327 -1.6728  0.5593
 9127TIP3    H248797   3.434   6.922  15.610 -0.9973  1.0691 -0.5398
 9128TIP3   OH248798   1.551   5.023  11.860  0.0153 -0.1087 -0.5421
 9128TIP3    H148799   1.611   5.076  11.807  1.2793 -1.9191 -0.9587
 9128TIP3    H248800   1.464   5.051  11.833  0.6590  0.4132 -2.1132
 9129TIP3   OH248801   3.182   6.816  14.787 -0.2547  0.4579  0.0813
 9129TIP3    H148802   3.111   6.864  14.829  0.3480  1.3433  0.1235
 9129TIP3    H248803   3.142   6.736  14.754 -1.0081  0.3683  1.1889
 9130TIP3   OH248804   1.380   4.109  12.059  0.6289  0.1858  0.2106
 9130TIP3    H148805   1.471   4.131  12.082  0.3055 -0.6572  2.4162
 9130TIP3    H248806   1.368   4.020  12.090 -0.8408  0.1246 -0.4825
 9131TIP3   OH248807   1.510   5.348  12.238 -0.5173 -0.2227 -0.3466
 9131TIP3    H148808   1.554   5.354  12.323  0.2500  2.0162 -0.8597
 9131TIP3    H248809   1.511   5.254  12.217 -0.3390 -0.7487  1.8954
 9132TIP3   OH248810   2.882   5.442  12.470 -0.3006  0.4198 -0.1332
 9132TIP3    H148811   2.955   5.495  12.438 -1.4256  0.8336 -2.0220
 9132TIP3    H248812   2.841   5.496  12.538  1.2379  0.1112  1.0744
 9133TIP3   OH248813   7.251   4.766  13.854 -0.2970  0.6121  0.0380
 9133TIP3    H148814   7.156   4.779  13.858 -0.4678 -0.5703  0.1060
 9133TIP3    H248815   7.287   4.839  13.903 -1.2183  0.6057  0.7507
 9134TIP3   OH248816   1.651   4.822  14.822 -0.7210  0.0742  0.4887
 9134TIP3    H148817   1.644   4.911  14.858  2.7005  0.7396 -0.2601
 9134TIP3    H248818   1.735   4.791  14.854  0.2742 -1.0747 -3.1102
 9135TIP3   OH248819   1.063   4.721  15.972 -0.0091 -0.8930 -0.4777
 9135TIP3    H148820   1.084   4.724  16.066 -1.3532  0.1558 -0.1905
 9135TIP3    H248821   0.985   4.665  15.967 -1.8410  1.6193 -0.5770
 9136TIP3   OH248822   2.368   4.905  15.166  0.0575  0.5432 -0.4473
 9136TIP3    H148823   2.297   4.941  15.113 -1.9877 -2.8915 -0.1433
 9136TIP3    H248824   2.323   4.859  15.237  2.6438 -0.5951  0.4837
 9137TIP3   OH248825   4.132   4.581  13.584  0.4206 -0.2384 -0.1003
 9137TIP3    H148826   4.070   4.589  13.512  1.0842 -1.4854 -0.8483
 9137TIP3    H248827   4.196   4.650  13.569  0.6416 -0.5954 -0.7937
 9138TIP3   OH248828   5.389   5.231  14.766  0.0315  0.1020  0.1306
 9138TIP3    H148829   5.392   5.136  14.776  0.3171 -0.2284 -2.6084
 9138TIP3    H248830   5.481   5.258  14.768  0.3407 -0.3179 -3.7996
 9139TIP3   OH248831   1.366   1.600  11.820  0.1615 -0.2925  0.4427
 9139TIP3    H148832   1.306   1.659  11.774  0.0544 -1.5447 -1.0896
 9139TIP3    H248833   1.451   1.643  11.815 -0.1461  0.3107  0.4052
 9140TIP3   OH248834   4.492   0.148  13.455  0.6806 -0.0446 -0.1261
 9140TIP3    H148835   4.432   0.104  13.514  0.7510  0.7681  0.5565
 9140TIP3    H248836   4.485   0.100  13.373 -1.0834  0.1969 -0.1261
 9141TIP3   OH248837   1.490   7.239  13.298 -0.2778  0.2187  0.6819
 9141TIP3    H148838   1.435   7.221  13.221  0.8594  0.7037 -0.2592
 9141TIP3    H248839   1.510   7.152  13.332 -0.0981 -0.0464 -0.0730
 9142TIP3   OH248840   6.627   5.555  13.441 -0.6432  0.2083  0.0898
 9142TIP3    H148841   6.665   5.479  13.486  0.5528  0.5604 -0.3082
 9142TIP3    H248842   6.532   5.545  13.454 -0.5503 -1.6687 -0.4404
 9143TIP3   OH248843   5.278   4.823  14.474 -0.0913  0.3072 -0.7593
 9143TIP3    H148844   5.297   4.731  14.457 -1.2136  0.2779 -1.9556
 9143TIP3    H248845   5.241   4.825  14.562  0.9259 -0.2318 -0.3056
 9144TIP3   OH248846   5.034   0.916  14.671  0.2978  0.3927  0.6261
 9144TIP3    H148847   5.094   0.888  14.602 -0.7779 -0.8547  0.1778
 9144TIP3    H248848   5.084   0.980  14.721  0.2881  3.2668 -2.8102
 9145TIP3   OH248849   4.273   5.617  13.073  0.3410 -0.2964  0.2254
 9145TIP3    H148850   4.352   5.596  13.023 -0.6036 -2.4930 -0.4320
 9145TIP3    H248851   4.275   5.712  13.082  1.5481 -0.0225 -2.3019
 9146TIP3   OH248852   0.991   5.089  13.092 -0.3027 -0.1451 -0.0694
 9146TIP3    H148853   0.900   5.063  13.110  0.3694 -3.5740 -1.1360
 9146TIP3    H248854   0.998   5.177  13.126 -3.4128 -0.6421  2.0888
 9147TIP3   OH248855   0.799   6.399  14.439  0.1285 -0.7821 -0.2919
 9147TIP3    H148856   0.764   6.312  14.418 -0.9340 -0.3948 -0.1726
 9147TIP3    H248857   0.722   6.450  14.465  1.0062 -0.3248  1.4309
 9148TIP3   OH248858   2.214   0.331   3.160 -0.0173  0.0273  0.1208
 9148TIP3    H148859   2.160   0.277   3.102 -0.1526  0.5646 -0.2563
 9148TIP3    H248860   2.213   0.284   3.244 -0.4403 -0.3631 -0.0993
 9149TIP3   OH248861   0.686   7.121  15.453 -0.0185 -0.0128  0.3902
 9149TIP3    H148862   0.590   7.128  15.449  0.1160  1.8776  0.0241
 9149TIP3    H248863   0.715   7.154  15.368  0.9846 -0.4037  0.5760
 9150TIP3   OH248864   2.899   6.245   0.373 -0.4269 -0.0228  0.1510
 9150TIP3    H148865   2.916   6.209   0.460 -1.2959  0.9107  0.7148
 9150TIP3    H248866   2.973   6.215   0.320  0.3075 -0.2729  1.3031
 9151TIP3   OH248867   3.240   6.458   1.799 -0.2086  0.1317  0.2973
 9151TIP3    H148868   3.311   6.494   1.853  0.8790 -0.2804 -0.8281
 9151TIP3    H248869   3.188   6.534   1.775 -0.4120  0.3882  1.4905
 9152TIP3   OH248870   1.282   2.781  14.067 -0.7844 -0.3124 -0.3774
 9152TIP3    H148871   1.286   2.864  14.019 -2.0406 -0.5214 -0.8930
 9152TIP3    H248872   1.247   2.719  14.003 -3.9883 -0.2663  1.1891
 9153TIP3   OH248873   5.361   5.947  15.926  0.3816 -0.2762  0.4464
 9153TIP3    H148874   5.400   6.034  15.919  1.1717 -0.4873  1.9786
 9153TIP3    H248875   5.425   5.896  15.976  1.4295 -2.6576 -3.0975
 9154TIP3   OH248876   3.137   2.031   0.125  0.2976 -0.7085 -0.0483
 9154TIP3    H148877   3.212   2.059   0.073  0.7655  0.5267  1.2278
 9154TIP3    H248878   3.157   1.941   0.150  2.4193  0.2698  2.0294
 9155TIP3   OH248879   1.597   3.707  13.423  0.0555  0.3081  0.1982
 9155TIP3    H148880   1.654   3.632  13.437  0.5755  1.1747  3.0619
 9155TIP3    H248881   1.508   3.673  13.435  0.4176  0.7300  4.8642
 9156TIP3   OH248882   5.135   6.627  11.364 -0.6540 -0.2618  0.2452
 9156TIP3    H148883   5.096   6.613  11.450  0.2602  1.1598  0.8959
 9156TIP3    H248884   5.061   6.647  11.307 -1.1714 -0.3717  0.8765
 9157TIP3   OH248885   1.129   6.241  14.245 -0.3848  0.2862  0.2376
 9157TIP3    H148886   1.142   6.307  14.177 -1.5787  4.0222  3.4295
 9157TIP3    H248887   1.036   6.248  14.268 -0.7433 -3.1105  0.1671
 9158TIP3   OH248888   6.271   4.535  11.429  0.7108 -0.0975  0.6455
 9158TIP3    H148889   6.311   4.520  11.343  0.4600  2.5718  0.0159
 9158TIP3    H248890   6.193   4.480  11.429 -1.1303  2.3850 -2.2246
 9159TIP3   OH248891   2.294   0.196  12.306  0.0958  0.3355  0.9624
 9159TIP3    H148892   2.305   0.281  12.349  0.9845  0.0602  1.2706
 9159TIP3    H248893   2.341   0.134  12.362  0.5129 -0.1615  0.0606
 9160TIP3   OH248894   0.778   6.697  15.257  0.3585 -0.3220 -0.2662
 9160TIP3    H148895   0.714   6.672  15.324  1.0857 -1.0563  0.1612
 9160TIP3    H248896   0.833   6.762  15.300 -1.1949  1.6588 -1.2043
 9161TIP3   OH248897   3.365   0.021  13.283  0.2412  0.3260 -0.3889
 9161TIP3    H148898   3.298   0.075  13.241  1.1513  1.5137 -0.3571
 9161TIP3    H248899   3.328  -0.002  13.368 -0.2128  0.8142 -0.4531
 9162TIP3   OH248900   0.579   5.123  10.371  0.2452 -0.1156  0.2668
 9162TIP3    H148901   0.565   5.032  10.397  0.9220 -0.5769 -0.9276
 9162TIP3    H248902   0.667   5.123  10.332 -0.7817  0.5005 -2.1277
 9163TIP3   OH248903   2.887   6.234  12.518 -0.4761  0.1247  0.4179
 9163TIP3    H148904   2.958   6.299  12.513 -0.9060  0.5651 -0.0263
 9163TIP3    H248905   2.830   6.267  12.587 -1.1707  0.7027 -0.4245
 9164TIP3   OH248906   4.620   7.182   0.025  0.3166  0.5487 -0.1486
 9164TIP3    H148907   4.529   7.153   0.024  1.0126 -1.8112  2.1222
 9164TIP3    H248908   4.626   7.242  -0.050 -2.5643 -0.8594 -1.6022
 9165TIP3   OH248909   1.488   0.767  14.053 -0.2127 -0.2790 -0.1879
 9165TIP3    H148910   1.521   0.678  14.062  2.1725  0.3907 -1.8513
 9165TIP3    H248911   1.410   0.759  13.998  0.2027 -1.2787 -0.6304
 9166TIP3   OH248912   6.312   2.569  11.701  0.0102  0.1842  0.1425
 9166TIP3    H148913   6.229   2.569  11.748 -1.3495  1.5317 -2.1462
 9166TIP3    H248914   6.356   2.650  11.728 -0.5710  0.7358 -0.5400
 9167TIP3   OH248915   0.939   7.019  11.029 -0.1552  0.0007 -0.2758
 9167TIP3    H148916   0.954   6.924  11.030  1.4947  0.2393 -0.3910
 9167TIP3    H248917   0.944   7.045  11.121  2.8617  0.4444 -0.5021
 9168TIP3   OH248918   0.596   5.761  12.045 -0.4459 -0.3852 -0.2709
 9168TIP3    H148919   0.546   5.682  12.065 -0.6457  0.3181  2.2521
 9168TIP3    H248920   0.532   5.821  12.007 -1.2234 -0.0719  1.4421
 9169TIP3   OH248921   3.696   1.291   0.121 -0.2293 -0.0058 -0.5983
 9169TIP3    H148922   3.788   1.276   0.101  0.5526  0.9398  2.1257
 9169TIP3    H248923   3.663   1.205   0.146  0.4827  0.0525  0.5647
 9170TIP3   OH248924   7.159   4.076  12.262  0.3260  0.2335 -0.0827
 9170TIP3    H148925   7.229   4.071  12.197 -0.4905  0.1345 -0.9755
 9170TIP3    H248926   7.177   4.155  12.312  0.4611  0.7989 -1.0226
 9171TIP3   OH248927   2.244   3.785  14.319  0.5519 -0.0338  0.1544
 9171TIP3    H148928   2.308   3.722  14.353  0.8300 -0.0635 -0.4239
 9171TIP3    H248929   2.297   3.852  14.276  0.3039  0.9877  1.4090
 9172TIP3   OH248930   6.899   6.250  15.964 -0.2678 -0.6439  0.2685
 9172TIP3    H148931   6.865   6.178  16.018  1.3269 -0.4406  1.6216
 9172TIP3    H248932   6.912   6.322  16.026  1.5671 -0.3930 -0.3741
 9173TIP3   OH248933   2.790   6.371   3.839 -0.6673 -0.2052  0.0237
 9173TIP3    H148934   2.800   6.317   3.762  0.8061 -1.2022  0.8812
 9173TIP3    H248935   2.729   6.324   3.895  4.1832 -3.5745  2.8844
 9174TIP3   OH248936   6.952   5.705  13.859 -0.1386 -0.5932 -0.2721
 9174TIP3    H148937   6.877   5.764  13.858 -0.0899 -0.5470 -1.2213
 9174TIP3    H248938   7.006   5.736  13.932  0.1005  0.8082 -1.0303
 9175TIP3   OH248939   3.879   6.214  14.090  0.1153 -0.0705  0.5237
 9175TIP3    H148940   3.954   6.274  14.084  0.2551 -0.4147 -1.2005
 9175TIP3    H248941   3.814   6.263  14.141  1.4099  0.3171  1.8479
 9176TIP3   OH248942   3.803   3.632  12.646 -0.3661  0.3961  0.5375
 9176TIP3    H148943   3.886   3.676  12.665 -0.1308  1.0396 -1.8148
 9176TIP3    H248944   3.757   3.693  12.587 -2.3893 -0.0829  1.5886
 9177TIP3   OH248945   3.340   7.191  13.800  0.4564  0.0717  0.3209
 9177TIP3    H148946   3.429   7.223  13.816  0.2954  0.4909  0.3771
 9177TIP3    H248947   3.302   7.180  13.887 -0.2595  1.9118  0.2552
 9178TIP3   OH248948   5.264   6.194  12.809  1.0321 -0.1378 -0.4708
 9178TIP3    H148949   5.202   6.255  12.847  1.5146 -0.4439  0.8402
 9178TIP3    H248950   5.327   6.249  12.762  1.2290  0.3367  0.3534
 9179TIP3   OH248951   1.161   0.958   0.597  0.5227  0.2265  0.9523
 9179TIP3    H148952   1.227   0.901   0.636  2.5507  0.3506 -2.0944
 9179TIP3    H248953   1.092   0.899   0.567  0.7679 -0.2283  1.2750
 9180TIP3   OH248954   2.229   5.502  14.847  0.5631  0.6414  0.5748
 9180TIP3    H148955   2.165   5.532  14.783 -0.0198 -1.8077 -0.0460
 9180TIP3    H248956   2.310   5.547  14.823 -0.1871  1.4215 -0.5268
 9181TIP3   OH248957   2.160   5.282   3.415 -0.0423 -0.0065 -0.2003
 9181TIP3    H148958   2.225   5.330   3.363  0.5094  1.2261  1.5900
 9181TIP3    H248959   2.081   5.335   3.408  0.6562  1.3841  2.0454
 9182TIP3   OH248960   2.255   0.167  15.522 -0.4618 -0.3576  0.1253
 9182TIP3    H148961   2.297   0.092  15.481 -0.9356 -1.0326  0.8637
 9182TIP3    H248962   2.174   0.131  15.560 -0.5945  0.4850  0.6463
 9183TIP3   OH248963   2.100   0.007  10.490  0.5900  0.3898  0.4911
 9183TIP3    H148964   2.138  -0.006  10.404  0.2634  1.2049  0.2210
 9183TIP3    H248965   2.078  -0.081  10.520 -1.1772  0.2500 -1.1161
 9184TIP3   OH248966   6.198   1.533   0.635 -0.3700  0.3468 -0.3367
 9184TIP3    H148967   6.194   1.438   0.639 -0.0039  0.3699  0.6991
 9184TIP3    H248968   6.271   1.557   0.693 -0.6044  1.2674 -0.4069
 9185TIP3   OH248969   4.534   1.502   1.403 -0.2475  0.1151 -1.0981
 9185TIP3    H148970   4.608   1.463   1.357  0.9513  0.6746  0.3125
 9185TIP3    H248971   4.470   1.431   1.409  0.4826 -0.6046 -1.6713
 9186TIP3   OH248972   2.583   2.927   0.177 -0.0043 -0.1819  0.5643
 9186TIP3    H148973   2.581   2.832   0.189 -0.8671  0.0438  2.3569
 9186TIP3    H248974   2.628   2.960   0.255 -1.9243  1.0452  1.1889
 9187TIP3   OH248975   2.298   6.815  12.176  0.0456 -0.1833  0.0190
 9187TIP3    H148976   2.258   6.729  12.193  0.3323 -0.2975  0.1223
 9187TIP3    H248977   2.328   6.844  12.262 -2.0282  1.0329  0.3680
 9188TIP3   OH248978   1.499   1.323  15.126  0.3672 -0.7410 -0.2017
 9188TIP3    H148979   1.445   1.397  15.100  0.1240 -0.4617  1.0339
 9188TIP3    H248980   1.515   1.275  15.045 -0.4627  0.0044 -0.8227
 9189TIP3   OH248981   2.698   4.538  14.331  0.5675  0.0458 -0.5709
 9189TIP3    H148982   2.735   4.551  14.244 -0.6010 -0.8962 -1.2263
 9189TIP3    H248983   2.648   4.618  14.348  0.3920  0.0191 -0.9734
 9190TIP3   OH248984   0.911   0.708  15.849 -0.7874  0.4654 -0.0143
 9190TIP3    H148985   0.913   0.654  15.928 -1.6999 -0.5790 -0.7037
 9190TIP3    H248986   0.836   0.766  15.861 -1.4074 -0.2393 -0.4708
 9191TIP3   OH248987   2.567   7.131  11.567  0.3044  0.6063 -0.1664
 9191TIP3    H148988   2.517   7.058  11.530 -0.3413  0.7228  0.4620
 9191TIP3    H248989   2.610   7.094  11.644 -0.8373  1.1281  0.7386
 9192TIP3   OH248990   2.006   6.705   1.445 -0.1349  0.2258  0.2337
 9192TIP3    H148991   1.977   6.614   1.439 -2.2309  0.9455 -1.4569
 9192TIP3    H248992   1.929   6.756   1.418  1.8511  2.3541 -1.6519
 9193TIP3   OH248993   5.708   0.883  14.527  0.2616  0.2165  0.3235
 9193TIP3    H148994   5.634   0.920  14.479  0.1709 -1.3354 -0.7645
 9193TIP3    H248995   5.707   0.790  14.505  2.1654  0.0638  0.7994
 9194TIP3   OH248996   3.779   4.381  13.776  0.0150 -0.1054 -0.4786
 9194TIP3    H148997   3.870   4.356  13.789 -0.1502  0.3113  1.5500
 9194TIP3    H248998   3.784   4.466  13.732  0.6341  0.8157  1.3346
 9195TIP3   OH248999   6.281   4.415  10.839 -0.0891  0.1103 -0.3210
 9195TIP3    H149000   6.356   4.355  10.842 -0.2452 -0.0058  1.5325
 9195TIP3    H249001   6.208   4.359  10.812  0.4742  0.2395 -2.2138
 9196TIP3   OH249002   2.851   4.687   1.002 -0.3597 -0.3802 -0.2310
 9196TIP3    H149003   2.766   4.727   0.979  0.7461 -0.0904 -4.1792
 9196TIP3    H249004   2.913   4.760   0.999  0.7887 -1.3960 -2.1854
 9197TIP3   OH249005   2.117   7.027  15.392  0.0806  0.0477  0.2245
 9197TIP3    H149006   2.085   7.087  15.459 -0.8906 -0.2481  0.0427
 9197TIP3    H249007   2.077   6.943  15.414  2.4711 -0.8729  1.2372
 9198TIP3   OH249008   1.833   5.400   0.769 -0.3921  0.0285 -0.4050
 9198TIP3    H149009   1.868   5.478   0.725 -0.7492 -0.1629 -1.0403
 9198TIP3    H249010   1.770   5.364   0.707  0.2948 -1.1839 -0.4171
 9199TIP3   OH249011   4.613   3.143   0.575  0.0155  0.0650 -0.6613
 9199TIP3    H149012   4.560   3.178   0.646  1.2056  1.9003 -0.6272
 9199TIP3    H249013   4.634   3.054   0.601  0.6394  0.7933  1.4231
 9200TIP3   OH249014   2.507   5.018   0.287 -0.3707  0.0799 -0.3343
 9200TIP3    H149015   2.537   4.929   0.306  0.8566  0.6633  0.4943
 9200TIP3    H249016   2.583   5.073   0.306 -0.8934  1.2341 -1.5545
 9201TIP3   OH249017   1.567   4.786  12.375  0.1795 -0.4358  0.0422
 9201TIP3    H149018   1.574   4.776  12.470 -0.1760  1.4477  0.2738
 9201TIP3    H249019   1.629   4.855  12.353  0.2430 -0.8545 -1.1022
 9202TIP3   OH249020   4.548   3.225   0.300  0.3526 -0.3111  0.1195
 9202TIP3    H149021   4.578   3.195   0.386 -0.8786  2.5627  1.6392
 9202TIP3    H249022   4.546   3.321   0.308 -0.6786 -0.0478 -2.8137
 9203TIP3   OH249023   3.413   6.209  14.326 -0.6460 -0.2546 -0.0647
 9203TIP3    H149024   3.376   6.295  14.305 -1.0728 -0.8395 -1.8377
 9203TIP3    H249025   3.382   6.152  14.255 -2.2608 -2.3949  2.2775
 9204TIP3   OH249026   2.110   2.531  14.261 -0.6728 -0.3785 -0.1993
 9204TIP3    H149027   2.027   2.562  14.225 -1.3623 -1.0273  0.8057
 9204TIP3    H249028   2.096   2.530  14.356  0.5563 -0.2894 -0.0080
 9205TIP3   OH249029   5.399   5.843   0.796  0.9237 -0.3044  0.1047
 9205TIP3    H149030   5.425   5.852   0.888 -0.3835  2.4645  0.2713
 9205TIP3    H249031   5.342   5.767   0.794  0.1110  0.2367  1.8131
 9206TIP3   OH249032   4.581   6.734  15.528  0.0378  0.5699 -0.4544
 9206TIP3    H149033   4.511   6.793  15.499 -0.2254 -0.0121 -1.0042
 9206TIP3    H249034   4.594   6.674  15.455 -0.1675 -0.4947  0.3746
 9207TIP3   OH249035   3.402   5.306  15.495  0.5915 -0.5503  0.2916
 9207TIP3    H149036   3.404   5.388  15.446  1.2681 -1.0270 -0.4910
 9207TIP3    H249037   3.310   5.296  15.522  0.1753 -0.3533 -1.0182
 9208TIP3   OH249038   1.699   6.534   0.208 -0.1776 -0.4237  0.2714
 9208TIP3    H149039   1.607   6.551   0.227  0.0154 -0.6041  1.4177
 9208TIP3    H249040   1.716   6.447   0.246 -0.0035 -1.2237 -1.5667
 9209TIP3   OH249041   3.233   6.541   2.463  0.5094 -0.0941 -0.3808
 9209TIP3    H149042   3.195   6.629   2.469 -0.0736 -0.3443 -0.3916
 9209TIP3    H249043   3.161   6.486   2.433  0.9304 -0.5407 -0.5710
 9210TIP3   OH249044   3.956   6.608  15.340 -0.0505 -0.1415  0.5639
 9210TIP3    H149045   3.909   6.635  15.261 -0.4065 -1.6066  0.2703
 9210TIP3    H249046   3.889   6.567  15.395  0.6386 -1.1056  0.6872
 9211TIP3   OH249047   3.218   0.559   2.846 -0.0167 -0.5170  0.4338
 9211TIP3    H149048   3.257   0.472   2.859 -0.8211 -0.9615 -0.0360
 9211TIP3    H249049   3.287   0.611   2.805  0.3751 -1.0298  0.4358
 9212TIP3   OH249050   4.655   7.128  11.854  0.1239  0.1000  0.2021
 9212TIP3    H149051   4.667   7.033  11.847 -2.1519 -0.4065  2.6659
 9212TIP3    H249052   4.581   7.147  11.796 -0.9591 -0.0109  1.5278
 9213TIP3   OH249053   2.042   3.304  14.570  0.1844 -0.9513 -0.4401
 9213TIP3    H149054   2.071   3.342  14.653  2.2346 -1.7526 -0.7490
 9213TIP3    H249055   1.968   3.359  14.543  0.5656  0.3493  1.0727
 9214TIP3   OH249056   4.875   0.655  12.803  0.2656 -0.1646  0.0837
 9214TIP3    H149057   4.801   0.594  12.808 -1.9860  2.3598 -0.8846
 9214TIP3    H249058   4.872   0.702  12.886  0.7661 -0.0174  0.0163
 9215TIP3   OH249059   1.987   1.100  14.527 -0.3162 -0.1755  0.0037
 9215TIP3    H149060   1.965   1.028  14.467 -0.0510 -0.0837 -0.2029
 9215TIP3    H249061   2.059   1.145  14.484  1.2795 -1.3589  1.3836
 9216TIP3   OH249062   3.575   6.572  13.998 -0.9059 -0.4614  0.2620
 9216TIP3    H149063   3.518   6.565  13.921 -2.3238 -1.9247  1.3827
 9216TIP3    H249064   3.524   6.531  14.068  0.5296  0.4684  1.8861
 9217TIP3   OH249065   2.059   5.940  15.646  0.1651 -0.1180 -0.3147
 9217TIP3    H149066   2.009   5.881  15.703 -0.9559 -0.5904 -1.7407
 9217TIP3    H249067   2.063   5.893  15.563  0.2440  1.3362 -1.1297
 9218TIP3   OH249068   2.551   2.485  13.664  0.2969 -0.4693 -0.2113
 9218TIP3    H149069   2.550   2.390  13.655  0.6204 -0.3354 -1.7332
 9218TIP3    H249070   2.476   2.515  13.612 -1.6429 -0.0692  2.6902
 9219TIP3   OH249071   2.522   6.502  13.995  0.3868  0.1042  0.0644
 9219TIP3    H149072   2.442   6.454  13.975 -0.2955  0.4991  1.7798
 9219TIP3    H249073   2.562   6.453  14.068  2.2617 -0.6977 -1.4482
 9220TIP3   OH249074   2.502   7.222  13.901 -0.0265  0.5281  0.4559
 9220TIP3    H149075   2.458   7.197  13.820 -0.9149  0.8185  0.8431
 9220TIP3    H249076   2.433   7.217  13.968  0.4216  1.3987  0.9897
 9221TIP3   OH249077   1.514   6.488  15.555  0.1077 -0.7543 -0.0997
 9221TIP3    H149078   1.559   6.480  15.640  0.0943  1.8682  0.2018
 9221TIP3    H249079   1.585   6.497  15.492  0.0964 -1.6472 -0.2407
 9222TIP3   OH249080   4.064   7.061   0.553 -0.1037 -0.3842  0.0032
 9222TIP3    H149081   4.089   7.125   0.619  0.6138 -1.5257  0.8761
 9222TIP3    H249082   4.006   7.001   0.599  1.8883 -2.2714  0.1512
 9223TIP3   OH249083   3.468   6.035  15.650  0.4235 -0.1575 -0.1559
 9223TIP3    H149084   3.439   6.106  15.708 -2.5457  0.4620 -2.2612
 9223TIP3    H249085   3.560   6.023  15.670  0.5318  3.0457  1.5471
 9224TIP3   OH249086   0.439   4.851  11.018  0.3148 -0.4370 -0.3057
 9224TIP3    H149087   0.474   4.852  11.107  0.3688 -0.9234 -0.3202
 9224TIP3    H249088   0.495   4.790  10.971  0.2418 -0.2358 -0.6564
 9225TIP3   OH249089   2.158   2.607  13.721 -0.1389  0.5301 -0.1276
 9225TIP3    H149090   2.146   2.551  13.798 -0.4611  1.2359  0.3398
 9225TIP3    H249091   2.204   2.552  13.658  0.2041 -0.0237  0.6031
 9226TIP3   OH249092   5.939   2.759  13.763  0.1245 -0.2465 -0.1055
 9226TIP3    H149093   5.870   2.694  13.774  1.2985 -1.8823 -2.2172
 9226TIP3    H249094   5.911   2.833  13.818 -1.2541 -2.4677  2.3046
 9227TIP3   OH249095   1.526   6.707  14.496  0.2008 -0.2591 -0.1738
 9227TIP3    H149096   1.451   6.650  14.480 -0.0296 -0.0490  0.1454
 9227TIP3    H249097   1.543   6.748  14.411  1.5072 -2.1375 -0.8533
 9228TIP3   OH249098   5.267   5.974   2.770  0.2693 -0.4757 -0.5562
 9228TIP3    H149099   5.298   5.891   2.734 -0.9968 -1.0487 -0.3634
 9228TIP3    H249100   5.241   5.953   2.860  0.4600  0.2553 -0.3260
 9229TIP3   OH249101   3.507   7.240  14.825 -0.5620  0.1587 -0.5157
 9229TIP3    H149102   3.543   7.207  14.743  0.9948  1.0018 -0.1877
 9229TIP3    H249103   3.558   7.319  14.844  0.1897 -0.8758  2.0787
 9230TIP3   OH249104   1.406   1.519  13.099 -0.4970  0.5474  0.2439
 9230TIP3    H149105   1.456   1.439  13.085  0.0008  0.7163  1.0254
 9230TIP3    H249106   1.334   1.493  13.157 -0.5373  0.5941  0.2155
 9231TIP3   OH249107   1.194   3.473  11.986 -0.5373  0.2501  0.3355
 9231TIP3    H149108   1.175   3.504  12.075 -0.4927  0.5548  0.2387
 9231TIP3    H249109   1.108   3.460  11.946 -0.5556  0.5862  0.2613
 9232TIP3   OH249110   5.695   4.088  14.601 -0.4711 -0.0714 -0.0923
 9232TIP3    H149111   5.713   4.021  14.667 -0.1703 -1.5239 -1.5950
 9232TIP3    H249112   5.752   4.065  14.528 -2.0424  0.4645 -1.5241
 9233TIP3   OH249113   4.706   1.592  13.174  0.1644  0.1484 -0.1994
 9233TIP3    H149114   4.614   1.615  13.183  0.1270 -0.5514  1.3224
 9233TIP3    H249115   4.728   1.617  13.084 -2.1922 -2.1299 -1.4728
 9234TIP3   OH249116   2.630   2.878  15.108  0.0683  0.6236 -0.5126
 9234TIP3    H149117   2.676   2.826  15.043  1.0622  0.1111  0.5802
 9234TIP3    H249118   2.691   2.947  15.131 -0.2585  0.7745 -0.0899
 9235TIP3   OH249119   3.936   5.693  13.508 -0.0785 -0.1807  0.1091
 9235TIP3    H149120   4.004   5.647  13.459  0.3628 -0.2971  0.8269
 9235TIP3    H249121   3.977   5.775  13.534 -0.1746 -0.3094  0.6596
 9236TIP3   OH249122   2.440   6.177  14.371 -0.2739  0.4041 -0.1099
 9236TIP3    H149123   2.380   6.105  14.393  0.2448 -0.1253 -0.4369
 9236TIP3    H249124   2.442   6.230  14.451 -0.5847  0.0066  0.1691
 9237TIP3   OH249125   3.182   0.663  14.286  0.1905  0.3338  0.2327
 9237TIP3    H149126   3.118   0.595  14.267  0.6394 -0.0626  0.1603
 9237TIP3    H249127   3.262   0.616  14.307 -0.2282  0.7201  2.9845
 9238TIP3   OH249128   1.543   7.157   0.122  0.2309  0.1314 -0.3846
 9238TIP3    H149129   1.615   7.210   0.155  0.6140 -0.8953  0.4395
 9238TIP3    H249130   1.489   7.218   0.073  0.6051  1.3153  0.6594
 9239TIP3   OH249131   0.579   6.235  15.574 -0.1681 -0.0574 -0.0290
 9239TIP3    H149132   0.557   6.327  15.586 -0.4904  0.1249 -1.8095
 9239TIP3    H249133   0.674   6.231  15.582  0.0834  0.8278 -2.1262
 9240TIP3   OH249134   4.171   4.887  14.533  0.0437  0.6908  0.1923
 9240TIP3    H149135   4.152   4.836  14.453 -0.5078  1.4936 -0.1917
 9240TIP3    H249136   4.087   4.893  14.578 -0.1111  2.1726 -0.2907
 9241TIP3   OH249137   1.788   5.321  12.339 -0.0308  0.0892 -0.0816
 9241TIP3    H149138   1.807   5.264  12.414  0.6727  0.1774 -0.1921
 9241TIP3    H249139   1.740   5.395  12.377 -0.2142 -0.1645  0.1892
 9242TIP3   OH249140   1.091   1.535  15.217  0.2745 -0.3368 -0.7418
 9242TIP3    H149141   1.015   1.594  15.210  0.7257  0.5888  1.6951
 9242TIP3    H249142   1.096   1.514  15.310  3.0631 -0.3350 -0.8750
 9243TIP3   OH249143   2.938   4.717  13.859 -0.3578 -0.5276  0.2510
 9243TIP3    H149144   2.890   4.795  13.886 -0.5161  0.3671 -2.4440
 9243TIP3    H249145   2.873   4.647  13.860 -0.4258 -0.4451  1.8450
 9244TIP3   OH249146   1.565   3.670  14.720  0.1692 -0.3256  0.1589
 9244TIP3    H149147   1.552   3.762  14.697  1.2539 -0.5585 -1.4257
 9244TIP3    H249148   1.517   3.659  14.803  0.0969  1.6661  0.3998
 9245TIP3   OH249149   5.370   4.654  15.986  0.3732  0.1814  0.4891
 9245TIP3    H149150   5.290   4.612  16.016 -0.4054  1.4172  0.1899
 9245TIP3    H249151   5.352   4.678  15.895  1.4398 -0.3893  0.1146
 9246TIP3   OH249152   0.631   2.782  11.431  0.1090  0.4069  0.5021
 9246TIP3    H149153   0.549   2.755  11.390  0.0847  0.5644  0.4436
 9246TIP3    H249154   0.690   2.708  11.418  0.2416  0.6323 -0.2249
 9247TIP3   OH249155   4.204   6.022  12.602 -0.0340  0.0388  0.2360
 9247TIP3    H149156   4.250   6.070  12.671  0.3623 -0.3584  0.2453
 9247TIP3    H249157   4.272   5.999  12.539 -0.4347  0.6430 -0.4327
 9248TIP3   OH249158   6.078   6.253  13.827  0.1159  0.4233  0.6414
 9248TIP3    H149159   6.054   6.346  13.834 -1.7929 -0.1936  3.1681
 9248TIP3    H249160   6.172   6.251  13.846  0.2853  1.8939  0.0328
 9249TIP3   OH249161   1.704   3.092  13.102  0.0192  0.0547  0.0803
 9249TIP3    H149162   1.692   3.186  13.117 -1.9864  0.0484 -1.2611
 9249TIP3    H249163   1.793   3.085  13.067 -0.8266  1.8352 -2.5695
 9250TIP3   OH249164   5.289   1.915  15.655  0.5845  0.2906  0.7029
 9250TIP3    H149165   5.381   1.913  15.681  0.2712  1.6345  2.0063
 9250TIP3    H249166   5.247   1.846  15.707  0.1774  2.2022  2.9890
 9251TIP3   OH249167   2.779   1.063   3.216  0.3500  0.6225  0.1414
 9251TIP3    H149168   2.852   1.095   3.269 -0.0805  0.9583  0.5445
 9251TIP3    H249169   2.795   1.097   3.129  1.3880 -0.4363 -0.0941
 9252TIP3   OH249170   4.620   7.172   0.319 -0.3065 -0.3505 -0.4595
 9252TIP3    H149171   4.636   7.078   0.310 -0.1411 -0.3978  0.3148
 9252TIP3    H249172   4.584   7.198   0.234 -4.2264 -1.8857  0.5987
 9253TIP3   OH249173   5.943   4.727  12.653  0.3658 -0.1650  0.1869
 9253TIP3    H149174   6.009   4.778  12.605 -0.5706 -1.0370 -2.1373
 9253TIP3    H249175   5.994   4.669  12.709  1.5536 -0.1593 -0.8593
 9254TIP3   OH249176   1.747   0.598  14.832  0.2625  0.0434 -0.1161
 9254TIP3    H149177   1.800   0.614  14.755  1.9453 -0.0291  1.0017
 9254TIP3    H249178   1.709   0.511  14.819 -1.0429  0.8305 -1.7272
 9255TIP3   OH249179   1.671   5.216  15.339  0.3577 -0.3421 -0.1575
 9255TIP3    H149180   1.588   5.185  15.304  0.2793 -0.9149  0.5358
 9255TIP3    H249181   1.689   5.297  15.289 -0.5572 -0.2625 -0.3707
 9256TIP3   OH249182   2.240   5.317  13.378 -0.0013  0.0726  0.4626
 9256TIP3    H149183   2.332   5.342  13.385  0.2018 -0.8441  1.1675
 9256TIP3    H249184   2.206   5.326  13.467 -0.1286 -1.3496  0.5590
 9257TIP3   OH249185   4.079   7.213  14.858 -0.5350  0.0269 -0.0278
 9257TIP3    H149186   4.165   7.253  14.871 -0.7211  0.1668  0.8026
 9257TIP3    H249187   4.054   7.180  14.944 -0.6675 -1.3145 -0.5653
 9258TIP3   OH249188   3.988   1.859  12.511  0.0447 -0.4009 -0.4844
 9258TIP3    H149189   4.019   1.944  12.480  1.9745 -0.4686  1.1779
 9258TIP3    H249190   3.893   1.871  12.522  0.5088  2.0504  1.2698
 9259TIP3   OH249191   4.575   1.552  12.803 -0.3556 -0.1163 -0.6618
 9259TIP3    H149192   4.505   1.530  12.865 -0.4844 -1.8949 -1.4058
 9259TIP3    H249193   4.534   1.611  12.740 -1.7414 -2.6906 -2.2219
 9260TIP3   OH249194   1.640   0.299  13.830  0.0512 -0.1370  0.2353
 9260TIP3    H149195   1.722   0.320  13.786 -0.4452  1.3540 -0.0033
 9260TIP3    H249196   1.591   0.247  13.765  0.5992 -0.6214  0.2056
 9261TIP3   OH249197   0.441   6.466   0.473 -0.1378 -0.6017  0.0822
 9261TIP3    H149198   0.497   6.399   0.434  0.3702 -0.1427  0.0199
 9261TIP3    H249199   0.497   6.509   0.538 -0.0153  0.7105 -0.8764
 9262TIP3   OH249200   3.231   6.675   0.606  0.1486  0.0462  0.3565
 9262TIP3    H149201   3.239   6.603   0.669  2.0932 -0.6908 -0.7030
 9262TIP3    H249202   3.168   6.735   0.646 -0.0362 -1.3133  2.1487
 9263TIP3   OH249203   5.119   3.845  12.841  0.8357  0.0473 -0.0040
 9263TIP3    H149204   5.147   3.929  12.804  0.6479 -0.3716 -1.1294
 9263TIP3    H249205   5.024   3.845  12.831  0.6682  0.3866  1.4939
 9264TIP3   OH249206   3.682   3.392  11.630  0.1603 -0.2317  0.6514
 9264TIP3    H149207   3.744   3.393  11.703  0.0250  2.4440  0.7794
 9264TIP3    H249208   3.737   3.382  11.552  0.7250  1.4493  0.8137
 9265TIP3   OH249209   0.328   6.114   1.862 -0.2200 -0.2803  0.1068
 9265TIP3    H149210   0.288   6.060   1.930 -0.9765  0.1318 -0.0014
 9265TIP3    H249211   0.379   6.178   1.910  0.8749 -1.2331  0.2316
 9266TIP3   OH249212   6.743   0.269  15.858 -0.4192 -0.3930  0.8869
 9266TIP3    H149213   6.666   0.213  15.848 -0.1057 -0.5599 -0.6943
 9266TIP3    H249214   6.768   0.292  15.768 -0.7444  2.5803  1.5037
 9267TIP3   OH249215   5.312   4.547  14.718  0.2927 -0.1274  0.1228
 9267TIP3    H149216   5.361   4.466  14.714 -0.6332 -0.6760 -0.3864
 9267TIP3    H249217   5.224   4.523  14.689  0.4976  1.4473 -1.8897
 9268TIP3   OH249218   6.936   5.328  15.989 -0.4900 -0.3050 -0.4874
 9268TIP3    H149219   6.875   5.272  15.940 -2.0182  0.8699  0.0128
 9268TIP3    H249220   6.911   5.316  16.080  1.2317 -1.1833 -0.1126
 9269TIP3   OH249221   5.565   4.775  13.698  0.3090 -0.1344 -0.5784
 9269TIP3    H149222   5.570   4.796  13.791 -0.7637 -2.2591 -0.0109
 9269TIP3    H249223   5.477   4.804  13.672  1.2644  2.1476 -1.4053
 9270TIP3   OH249224   4.197   6.680  15.204 -0.4260 -0.3281 -0.7462
 9270TIP3    H149225   4.189   6.584  15.205 -0.1930 -0.3494  0.5499
 9270TIP3    H249226   4.116   6.711  15.246  1.0852 -0.1225  2.1847
 9271TIP3   OH249227   3.374   6.829   1.349 -0.3158 -0.1489 -0.3278
 9271TIP3    H149228   3.370   6.836   1.444 -3.6267 -0.3384 -0.3742
 9271TIP3    H249229   3.460   6.863   1.325  0.7844 -0.6412  2.7671
 9272TIP3   OH249230   0.133   2.685  11.543  0.2394 -0.4605 -0.3128
 9272TIP3    H149231   0.052   2.707  11.588 -0.0027 -1.6033 -0.1697
 9272TIP3    H249232   0.198   2.675  11.613  0.1530 -1.0222 -0.3138
 9273TIP3   OH249233   0.443   3.776  14.644  0.4065  0.0372 -0.6355
 9273TIP3    H149234   0.371   3.726  14.683  1.5459 -2.0448 -1.1258
 9273TIP3    H249235   0.416   3.788  14.553  0.3617 -0.1241 -0.6450
 9274TIP3   OH249236   6.131   5.888  14.427  0.1622 -0.1025 -0.2049
 9274TIP3    H149237   6.216   5.847  14.414 -1.0979 -2.0860 -2.5852
 9274TIP3    H249238   6.136   5.971  14.380  1.4911  0.8056  1.5095
 9275TIP3   OH249239   3.484   0.759  15.446  0.5661  0.5686 -0.7796
 9275TIP3    H149240   3.496   0.850  15.417  2.5967 -0.0982 -2.2015
 9275TIP3    H249241   3.550   0.747  15.514  0.9024 -0.0953 -1.2199
 9276TIP3   OH249242   2.952   0.970  13.352 -0.0252  0.0889  0.1455
 9276TIP3    H149243   3.036   0.933  13.327 -0.5540 -1.6729  0.9027
 9276TIP3    H249244   2.966   1.005  13.440 -0.1688 -0.5623  0.4342
 9277TIP3   OH249245   4.470   4.798   0.048  0.1857  0.0143 -0.4652
 9277TIP3    H149246   4.519   4.782  -0.033 -0.3108  2.1825 -1.2126
 9277TIP3    H249247   4.418   4.718   0.060  0.3078 -0.3609 -2.2645
 9278TIP3   OH249248   7.218   6.847   0.075  0.2124 -0.3204 -0.3290
 9278TIP3    H149249   7.286   6.840   0.141  0.5584  0.7734 -0.5617
 9278TIP3    H249250   7.226   6.936   0.041 -0.4759 -0.6117 -1.2855
 9279TIP3   OH249251   6.508   0.349   0.508 -0.0569 -0.4265 -0.2949
 9279TIP3    H149252   6.437   0.385   0.456 -0.2255 -0.9726 -0.4445
 9279TIP3    H249253   6.491   0.255   0.511  0.4607 -0.5167 -0.0335
 9280TIP3   OH249254   4.052   5.931  14.689 -0.1202  1.0181 -0.3101
 9280TIP3    H149255   3.970   5.980  14.695 -0.3465  0.7993 -1.3772
 9280TIP3    H249256   4.024   5.841  14.670  0.3469  0.8273 -0.1049
 9281TIP3   OH249257   4.872   0.337  15.283 -0.0902  0.2673  0.3576
 9281TIP3    H149258   4.956   0.367  15.247 -1.4167 -0.3539 -3.4985
 9281TIP3    H249259   4.813   0.411  15.270 -0.7699 -0.2188  0.6728
 9282TIP3   OH249260   5.261   6.922   0.493 -0.6244  0.0995 -0.2399
 9282TIP3    H149261   5.242   7.015   0.505  0.7034  0.4810 -1.0309
 9282TIP3    H249262   5.185   6.888   0.446 -0.9067  0.8850 -0.3521
 9283TIP3   OH249263   2.760   5.683  13.313  0.0637 -0.2007  1.4286
 9283TIP3    H149264   2.760   5.695  13.218  0.4645  0.3075  1.4916
 9283TIP3    H249265   2.852   5.675  13.337 -0.1118 -1.9966  1.5710
 9284TIP3   OH249266   6.280   6.053   2.074  0.0162  0.0434  0.0596
 9284TIP3    H149267   6.371   6.023   2.071 -0.8254 -2.6539  0.1285
 9284TIP3    H249268   6.285   6.148   2.064  2.7599 -0.2040 -1.1250
 9285TIP3   OH249269   5.134   0.016  15.394 -0.3667  0.2792  0.0868
 9285TIP3    H149270   5.203   0.024  15.329 -0.8454  0.1733 -0.4399
 9285TIP3    H249271   5.057  -0.013  15.345 -0.5364 -0.5615  0.8219
 9286TIP3   OH249272   6.943   2.015  12.775 -0.1330  0.3670 -0.2218
 9286TIP3    H149273   6.963   2.062  12.856 -1.5502  1.8697 -0.7058
 9286TIP3    H249274   7.000   2.056  12.710 -2.0258  2.1153 -0.8347
 9287TIP3   OH249275   2.402   4.035  13.682  0.0722  0.1330  0.9436
 9287TIP3    H149276   2.470   3.972  13.658 -0.2679  0.0633  0.1297
 9287TIP3    H249277   2.424   4.114  13.632  0.8097  0.8643  2.3713
 9288TIP3   OH249278   2.611   1.403  12.456 -0.0579  0.2805  0.6998
 9288TIP3    H149279   2.609   1.498  12.448 -0.7588  0.1685 -0.7300
 9288TIP3    H249280   2.518   1.377  12.455  0.1702 -0.5345 -0.8098
 9289TIP3   OH249281   4.712   5.160   0.148  0.1165  0.2928  0.1432
 9289TIP3    H149282   4.676   5.245   0.172  0.2672 -0.1298  1.9414
 9289TIP3    H249283   4.636   5.110   0.117 -0.7520 -0.2853  3.0372
 9290TIP3   OH249284   5.380   4.731  11.909 -0.6215  0.1392 -0.0126
 9290TIP3    H149285   5.300   4.781  11.898 -0.1775  0.4196 -2.2695
 9290TIP3    H249286   5.353   4.639  11.902 -1.0118  0.1616  1.1665
 9291TIP3   OH249287   1.164   1.839   1.086 -0.2598 -0.9369  0.1066
 9291TIP3    H149288   1.131   1.882   1.165  0.6929  0.3656 -0.1863
 9291TIP3    H249289   1.230   1.778   1.118 -2.4015 -3.0769  0.6305
 9292TIP3   OH249290   5.599   1.031  12.519 -0.6582  0.1843  0.2893
 9292TIP3    H149291   5.541   1.060  12.589 -1.5179 -0.2744 -0.2175
 9292TIP3    H249292   5.540   1.000  12.450  0.1887 -0.4880 -0.1553
 9293TIP3   OH249293   1.880   0.910  14.373 -0.8024  0.1932  0.6233
 9293TIP3    H149294   1.848   0.828  14.412 -0.4990 -0.2606 -0.0801
 9293TIP3    H249295   1.803   0.946  14.328 -1.0941  0.6039  1.4372
 9294TIP3   OH249296   2.956   5.951  15.505  0.1486  0.1567  0.1317
 9294TIP3    H149297   2.918   6.033  15.474  1.7745  0.7635 -0.3191
 9294TIP3    H249298   3.046   5.974  15.529  0.5928 -1.4679  0.0832
 9295TIP3   OH249299   4.106   0.530  12.549 -0.5706  0.1917  0.6053
 9295TIP3    H149300   4.049   0.592  12.595  0.6424  0.5917  1.5818
 9295TIP3    H249301   4.125   0.462  12.614 -1.9029 -1.2527 -0.4576
 9296TIP3   OH249302   0.010   4.038  11.198  0.0891 -0.3709  0.6237
 9296TIP3    H149303  -0.002   4.118  11.249  1.1294 -1.5538  2.8286
 9296TIP3    H249304   0.069   4.063  11.127 -1.3165  1.2920  0.0218
 9297TIP3   OH249305   3.954   0.960   1.470 -0.7509 -0.0884  0.4401
 9297TIP3    H149306   3.987   0.901   1.402 -0.6971  1.0180 -0.5238
 9297TIP3    H249307   3.872   0.921   1.500 -0.2777 -1.0897  0.4275
 9298TIP3   OH249308   6.848   1.801  13.023 -0.4087 -0.5626 -0.3116
 9298TIP3    H149309   6.869   1.885  13.062  0.2194 -1.8456  2.2252
 9298TIP3    H249310   6.918   1.786  12.959 -0.2636  0.6200 -0.4347
 9299TIP3   OH249311   6.980   5.772  11.880  0.2875  0.3185  0.2559
 9299TIP3    H149312   6.907   5.757  11.821 -0.3430 -2.1149  1.6018
 9299TIP3    H249313   7.049   5.714  11.848  0.6566  0.5119  0.6913
 9300TIP3   OH249314   5.479   3.484  12.168  0.0918  0.3492 -0.0321
 9300TIP3    H149315   5.417   3.415  12.195 -0.6421  0.8748 -0.3564
 9300TIP3    H249316   5.494   3.535  12.247  0.3466  0.0342  0.1224
 9301TIP3   OH249317   6.970   4.172   0.114  0.6698 -0.3325 -0.2862
 9301TIP3    H149318   7.003   4.256   0.080 -1.1466  0.6182  0.2302
 9301TIP3    H249319   6.876   4.184   0.119  0.1191 -3.2943 -2.5562
 9302TIP3   OH249320   4.073   3.031  15.042 -0.3962 -0.4200 -0.0707
 9302TIP3    H149321   4.156   3.077  15.051 -0.2680 -0.9122  1.3077
 9302TIP3    H249322   4.075   2.964  15.110 -1.6936 -0.7812 -0.3792
 9303TIP3   OH249323   6.203   5.311   1.366  0.0037 -0.2465  0.5685
 9303TIP3    H149324   6.212   5.392   1.416 -1.0974 -0.2074  0.7230
 9303TIP3    H249325   6.234   5.332   1.278 -3.8088  1.4431 -0.4641
 9304TIP3   OH249326   3.014   1.281  15.822 -0.0410 -0.5787 -0.2391
 9304TIP3    H149327   2.935   1.292  15.769 -1.4148  2.1085  2.2364
 9304TIP3    H249328   3.047   1.370  15.835  1.7777 -1.4154  1.1313
 9305TIP3   OH249329   5.622   0.693   1.562  0.4624 -0.6489 -0.6635
 9305TIP3    H149330   5.702   0.686   1.614  0.7477  1.4146 -0.8236
 9305TIP3    H249331   5.573   0.614   1.585  1.1974 -0.4470  1.7281
 9306TIP3   OH249332   3.287   5.019  14.547 -0.3128 -0.0229 -0.1269
 9306TIP3    H149333   3.369   5.052  14.585 -0.4863 -0.7500  0.9263
 9306TIP3    H249334   3.245   4.972  14.619 -1.1127 -0.6408 -0.9815
 9307TIP3   OH249335   5.995   3.291  12.381 -0.9300 -0.3126  0.6743
 9307TIP3    H149336   6.057   3.253  12.444  0.7639 -2.5161 -2.2237
 9307TIP3    H249337   5.988   3.383  12.408 -0.4321 -1.2156  4.1753
 9308TIP3   OH249338   1.299   6.932  15.838 -0.2289 -0.0890 -0.0275
 9308TIP3    H149339   1.334   6.844  15.828 -0.4971 -0.1789 -0.1843
 9308TIP3    H249340   1.213   6.929  15.795 -0.1141  0.3216 -0.2895
 9309TIP3   OH249341   4.867   4.512  14.753  0.0317  0.1377  0.5216
 9309TIP3    H149342   4.877   4.480  14.842 -0.8510  0.1501  0.6201
 9309TIP3    H249343   4.914   4.448  14.699  1.6708  0.8129  1.1164
 9310TIP3   OH249344   4.595   5.636  12.969 -0.0026 -0.0905  0.0358
 9310TIP3    H149345   4.665   5.570  12.968 -0.9235 -1.1304  1.9382
 9310TIP3    H249346   4.606   5.680  13.053 -0.4135  1.1037 -0.5298
 9311TIP3   OH249347   3.290   3.196  15.996  0.1395  0.1358  0.1289
 9311TIP3    H149348   3.285   3.147  15.914 -2.7703 -1.9307  1.4611
 9311TIP3    H249349   3.363   3.155  16.044  0.2332 -0.3022 -0.3769
 9312TIP3   OH249350   6.234   4.227   0.277 -0.7499 -0.4670  0.1573
 9312TIP3    H149351   6.308   4.219   0.336 -0.6468 -0.0889  0.0757
 9312TIP3    H249352   6.236   4.318   0.247 -1.6035 -0.2906  0.6293
 9313TIP3   OH249353   2.597   3.428  14.876 -0.0047 -0.1193  0.2032
 9313TIP3    H149354   2.647   3.490  14.929 -0.6457 -0.0159  0.6988
 9313TIP3    H249355   2.645   3.422  14.794  2.3853 -2.1732  1.6644
 9314TIP3   OH249356   4.028   1.414  13.443 -0.5730  0.3007 -0.1030
 9314TIP3    H149357   3.963   1.465  13.492  0.9817  1.5629  0.7086
 9314TIP3    H249358   3.978   1.370  13.374 -2.7698 -1.2696  2.4076
 9315TIP3   OH249359   5.656   4.783  12.712 -0.3830  0.5885 -0.2249
 9315TIP3    H149360   5.662   4.729  12.790 -1.2539  0.6826 -0.0864
 9315TIP3    H249361   5.746   4.807  12.691  0.2318 -2.7176 -1.5917
 9316TIP3   OH249362   3.972   5.091   1.986  0.7973  0.5704 -0.0892
 9316TIP3    H149363   3.909   5.064   1.920  1.7994  2.6944 -2.0016
 9316TIP3    H249364   4.010   5.009   2.018 -1.1972 -0.5949 -0.6252
 9317TIP3   OH249365   5.621   6.739  15.594  0.4791  0.0136 -0.4352
 9317TIP3    H149366   5.666   6.768  15.673 -1.3716 -0.0188  0.6754
 9317TIP3    H249367   5.534   6.779  15.601 -0.3004 -1.4579 -1.5701
 9318TIP3   OH249368   5.839   0.093  15.603  0.8839  0.6382  0.6613
 9318TIP3    H149369   5.929   0.060  15.613  1.2926  1.0684 -1.2324
 9318TIP3    H249370   5.850   0.188  15.593  0.0008  0.9765  2.8039
 9319TIP3   OH249371   7.197   5.843   0.248  0.4357 -0.2936 -0.1550
 9319TIP3    H149372   7.129   5.779   0.269 -0.2371  0.3512 -0.3493
 9319TIP3    H249373   7.278   5.802   0.278  0.2229 -1.9548 -1.7989
 9320TIP3   OH249374   3.148   6.492   2.062 -0.3702 -0.3432  0.8156
 9320TIP3    H149375   3.140   6.445   1.979 -0.1443  1.0106  0.0191
 9320TIP3    H249376   3.064   6.478   2.106 -0.5177 -0.9904  0.3314
 9321TIP3   OH249377   2.754   0.368  14.155  0.3241  0.2397  0.0892
 9321TIP3    H149378   2.757   0.296  14.092 -0.9219  0.7874 -0.6141
 9321TIP3    H249379   2.712   0.440  14.108 -3.1646 -0.2072  2.3724
 9322TIP3   OH249380   2.065   0.687  13.133 -0.3214  0.1148 -0.9545
 9322TIP3    H149381   2.008   0.715  13.061 -0.6083 -0.2893 -0.8846
 9322TIP3    H249382   2.153   0.685  13.095 -0.3841  0.5168 -1.1236
 9323TIP3   OH249383   0.509   2.153  12.551  0.6944  0.5996 -0.1036
 9323TIP3    H149384   0.457   2.077  12.525  0.7399  0.7163 -0.5359
 9323TIP3    H249385   0.597   2.118  12.565  0.4812  0.3873  0.7107
 9324TIP3   OH249386   4.494   4.106  13.325  0.8144 -1.1005 -0.1423
 9324TIP3    H149387   4.415   4.061  13.355  0.7130 -0.0557  1.2269
 9324TIP3    H249388   4.562   4.038  13.326 -0.1138 -2.0859 -1.6561
 9325TIP3   OH249389   1.585   5.031  14.307  0.5689 -0.2293 -0.3122
 9325TIP3    H149390   1.532   5.069  14.236  1.3951 -0.2357 -0.9412
 9325TIP3    H249391   1.668   5.008  14.265  1.9295  1.8727  1.1143
 9326TIP3   OH249392   1.153   4.920  15.590 -0.0223 -0.1016 -0.4562
 9326TIP3    H149393   1.147   4.875  15.506 -0.9248 -0.6041 -0.1305
 9326TIP3    H249394   1.243   4.903  15.620  0.0678 -0.5455 -0.9651
 9327TIP3   OH249395   3.625   2.785  13.276  0.0601 -0.4642 -0.0582
 9327TIP3    H149396   3.681   2.758  13.349 -0.1556  1.4642  0.8693
 9327TIP3    H249397   3.540   2.802  13.316 -0.4473 -0.7596 -1.0026
 9328TIP3   OH249398   4.505   6.041  13.809 -0.0816 -0.0885 -0.0242
 9328TIP3    H149399   4.574   6.100  13.778  0.7459 -1.6797 -1.3165
 9328TIP3    H249400   4.469   6.003  13.729 -1.3782 -0.4786  0.7292
 9329TIP3   OH249401   5.540   0.397  15.159  0.3558  0.6415  0.5721
 9329TIP3    H149402   5.523   0.331  15.226 -0.3078 -1.1606 -1.2907
 9329TIP3    H249403   5.564   0.476  15.207  0.5113 -0.7791  2.8814
 9330TIP3   OH249404   6.636   3.001  15.697  0.5520  0.0174 -0.4420
 9330TIP3    H149405   6.632   2.997  15.601  1.4037  0.6769 -0.5099
 9330TIP3    H249406   6.610   2.914  15.726 -2.6008  0.6353 -1.1818
 9331TIP3   OH249407   1.920   4.055  12.786  0.6853  0.3006 -0.2363
 9331TIP3    H149408   1.946   4.079  12.875  1.1685 -2.8294  0.5329
 9331TIP3    H249409   1.832   4.019  12.796  1.0827 -0.8729 -0.8688
 9332TIP3   OH249410   2.044   7.242  14.592 -0.2240  0.4381 -0.1136
 9332TIP3    H149411   2.039   7.286  14.507 -1.5030  0.7884  0.1379
 9332TIP3    H249412   1.953   7.230  14.619  0.1785  0.7713  1.4411
 9333TIP3   OH249413   0.325   4.209   0.145  0.0912 -0.2764 -0.0814
 9333TIP3    H149414   0.233   4.209   0.171 -0.5340  2.2541 -2.2212
 9333TIP3    H249415   0.360   4.291   0.179  1.0175 -0.1915 -1.2191
 9334TIP3   OH249416   3.148   3.982  14.114  0.2236 -0.3216  0.3534
 9334TIP3    H149417   3.148   3.893  14.079  0.3955  0.2829 -1.2321
 9334TIP3    H249418   3.091   3.977  14.191  0.1002 -1.7692  0.1860
 9335TIP3   OH249419   6.873   6.607  10.918  0.6735  0.3349 -0.3332
 9335TIP3    H149420   6.810   6.595  10.847  0.3207  2.1115 -0.3692
 9335TIP3    H249421   6.823   6.654  10.986  1.0984 -1.0409  0.9479
 9336TIP3   OH249422   2.997   2.212   0.297 -0.0706  0.2475  0.3003
 9336TIP3    H149423   3.039   2.145   0.243 -0.6119  1.4186 -1.6164
 9336TIP3    H249424   2.937   2.163   0.353  0.2066 -0.9516 -0.4282
 9337TIP3   OH249425   6.313   3.915   1.305 -0.2675 -0.3716  0.2081
 9337TIP3    H149426   6.357   4.000   1.300 -0.0861 -0.3639  1.6503
 9337TIP3    H249427   6.223   3.934   1.276 -0.0357  0.1618 -0.1781
 9338TIP3   OH249428   4.034   1.621  12.632 -0.3302  0.1485  0.4465
 9338TIP3    H149429   4.008   1.709  12.606 -1.4777 -0.4239 -0.3839
 9338TIP3    H249430   4.054   1.576  12.550  0.0922 -0.4164  0.8545
 9339TIP3   OH249431   5.741   4.120  15.444 -0.3033  0.3386  0.3496
 9339TIP3    H149432   5.822   4.069  15.433 -0.8818 -0.5420  0.1495
 9339TIP3    H249433   5.737   4.174  15.365 -0.0313  0.2130  0.2477
 9340TIP3   OH249434   7.108   1.626   0.530  0.4576 -0.5302  0.0761
 9340TIP3    H149435   7.026   1.595   0.491  0.4973  0.6232 -0.9579
 9340TIP3    H249436   7.153   1.671   0.458  1.2561  0.2602  1.0544
 9341TIP3   OH249437   4.153   0.930  14.278 -0.6871  0.3748 -0.2980
 9341TIP3    H149438   4.093   0.978  14.222 -0.2563 -0.5694 -1.5967
 9341TIP3    H249439   4.240   0.950  14.242 -0.4445 -0.6264 -0.3016
 9342TIP3   OH249440   5.966   0.273  15.864  0.3200 -0.1927  0.2382
 9342TIP3    H149441   6.016   0.195  15.839 -0.8200 -0.4934 -1.1820
 9342TIP3    H249442   5.942   0.258  15.955  3.0848  0.1084  1.0551
 9343TIP3   OH249443   6.294   4.692  14.082 -0.5112 -0.8232  0.0827
 9343TIP3    H149444   6.228   4.653  14.024 -0.9573 -1.7679  1.2054
 9343TIP3    H249445   6.243   4.749  14.141 -0.3652 -1.7054  1.0782
 9344TIP3   OH249446   4.958   0.701  13.077 -0.9954  0.6491  0.2779
 9344TIP3    H149447   4.972   0.642  13.151 -0.5306  1.3184  0.7277
 9344TIP3    H249448   5.046   0.726  13.049 -1.0843 -1.3265 -1.9242
 9345TIP3   OH249449   0.913   3.092  11.915 -0.1581 -0.0591 -0.2760
 9345TIP3    H149450   0.970   3.124  11.985  0.5528  0.2234 -0.9729
 9345TIP3    H249451   0.830   3.072  11.958  0.3909 -0.2325  0.7064
 9346TIP3   OH249452   6.599   0.864  14.839 -0.6050  0.0608 -0.4646
 9346TIP3    H149453   6.662   0.918  14.791 -0.2108  0.8094  0.8594
 9346TIP3    H249454   6.642   0.779  14.847  0.0550  0.4318  0.0266
 9347TIP3   OH249455   0.147   7.030  12.502  0.0376  0.4463  0.2681
 9347TIP3    H149456   0.076   7.074  12.455 -1.7964 -0.4059  2.1496
 9347TIP3    H249457   0.223   7.039  12.445 -1.6335  1.1946 -1.9123
 9348TIP3   OH249458   2.814   1.537  14.892  0.2825 -0.1160 -0.7730
 9348TIP3    H149459   2.725   1.537  14.855 -0.7048 -2.7885  1.4730
 9348TIP3    H249460   2.830   1.629  14.914 -2.0598  0.3675 -0.9013
 9349TIP3   OH249461   4.010   0.634   0.548  0.0709 -0.3197 -0.2867
 9349TIP3    H149462   4.017   0.538   0.551 -0.9032 -0.3790  0.2200
 9349TIP3    H249463   4.030   0.656   0.457  0.7724 -0.9596 -0.3008
 9350TIP3   OH249464   6.188   2.724  12.541 -0.1250 -0.1675  0.5079
 9350TIP3    H149465   6.246   2.697  12.469  1.9682  0.5508  1.8540
 9350TIP3    H249466   6.116   2.662  12.539  2.0945 -2.8595  0.4355
 9351TIP3   OH249467   4.184   5.748  11.392 -0.0355 -0.0795  0.2172
 9351TIP3    H149468   4.168   5.730  11.485  0.7656 -0.9245  0.1904
 9351TIP3    H249469   4.278   5.734  11.380 -0.3241 -1.1210 -0.9723
 9352TIP3   OH249470   1.394   5.056  13.411  0.4312  0.3730 -0.0694
 9352TIP3    H149471   1.458   4.988  13.431  2.3550  1.6275 -1.7177
 9352TIP3    H249472   1.335   5.017  13.348  0.3806 -0.3522  0.4208
 9353TIP3   OH249473   2.600   4.228  12.001  0.0103 -0.2789 -0.4762
 9353TIP3    H149474   2.570   4.317  11.984  1.5558  0.4628  0.5777
 9353TIP3    H249475   2.522   4.173  11.986 -0.5211  1.0291 -2.8477
 9354TIP3   OH249476   5.231   4.599  14.291  0.1925 -0.1467  0.9753
 9354TIP3    H149477   5.237   4.686  14.251  0.5489 -0.2097  0.8969
 9354TIP3    H249478   5.139   4.575  14.279 -0.1295  0.6214  1.8464
 9355TIP3   OH249479   5.047   0.385  14.076  0.1645 -0.0433 -0.3873
 9355TIP3    H149480   4.952   0.376  14.067  0.0903  0.5576 -0.2263
 9355TIP3    H249481   5.067   0.469  14.035  0.5222  0.2002  0.2754
 9356TIP3   OH249482   5.941   3.246  13.610 -0.3580  0.4238 -0.4414
 9356TIP3    H149483   6.032   3.232  13.636 -0.1795  2.3864  0.0254
 9356TIP3    H249484   5.912   3.160  13.578  1.8858 -0.0313 -1.3385
 9357TIP3   OH249485   5.640   7.279  12.423  0.0766  0.0124  0.4536
 9357TIP3    H149486   5.607   7.192  12.403  0.1119  0.7244 -2.9882
 9357TIP3    H249487   5.733   7.275  12.403  0.0870  0.8182  0.3009
 9358TIP3   OH249488   3.894   5.509  13.118 -0.3708  0.6909 -0.2288
 9358TIP3    H149489   3.984   5.517  13.086  0.0046 -1.2201  0.3009
 9358TIP3    H249490   3.840   5.533  13.043  0.5471 -1.5767 -1.6705
 9359TIP3   OH249491   4.857   5.927  14.288  0.1488  0.3874  0.4799
 9359TIP3    H149492   4.952   5.928  14.282  0.1109  0.1271 -0.3232
 9359TIP3    H249493   4.827   5.955  14.201 -0.5063 -2.4362 -0.2811
 9360TIP3   OH249494   0.825   5.463  12.934  0.0047  0.2826 -0.3683
 9360TIP3    H149495   0.909   5.508  12.942  0.3884 -0.9446  2.9188
 9360TIP3    H249496   0.847   5.370  12.935 -1.4451 -0.0623  1.4876
 9361TIP3   OH249497   5.214   4.288  13.163  0.9362  0.6311  0.5994
 9361TIP3    H149498   5.172   4.205  13.141 -1.0145  1.1361  2.3117
 9361TIP3    H249499   5.286   4.264  13.221  2.3925 -0.1186 -1.4260
 9362TIP3   OH249500   1.479   2.299  12.661  0.6336 -0.6308 -0.0258
 9362TIP3    H149501   1.388   2.323  12.641 -0.0686 -1.3605  2.1528
 9362TIP3    H249502   1.528   2.324  12.583 -1.1309  1.6562 -0.4500
 9363TIP3   OH249503   1.354   0.160  13.334 -0.2951  0.1458 -0.1443
 9363TIP3    H149504   1.262   0.145  13.356 -1.1781 -1.3884 -4.2863
 9363TIP3    H249505   1.393   0.072  13.336  1.0442  0.7551  1.3062
 9364TIP3   OH249506   5.961   7.258   0.653 -0.0041  0.1866  0.1265
 9364TIP3    H149507   6.013   7.279   0.576  0.0237  0.0241  0.1004
 9364TIP3    H249508   6.002   7.180   0.690  1.3496  1.5391  1.5815
 9365TIP3   OH249509   3.296   5.604  15.106  0.5417  0.1794  0.4444
 9365TIP3    H149510   3.291   5.554  15.024  1.2767  2.1270 -0.8278
 9365TIP3    H249511   3.205   5.625  15.127  0.3969  0.2805 -0.2676
 9366TIP3   OH249512   6.309   1.221  12.441  0.1818 -0.4548 -0.0396
 9366TIP3    H149513   6.388   1.176  12.471  0.7246 -0.1541 -1.0099
 9366TIP3    H249514   6.242   1.195  12.504  1.4058  0.5492  1.7075
 9367TIP3   OH249515   3.634   5.511  13.899  0.6057 -0.2686  0.2224
 9367TIP3    H149516   3.658   5.587  13.953 -1.3123 -0.6328  1.6466
 9367TIP3    H249517   3.617   5.548  13.813  0.7288  0.7810  0.6343
 9368TIP3   OH249518   1.852   6.756  12.664 -0.0166  0.3956 -0.8855
 9368TIP3    H149519   1.905   6.823  12.621  0.7654 -0.7661 -1.7812
 9368TIP3    H249520   1.838   6.789  12.752 -0.1350  2.0054 -1.4902
 9369TIP3   OH249521   4.359   5.669  15.839 -0.0924  0.0505  0.0655
 9369TIP3    H149522   4.361   5.663  15.743 -0.8136 -0.1363  0.0567
 9369TIP3    H249523   4.450   5.683  15.864  0.2159 -0.7266 -0.5948
 9370TIP3   OH249524   3.495   6.417   0.446 -0.1424  0.6793  0.0063
 9370TIP3    H149525   3.401   6.416   0.427 -0.3093 -2.0552  0.8297
 9370TIP3    H249526   3.499   6.418   0.542  0.6958  2.8788 -0.0275
 9371TIP3   OH249527   6.219   1.583   0.316  0.5198  0.8247  0.3792
 9371TIP3    H149528   6.183   1.553   0.399  1.1888  0.0041  0.3730
 9371TIP3    H249529   6.230   1.503   0.264 -1.5798  1.4828 -1.1724
 9372TIP3   OH249530   2.827   1.895  11.815 -0.1825  0.4336 -0.4390
 9372TIP3    H149531   2.733   1.901  11.798 -0.5057 -1.7997  0.3635
 9372TIP3    H249532   2.864   1.851  11.738  0.2315  1.4501 -0.8244
 9373TIP3   OH249533   4.155   1.581  14.095 -0.0080  0.1979  0.1664
 9373TIP3    H149534   4.064   1.549  14.092 -0.3983  1.2891  0.1731
 9373TIP3    H249535   4.157   1.641  14.170  0.6716  0.3231  0.0503
 9374TIP3   OH249536   4.989   6.295  13.616  0.5280 -0.0421 -0.1219
 9374TIP3    H149537   4.961   6.361  13.679  1.4346  0.7081 -0.5074
 9374TIP3    H249538   4.989   6.213  13.665  0.6334  0.4405  0.6839
 9375TIP3   OH249539   6.831   2.393   0.868 -0.4123 -0.9422 -0.4074
 9375TIP3    H149540   6.912   2.411   0.820 -1.1640  0.4855 -1.1754
 9375TIP3    H249541   6.843   2.438   0.952 -0.7987  0.0991 -0.9037
 9376TIP3   OH249542   5.231   6.625  13.840  0.7500  0.2227  0.1112
 9376TIP3    H149543   5.199   6.597  13.925 -0.8222  0.6783 -0.3110
 9376TIP3    H249544   5.167   6.690  13.811  1.3200  0.1378 -1.3724
 9377TIP3   OH249545   0.720   0.250  14.953 -0.3038  0.2967  0.5533
 9377TIP3    H149546   0.727   0.163  14.914 -1.5914  0.6367 -0.4975
 9377TIP3    H249547   0.798   0.297  14.922  0.5297 -0.5555  1.3425
 9378TIP3   OH249548   2.420   4.989  14.619  0.6366 -0.0443 -0.4321
 9378TIP3    H149549   2.432   5.074  14.663  1.7435 -0.3933 -0.0537
 9378TIP3    H249550   2.401   4.928  14.691 -1.9643  0.1904 -0.8611
 9379TIP3   OH249551   4.196   5.300  13.960  0.9421  0.0060  0.5590
 9379TIP3    H149552   4.166   5.237  14.026  0.0555  0.0998  0.2529
 9379TIP3    H249553   4.154   5.382  13.984 -0.2767 -0.2171 -0.7500
 9380TIP3   OH249554   1.904   4.612  14.826  0.4504 -0.0115 -0.0272
 9380TIP3    H149555   1.971   4.602  14.893 -0.7056 -0.3070  1.1250
 9380TIP3    H249556   1.829   4.561  14.859 -0.2154 -0.0080 -1.4500
 9381TIP3   OH249557   1.788   2.319  14.583 -0.0917  0.0666  0.4091
 9381TIP3    H149558   1.821   2.241  14.540 -1.0158  0.3196 -0.7878
 9381TIP3    H249559   1.798   2.301  14.677  0.5734 -1.0894  0.1225
 9382TIP3   OH249560   5.385   5.031  13.612  0.4637 -0.4182  0.1766
 9382TIP3    H149561   5.388   5.069  13.700  1.9044 -1.9124  0.8053
 9382TIP3    H249562   5.466   5.060  13.571 -0.2499  0.3458 -0.6953
 9383TIP3   OH249563   5.552   5.428  15.276 -0.2112  0.0900  0.3349
 9383TIP3    H149564   5.503   5.482  15.214 -0.4176  0.7033  1.0281
 9383TIP3    H249565   5.553   5.341  15.236 -0.1111  0.5379 -0.6569
 9384TIP3   OH249566   4.694   5.800  15.450  0.0737 -0.2010  0.2362
 9384TIP3    H149567   4.726   5.839  15.369  0.5606 -0.5519  0.2601
 9384TIP3    H249568   4.657   5.716  15.422  0.6827 -0.5402  0.4465
 9385TIP3   OH249569   4.470   1.066   1.440  0.2589 -0.2957  0.5807
 9385TIP3    H149570   4.446   1.030   1.525 -1.1368  0.4075  0.4986
 9385TIP3    H249571   4.526   0.999   1.401 -2.1781 -2.3570  0.4903
 9386TIP3   OH249572   2.467   3.581  12.890  0.0620 -0.2970 -0.1415
 9386TIP3    H149573   2.408   3.601  12.962 -1.4608 -0.1477 -1.3845
 9386TIP3    H249574   2.500   3.494  12.910  0.7806  0.3311  1.4527
 9387TIP3   OH249575   6.758   0.055   1.306  0.0418 -0.2012  0.5952
 9387TIP3    H149576   6.828   0.092   1.360 -1.0742 -0.8279  2.5427
 9387TIP3    H249577   6.711  -0.003   1.365 -1.4703 -0.6224 -0.9821
 9388TIP3   OH249578   0.314   5.910   0.981  0.1719  0.2407 -1.4255
 9388TIP3    H149579   0.309   5.903   0.886  0.9573  1.1921 -1.5491
 9388TIP3    H249580   0.392   5.860   1.005 -0.1140 -0.1278 -1.2735
 9389TIP3   OH249581   3.867   4.597   1.324 -0.2641 -0.0893  0.8752
 9389TIP3    H149582   3.804   4.669   1.317 -1.4263 -1.0400  1.3331
 9389TIP3    H249583   3.824   4.534   1.383  0.1402 -1.7776 -0.6097
 9390TIP3   OH249584   6.447   0.903  15.457  0.1939  0.5007  0.1839
 9390TIP3    H149585   6.515   0.962  15.424 -0.0286  1.9650  2.2649
 9390TIP3    H249586   6.478   0.816  15.432  2.8582  1.1419  1.0506
 9391TIP3   OH249587   3.228   2.897   0.071 -0.2643 -0.3390 -0.2246
 9391TIP3    H149588   3.274   2.967   0.118  1.2421 -1.2817 -0.2460
 9391TIP3    H249589   3.282   2.819   0.085 -1.6349 -1.3855 -0.6486
 9392TIP3   OH249590   1.756   1.210  14.065  0.0634  0.2693 -0.0911
 9392TIP3    H149591   1.703   1.287  14.045  1.7868  1.0173 -1.9390
 9392TIP3    H249592   1.783   1.177  13.980  1.4809 -0.8696  0.7726
 9393TIP3   OH249593   0.544   5.532   1.116 -0.1900  0.2244  0.4237
 9393TIP3    H149594   0.458   5.500   1.142 -0.2736 -0.0794 -0.2033
 9393TIP3    H249595   0.606   5.480   1.167 -0.3233 -1.0217 -0.6529
 9394TIP3   OH249596   3.865   0.011  14.229 -0.1367  0.2426  0.3967
 9394TIP3    H149597   3.857  -0.044  14.306 -0.3835 -0.0247  0.1807
 9394TIP3    H249598   3.874   0.100  14.263 -0.1738  0.1160  0.7330
 9395TIP3   OH249599   4.631   0.868  15.935  0.3624 -0.2322 -0.0005
 9395TIP3    H149600   4.605   0.960  15.935  0.4580 -0.1141  3.8320
 9395TIP3    H249601   4.548   0.820  15.925  0.4554  0.2054 -3.4210
 9396TIP3   OH249602   1.657   2.237  15.611  0.2012 -0.0933 -0.0574
 9396TIP3    H149603   1.746   2.220  15.579  0.3600  1.3613 -0.4338
 9396TIP3    H249604   1.670   2.287  15.692 -0.2536 -1.1880  0.6955
 9397TIP3   OH249605   6.066   5.823  13.498 -0.1107 -0.3513 -0.2035
 9397TIP3    H149606   6.083   5.805  13.591  0.0500 -0.5859 -0.2777
 9397TIP3    H249607   5.971   5.816  13.490  0.0391 -2.4705 -0.4915
 9398TIP3   OH249608   6.532   6.276   2.333  0.9305  0.1851  0.3564
 9398TIP3    H149609   6.461   6.285   2.397  0.6699 -0.1910  0.1240
 9398TIP3    H249610   6.561   6.185   2.343  0.1986 -0.1841 -0.7754
 9399TIP3   OH249611   5.013   0.059   1.867  0.5449  0.0180  0.4740
 9399TIP3    H149612   5.029   0.006   1.788 -1.9106 -2.5598  1.5919
 9399TIP3    H249613   4.943   0.119   1.841 -0.5317 -1.0918  0.7696
 9400TIP3   OH249614   0.720   6.208  13.617 -0.0233  0.0801 -0.8063
 9400TIP3    H149615   0.799   6.240  13.573 -0.0037 -0.7375 -1.3714
 9400TIP3    H249616   0.647   6.247  13.569  0.0261  0.4123 -0.6119
 9401TIP3   OH249617   1.597   5.323  14.998 -0.0941  1.0964 -0.7707
 9401TIP3    H149618   1.596   5.325  14.902 -0.2599  2.2501 -0.7535
 9401TIP3    H249619   1.516   5.367  15.024 -1.0668 -1.0233 -0.1025
 9402TIP3   OH249620   3.964   0.136  15.539 -0.1453 -0.0749 -0.1326
 9402TIP3    H149621   4.006   0.195  15.603  1.5870  0.2868 -1.5572
 9402TIP3    H249622   3.882   0.179  15.517  0.9131  1.6344 -0.8462
 9403TIP3   OH249623   4.057   0.966  13.908  0.0748  0.2619 -0.7687
 9403TIP3    H149624   4.043   0.893  13.969  2.1347 -0.1574 -0.7555
 9403TIP3    H249625   3.986   1.027  13.927 -0.1485 -0.5221  1.0545
 9404TIP3   OH249626   4.451   2.754  12.798 -0.2141  0.2407 -0.6271
 9404TIP3    H149627   4.451   2.660  12.779 -2.1892  0.2664 -0.8524
 9404TIP3    H249628   4.516   2.791  12.738  1.7144 -1.1735  0.5506
 9405TIP3   OH249629   4.820   5.945  15.214 -0.9963 -0.6435  0.2779
 9405TIP3    H149630   4.791   6.012  15.151 -1.1656 -0.2288  0.7873
 9405TIP3    H249631   4.849   5.996  15.290  0.0416 -1.1049  0.1960
 9406TIP3   OH249632   4.321   7.295   1.246  0.0537  0.3728  0.1088
 9406TIP3    H149633   4.234   7.290   1.285 -0.3147  1.2832 -0.5909
 9406TIP3    H249634   4.335   7.388   1.230  1.0197  0.1968 -0.0938
 9407TIP3   OH249635   5.829   0.345  15.659 -0.1280  0.0556  0.0366
 9407TIP3    H149636   5.870   0.416  15.609  1.2296  0.7592  2.0708
 9407TIP3    H249637   5.883   0.337  15.738 -2.5129 -0.6349  1.6674
 9408TIP3   OH249638   4.430   3.416  12.423  0.3200 -0.1949 -1.0444
 9408TIP3    H149639   4.455   3.496  12.378 -1.5655  1.4462  0.7213
 9408TIP3    H249640   4.456   3.430  12.514 -0.7749 -1.2143 -0.5569
 9409TIP3   OH249641   5.547   6.223  10.796 -0.5335 -0.1153  0.4496
 9409TIP3    H149642   5.479   6.193  10.856 -0.1868 -0.7518  0.5247
 9409TIP3    H249643   5.511   6.303  10.758 -1.8802 -1.1274 -0.4587
 9410TIP3   OH249644   3.708   2.807  15.859  0.5206  0.0285  0.2183
 9410TIP3    H149645   3.796   2.776  15.835  0.9121  2.1442 -1.2419
 9410TIP3    H249646   3.724   2.871  15.928  0.3469  2.0831 -1.6122
 9411TIP3   OH249647   7.132   5.854  14.470  0.2007 -0.0370 -0.6821
 9411TIP3    H149648   7.063   5.878  14.532  0.3541 -0.3215 -0.3979
 9411TIP3    H249649   7.213   5.862  14.521  0.2217 -1.5850 -0.4588
 9412TIP3   OH249650   5.362   2.193   1.757  0.3913 -0.3508  0.2080
 9412TIP3    H149651   5.455   2.213   1.746  0.5213 -1.0984 -0.0941
 9412TIP3    H249652   5.342   2.224   1.846  1.3879 -1.8265  0.9826
 9413TIP3   OH249653   3.953   4.349  15.270 -0.2017 -0.4916 -0.3063
 9413TIP3    H149654   4.025   4.335  15.208 -0.3774  1.4995 -0.9930
 9413TIP3    H249655   3.913   4.262  15.280  1.2327 -1.2802 -1.2306
 9414TIP3   OH249656   6.495   5.446   1.540 -0.0382  1.2378  0.2937
 9414TIP3    H149657   6.542   5.380   1.488  0.1848  0.5335  1.3822
 9414TIP3    H249658   6.460   5.507   1.475  3.4698  2.5049 -0.4954
 9415TIP3   OH249659   3.510   4.360  10.497  0.0554 -0.2327 -0.2016
 9415TIP3    H149660   3.576   4.429  10.495 -1.5898  1.4624  2.2725
 9415TIP3    H249661   3.553   4.288  10.544  0.3474  0.6737  0.9446
 9416TIP3   OH249662   1.171   5.412  15.098 -0.2804 -0.2878  0.5205
 9416TIP3    H149663   1.250   5.456  15.132 -0.3902  0.1778  0.1742
 9416TIP3    H249664   1.135   5.473  15.034  0.6459 -1.7005 -1.4122
 9417TIP3   OH249665   3.745   6.972  13.729  0.3827  0.1014 -0.2021
 9417TIP3    H149666   3.788   6.907  13.673  1.7157  2.0972 -1.5264
 9417TIP3    H249667   3.675   7.008  13.676  1.2776  1.5780 -0.4188
 9418TIP3   OH249668   3.268   7.230   1.462 -0.4866 -0.3014  0.6317
 9418TIP3    H149669   3.331   7.278   1.410  2.0030 -3.0665  0.9741
 9418TIP3    H249670   3.217   7.180   1.398  0.3552 -1.1236  0.5863
 9419TIP3   OH249671   1.432   3.489  15.321  0.3029 -0.7176 -0.1207
 9419TIP3    H149672   1.438   3.489  15.416  2.5762  0.8627 -0.2198
 9419TIP3    H249673   1.497   3.423  15.294 -1.8183 -2.7070 -0.5589
 9420TIP3   OH249674   7.239   4.767  13.112 -0.0874 -0.8857  0.1797
 9420TIP3    H149675   7.254   4.850  13.157  1.2577 -1.3666  0.6298
 9420TIP3    H249676   7.306   4.764  13.044 -2.0582 -0.2014 -1.8468
 9421TIP3   OH249677   1.596   7.092   0.738  0.2321 -0.3006 -0.3687
 9421TIP3    H149678   1.559   7.107   0.651 -1.6419 -0.2077  0.4090
 9421TIP3    H249679   1.554   7.159   0.793  1.6027 -0.1819  0.5523
 9422TIP3   OH249680   0.017   6.776  15.426  0.1945 -0.3402 -0.0479
 9422TIP3    H149681   0.093   6.835  15.433 -0.4329  0.5733 -0.7412
 9422TIP3    H249682   0.039   6.718  15.353 -0.4320  0.9508 -1.2929
 9423TIP3   OH249683   2.344   2.012   1.022  0.4321  0.2861 -0.1416
 9423TIP3    H149684   2.251   1.998   1.005  0.5093  1.2004 -1.4007
 9423TIP3    H249685   2.359   1.973   1.109 -0.4562 -2.5927 -1.2195
 9424TIP3   OH249686   5.027   4.868  13.096  0.7069  0.5120  0.2568
 9424TIP3    H149687   5.071   4.945  13.131 -0.4372  0.7870  1.1445
 9424TIP3    H249688   4.934   4.885  13.111  0.3980 -0.7346 -0.1560
 9425TIP3   OH249689   5.381   4.694  12.904 -0.3348  0.0654 -0.0004
 9425TIP3    H149690   5.359   4.619  12.849  0.5838 -0.2566  0.0614
 9425TIP3    H249691   5.365   4.770  12.848 -1.4839 -0.1604  0.0107
 9426TIP3   OH249692   5.569   0.003  15.611 -0.4160  0.5093  0.1923
 9426TIP3    H149693   5.663  -0.003  15.627 -0.4359 -0.9778 -0.2145
 9426TIP3    H249694   5.547   0.094  15.634  0.9127  0.5697  1.2827
 9427TIP3   OH249695   4.436   4.459  15.577 -0.4634 -0.4406 -0.6546
 9427TIP3    H149696   4.361   4.517  15.593  1.6970  1.9666  1.3020
 9427TIP3    H249697   4.490   4.507  15.514  0.3527 -1.2696 -0.5996
 9428TIP3   OH249698   4.916   5.783  14.854  0.0214 -0.2209  0.0384
 9428TIP3    H149699   4.910   5.750  14.943 -0.8044  1.6092  0.7019
 9428TIP3    H249700   4.841   5.744  14.808 -0.1497 -0.3567  0.4330
 9429TIP3   OH249701   4.204   4.916   0.853 -0.3539  0.1352  0.0599
 9429TIP3    H149702   4.143   4.951   0.789 -2.7008  1.7999  3.0718
 9429TIP3    H249703   4.180   4.824   0.862  0.0566 -0.1281 -1.5030
 9430TIP3   OH249704   5.911   0.537  13.509  0.2775  0.3035 -0.0635
 9430TIP3    H149705   5.958   0.560  13.429  0.6503  1.7211  0.5606
 9430TIP3    H249706   5.848   0.608  13.522 -1.7874 -1.3548 -0.6524
 9431TIP3   OH249707   2.601   4.289  14.363  0.0275  0.1376  0.0224
 9431TIP3    H149708   2.661   4.362  14.381  0.7444 -0.7019  1.1573
 9431TIP3    H249709   2.525   4.306  14.418 -0.3492  0.6910 -0.6699
 9432TIP3   OH249710   5.994   2.844  13.103  0.8849  0.1144 -0.0764
 9432TIP3    H149711   6.077   2.891  13.097  0.7853  0.0948 -1.8759
 9432TIP3    H249712   5.993   2.788  13.025 -0.1569 -0.9844  0.7028
 9433TIP3   OH249713   2.113   0.887  15.094 -0.1539  0.2122 -0.4002
 9433TIP3    H149714   2.144   0.843  15.015 -0.0332  0.4786 -0.5021
 9433TIP3    H249715   2.190   0.892  15.150  0.4261  2.3259 -1.3068
 9434TIP3   OH249716   1.447   1.378  15.611 -0.7580  0.6882  0.4889
 9434TIP3    H149717   1.533   1.342  15.591 -1.1270 -0.8603  1.6071
 9434TIP3    H249718   1.464   1.468  15.639  0.3656  0.7738 -0.4758
 9435TIP3   OH249719   0.508   4.255  12.123 -0.0352  0.3777 -0.4039
 9435TIP3    H149720   0.587   4.263  12.070  0.0038  0.5897 -0.3159
 9435TIP3    H249721   0.519   4.171  12.169  0.1717  0.4373 -0.3397
 9436TIP3   OH249722   0.397   3.498  14.106 -0.0612  0.2982  0.2758
 9436TIP3    H149723   0.314   3.542  14.125 -0.7545 -0.2205 -1.3838
 9436TIP3    H249724   0.437   3.483  14.191 -2.2793 -0.5743  1.2097
 9437TIP3   OH249725   2.195   3.978  15.763 -0.0557  0.5757 -0.4142
 9437TIP3    H149726   2.236   4.033  15.830  1.4512 -2.7673  1.4871
 9437TIP3    H249727   2.113   3.948  15.804 -0.2550  0.3609 -0.9631
 9438TIP3   OH249728   0.537   5.783  14.742 -0.2639 -0.5910 -0.4239
 9438TIP3    H149729   0.546   5.789  14.837 -0.6720  1.3896 -0.4793
 9438TIP3    H249730   0.449   5.749  14.729 -0.0275 -1.3426 -0.0941
 9439TIP3   OH249731   3.899   6.307   2.064  0.6293 -0.4938 -0.0297
 9439TIP3    H149732   3.903   6.214   2.042  2.1042 -0.3355 -0.5008
 9439TIP3    H249733   3.991   6.336   2.062 -0.0328  1.5975 -2.6006
 9440TIP3   OH249734   6.673   5.493  11.348  0.1032 -0.0553  0.2236
 9440TIP3    H149735   6.742   5.553  11.377 -0.6145  0.8540  0.0935
 9440TIP3    H249736   6.658   5.436  11.423 -0.0331  0.6979  0.7807
 9441TIP3   OH249737   1.051   5.582  14.922  0.1153  0.2158  0.1949
 9441TIP3    H149738   0.988   5.650  14.900  0.7663  1.2299  1.3873
 9441TIP3    H249739   1.134   5.613  14.884  0.7883  0.9720  2.1998
 9442TIP3   OH249740   0.248   0.427   0.510 -0.3304 -0.3802 -0.1238
 9442TIP3    H149741   0.254   0.418   0.415 -0.4930 -2.0296  0.0050
 9442TIP3    H249742   0.165   0.472   0.524 -1.0534 -1.4957 -0.7080
 9443TIP3   OH249743   1.358   1.749  12.569  0.1909  0.1578  0.1119
 9443TIP3    H149744   1.353   1.731  12.475 -2.4389  0.0368  0.2414
 9443TIP3    H249745   1.343   1.664  12.610 -1.4459  0.6861  0.6402
 9444TIP3   OH249746   6.265   7.134  13.826 -0.2540  0.0235 -0.2810
 9444TIP3    H149747   6.201   7.194  13.863  0.4409  0.8841 -0.4521
 9444TIP3    H249748   6.226   7.048  13.836 -1.2113  0.4927  0.0793
 9445TIP3   OH249749   4.503   5.136  14.817  0.0478  0.1911  0.3365
 9445TIP3    H149750   4.479   5.189  14.893 -1.7464 -0.2853  0.1298
 9445TIP3    H249751   4.505   5.046  14.850  1.6606  0.2214  0.3558
 9446TIP3   OH249752   1.791   0.633  15.408  0.0698 -0.3837 -0.5149
 9446TIP3    H149753   1.775   0.700  15.341 -0.2248  0.8019  0.7044
 9446TIP3    H249754   1.873   0.661  15.450  0.1251 -0.9782 -0.2302
 9447TIP3   OH249755   6.273   7.220  15.285  0.1081  0.0396 -0.3698
 9447TIP3    H149756   6.247   7.263  15.367 -0.0414 -0.8022  0.0288
 9447TIP3    H249757   6.190   7.201  15.241 -0.0126 -2.8733  1.0181
 9448TIP3   OH249758   5.703   0.290  14.981 -0.9154  0.2249  0.1890
 9448TIP3    H149759   5.643   0.336  15.039  1.3396  2.2867  0.9448
 9448TIP3    H249760   5.769   0.253  15.039 -0.7723 -1.0153 -0.7395
 9449TIP3   OH249761   4.917   1.456  12.556  0.5909  0.2253 -0.3142
 9449TIP3    H149762   4.887   1.546  12.548 -1.2382 -0.2861  0.4999
 9449TIP3    H249763   4.916   1.422  12.466 -3.1173 -0.3262 -0.1140
 9450TIP3   OH249764   0.941   6.608  14.270 -0.1009  0.1235 -0.1407
 9450TIP3    H149765   1.002   6.591  14.343  0.8992  0.2364 -0.9379
 9450TIP3    H249766   0.910   6.521  14.244 -0.5070  0.0869  0.4580
 9451TIP3   OH249767   3.127   4.169  10.861  0.5455 -0.3297 -0.2283
 9451TIP3    H149768   3.135   4.103  10.929  0.3357 -1.8065 -1.6066
 9451TIP3    H249769   3.034   4.169  10.839  0.2991  1.4236  0.7127
 9452TIP3   OH249770   5.266   1.419  15.407  0.8608 -0.4796  0.0295
 9452TIP3    H149771   5.220   1.503  15.409  1.3220 -0.2035 -1.2651
 9452TIP3    H249772   5.214   1.364  15.466  0.1573  0.4983  0.3518
 9453TIP3   OH249773   5.605   5.912  11.388 -0.0023 -0.9252  0.3574
 9453TIP3    H149774   5.667   5.982  11.409 -0.1194 -0.8038  0.2966
 9453TIP3    H249775   5.645   5.833  11.426 -0.5258 -0.5969  1.6248
 9454TIP3   OH249776   0.049   1.185  12.396 -0.2954  0.1992 -0.5433
 9454TIP3    H149777   0.079   1.131  12.324  2.8971  0.8739  0.1977
 9454TIP3    H249778   0.001   1.125  12.454 -0.7438 -0.8380 -1.9716
 9455TIP3   OH249779   0.674   5.691  13.213  0.0067 -0.0393 -0.1115
 9455TIP3    H149780   0.761   5.729  13.204 -0.1928  1.0751  2.1083
 9455TIP3    H249781   0.688   5.597  13.211  1.0652  0.1243 -1.2458
 9456TIP3   OH249782   0.050   6.034  14.591  0.8361 -0.1291 -0.2433
 9456TIP3    H149783   0.063   6.124  14.561  0.6710 -0.0056  0.0548
 9456TIP3    H249784   0.135   5.993  14.578  0.7425 -0.1012 -0.9567
 9457TIP3   OH249785   0.436   0.848  12.861 -0.0052 -0.0821  0.2858
 9457TIP3    H149786   0.433   0.871  12.954  0.3831 -0.5015  0.4029
 9457TIP3    H249787   0.363   0.787  12.849 -1.3606  1.5974 -0.1380
 9458TIP3   OH249788   6.954   4.818  15.418 -0.5264 -0.4444 -0.2462
 9458TIP3    H149789   6.920   4.906  15.405 -1.3692 -0.8447 -0.8435
 9458TIP3    H249790   6.931   4.771  15.337  1.8236 -0.6299 -0.8394
 9459TIP3   OH249791   1.855   4.396  10.493 -0.4104 -0.0132  0.5524
 9459TIP3    H149792   1.766   4.418  10.521 -0.0306  1.0974  0.9236
 9459TIP3    H249793   1.905   4.391  10.575 -0.2219 -1.0753  0.3782
 9460TIP3   OH249794   5.193   3.357  15.562 -0.4484 -0.1675  0.0769
 9460TIP3    H149795   5.136   3.418  15.609 -1.3344 -0.5882 -0.4507
 9460TIP3    H249796   5.250   3.414  15.510 -0.1213  0.2662  0.8953
 9461TIP3   OH249797   5.270   1.041  14.250  0.1131  0.4055 -0.4597
 9461TIP3    H149798   5.184   0.998  14.244  0.1552  0.1295  0.6932
 9461TIP3    H249799   5.324   0.995  14.186 -0.6600  0.7283 -1.3563
 9462TIP3   OH249800   1.427   4.195   0.100  0.1297 -0.3478 -0.1316
 9462TIP3    H149801   1.490   4.181   0.171  1.3895  0.7292 -1.0049
 9462TIP3    H249802   1.460   4.143   0.028  0.3975  0.7628 -0.8155
 9463TIP3   OH249803   6.667   2.464  14.920 -0.1686  0.1560 -0.2897
 9463TIP3    H149804   6.614   2.422  14.853  1.1067  0.0400 -1.2374
 9463TIP3    H249805   6.748   2.488  14.876  0.6581  0.1563  1.1892
 9464TIP3   OH249806   5.218   3.482   1.018  0.5334 -0.5972 -0.1284
 9464TIP3    H149807   5.124   3.500   1.021  0.6835  0.0752  0.6976
 9464TIP3    H249808   5.243   3.470   1.110  1.0057 -2.1104 -0.4415
 9465TIP3   OH249809   5.832   2.095  10.959  0.0342 -0.5817 -0.5527
 9465TIP3    H149810   5.749   2.128  10.924  0.1882  0.1201 -0.2710
 9465TIP3    H249811   5.897   2.117  10.892 -0.2380 -2.5236 -1.4877
 9466TIP3   OH249812   5.652   4.893   1.337  0.5110 -0.7294  0.1978
 9466TIP3    H149813   5.567   4.912   1.377  1.6545  0.2859  2.2315
 9466TIP3    H249814   5.632   4.880   1.244 -1.8708 -0.6284  0.6469
 9467TIP3   OH249815   1.872   5.999  14.096  0.2248  0.6183  0.3072
 9467TIP3    H149816   1.885   6.063  14.026  0.8600 -0.3812 -0.5056
 9467TIP3    H249817   1.803   6.037  14.150  0.2730  1.7736 -0.4184
 9468TIP3   OH249818   1.030   5.501  11.691 -0.0309  0.4468 -0.2522
 9468TIP3    H149819   1.123   5.500  11.667  0.0777  2.9464 -0.0628
 9468TIP3    H249820   1.025   5.564  11.763 -1.8314  0.0363 -0.0072
 9469TIP3   OH249821   0.509   6.253   0.256  0.1797 -0.7414  0.2236
 9469TIP3    H149822   0.440   6.195   0.288 -0.3463 -0.1754  0.1378
 9469TIP3    H249823   0.532   6.218   0.170 -0.3726 -0.6266  0.0287
 9470TIP3   OH249824   3.637   6.647  14.980 -0.3646 -0.2008  0.2899
 9470TIP3    H149825   3.547   6.664  15.009 -0.5582  0.8357 -0.9242
 9470TIP3    H249826   3.631   6.638  14.885  0.8781  0.3341  0.1481
 9471TIP3   OH249827   6.971   1.989  15.542  0.1374  0.3689  0.5372
 9471TIP3    H149828   6.931   1.938  15.472  1.5592  1.4854 -1.1163
 9471TIP3    H249829   7.061   1.956  15.548  0.8484  2.1708 -0.0602
 9472TIP3   OH249830   4.211   5.011  13.335  0.3433  0.7494  0.6563
 9472TIP3    H149831   4.288   5.064  13.316 -0.1995  1.4968  0.5095
 9472TIP3    H249832   4.140   5.074  13.345 -0.4649  0.0054 -0.2508
 9473TIP3   OH249833   5.850   5.978   1.916 -0.2017 -0.1982 -0.2956
 9473TIP3    H149834   5.812   6.046   1.972 -2.0444 -0.2890 -1.4192
 9473TIP3    H249835   5.939   6.008   1.900 -0.2537  0.7846  1.1274
 9474TIP3   OH249836   0.985   3.401  15.488  0.0797  0.3189 -0.0667
 9474TIP3    H149837   0.910   3.354  15.451  1.2621 -0.8087 -1.1240
 9474TIP3    H249838   0.962   3.493  15.481 -1.2026 -0.0173 -0.3869
 9475TIP3   OH249839   0.818   6.212   0.467  0.3860  0.4331 -0.2840
 9475TIP3    H149840   0.762   6.222   0.390  1.2790  0.0117 -0.9852
 9475TIP3    H249841   0.903   6.184   0.433  0.7078 -0.0467  0.8770
 9476TIP3   OH249842   0.269   6.152  13.865 -0.4213 -0.2897 -0.2684
 9476TIP3    H149843   0.321   6.197  13.799 -0.8425  1.1610  0.3638
 9476TIP3    H249844   0.252   6.065  13.828  1.7264 -0.4904 -0.8248
 9477TIP3   OH249845   2.114   0.290  13.892 -0.2909  0.3150 -0.1482
 9477TIP3    H149846   2.035   0.289  13.947  1.4503  0.2188  2.4581
 9477TIP3    H249847   2.099   0.360  13.829 -1.5242  1.8645  1.7955
 9478TIP3   OH249848   6.290   5.371  14.903 -0.0826  0.0280 -0.3260
 9478TIP3    H149849   6.202   5.381  14.940  0.3051 -0.3348  0.7159
 9478TIP3    H249850   6.293   5.280  14.873  0.8478 -0.7933  2.1262
 9479TIP3   OH249851   4.351   7.126   0.015 -0.3778 -0.1736  0.3091
 9479TIP3    H149852   4.323   7.212   0.047 -1.8255 -0.4890 -0.1192
 9479TIP3    H249853   4.295   7.108  -0.060  1.4304 -0.5042 -1.0113
 9480TIP3   OH249854   5.373   5.418   1.639  0.2379  0.8342 -0.0569
 9480TIP3    H149855   5.385   5.484   1.570 -0.8680 -0.0940 -1.1532
 9480TIP3    H249856   5.397   5.335   1.597 -0.1888  0.2861  0.7685
 9481TIP3   OH249857   5.558   5.817  13.420  0.0937 -0.3021 -0.3610
 9481TIP3    H149858   5.619   5.854  13.357 -0.3083  0.9070 -0.0451
 9481TIP3    H249859   5.472   5.829  13.380 -0.2239  1.1057  0.7298
 9482TIP3   OH249860   5.687   5.827  13.826 -0.4231 -0.2264 -0.4290
 9482TIP3    H149861   5.737   5.784  13.895  0.5502  0.7970 -0.4943
 9482TIP3    H249862   5.634   5.892  13.871  1.0939  1.2577 -0.7651
 9483TIP3   OH249863   6.256   6.726  13.396  0.1206 -0.1899  0.6761
 9483TIP3    H149864   6.270   6.796  13.459  0.7266 -0.3744  0.7506
 9483TIP3    H249865   6.266   6.768  13.310 -0.5863  0.0357  0.7026
 9484TIP3   OH249866   2.084   5.989  12.285  0.6889  0.0596 -0.2350
 9484TIP3    H149867   2.055   6.022  12.200  1.8977  0.7511 -0.3905
 9484TIP3    H249868   2.085   5.894  12.274 -1.2377  0.0279 -0.3042
 9485TIP3   OH249869   5.501   3.020  12.302 -0.5635 -0.1959 -0.8795
 9485TIP3    H149870   5.556   2.946  12.275 -1.7458 -1.1979 -0.5942
 9485TIP3    H249871   5.547   3.097  12.271  0.5876 -1.0748 -1.3742
 9486TIP3   OH249872   6.468   4.117   1.018 -0.0093 -0.2683  0.7473
 9486TIP3    H149873   6.393   4.112   0.959 -0.6358  0.5152  1.4539
 9486TIP3    H249874   6.527   4.179   0.977 -0.5646  0.4778  1.0691
 9487TIP3   OH249875   6.073   6.817  15.473  0.4000  0.2280  0.3546
 9487TIP3    H149876   6.089   6.833  15.380  0.2835  0.6271  0.4023
 9487TIP3    H249877   6.029   6.732  15.475  0.6157  0.1074  0.0624
 9488TIP3   OH249878   1.420   4.026   1.659  0.3605  0.1153 -0.2650
 9488TIP3    H149879   1.481   4.096   1.636  0.6291  0.8313  2.5407
 9488TIP3    H249880   1.369   4.061   1.732 -1.1942 -1.7009 -0.4400
 9489TIP3   OH249881   0.330   7.234  15.541  0.5575 -0.5484  0.2708
 9489TIP3    H149882   0.398   7.224  15.608  1.9890  0.9052 -0.9336
 9489TIP3    H249883   0.362   7.183  15.466  0.4458  0.3150 -0.3753
 9490TIP3   OH249884   6.214   7.007  15.619  0.2737 -0.1308 -0.3337
 9490TIP3    H149885   6.138   6.963  15.580  0.4463  0.9178 -1.8710
 9490TIP3    H249886   6.191   7.100  15.619  1.1550  0.0944  0.1223
 9491TIP3   OH249887   6.197   5.855  13.750 -0.1210 -0.4246 -0.5448
 9491TIP3    H149888   6.282   5.830  13.786  0.0094 -1.5528 -1.5988
 9491TIP3    H249889   6.147   5.884  13.826  1.1490  0.1045  0.1127
 9492TIP3   OH249890   0.012   1.152  11.968  0.2121 -0.5775 -0.4344
 9492TIP3    H149891  -0.044   1.110  11.902 -0.7017 -0.0092 -0.0304
 9492TIP3    H249892   0.024   1.085  12.035 -1.7009 -0.0502  0.4822
 9493TIP3   OH249893   0.457   6.134  14.114  0.4996  0.2397 -0.2227
 9493TIP3    H149894   0.368   6.113  14.085  0.4636  0.4381 -0.2558
 9493TIP3    H249895   0.505   6.153  14.033  1.0789 -1.7658 -0.3803
 9494TIP3   OH249896   6.052   6.592  14.919 -0.1491  0.1204  1.2303
 9494TIP3    H149897   5.971   6.609  14.873  0.6619  1.1657  0.1714
 9494TIP3    H249898   6.105   6.541  14.857  0.3325  0.1674  1.5967
 9495TIP3   OH249899   0.602   6.231  14.321  0.0072  0.0654 -0.3103
 9495TIP3    H149900   0.565   6.197  14.239  0.8573  1.5341 -1.3242
 9495TIP3    H249901   0.618   6.153  14.374 -0.6132 -0.9031 -1.5255
 9496TIP3   OH249902   0.610   4.537  12.013  0.9573  0.0758 -0.3063
 9496TIP3    H149903   0.557   4.536  11.934 -0.5845  1.1036  0.6834
 9496TIP3    H249904   0.680   4.600  11.995 -0.1246  1.2692 -0.3971
 9497TIP3   OH249905   3.933   5.138   0.943 -0.4764 -0.2307  0.5553
 9497TIP3    H149906   3.957   5.046   0.945  1.2005  0.1284 -1.1597
 9497TIP3    H249907   3.998   5.181   0.998  0.2323  0.2109 -0.6068
 9498TIP3   OH249908   5.361   1.483   0.036 -0.1694 -0.3575  0.1272
 9498TIP3    H149909   5.296   1.416   0.056 -1.3203  0.6183 -0.2682
 9498TIP3    H249910   5.333   1.519  -0.048  0.7181  0.2786  0.0977
 9499TIP3   OH249911   0.157   0.994  13.717 -0.0680 -0.2463  0.1091
 9499TIP3    H149912   0.129   1.086  13.716 -2.0667 -0.7614  2.7104
 9499TIP3    H249913   0.251   0.997  13.733 -0.1567  1.3440  0.3523
 9500TIP3   OH249914   2.002   3.838   0.318 -0.4211  0.2022  0.2720
 9500TIP3    H149915   2.065   3.817   0.386 -0.0295 -2.4720 -0.8593
 9500TIP3    H249916   2.048   3.899   0.260  0.9722 -1.3443 -0.2768
 9501TIP3   OH249917   5.651   0.416   0.109  0.3304 -0.0382 -0.0619
 9501TIP3    H149918   5.735   0.378   0.136  1.9303  3.3433  0.0223
 9501TIP3    H249919   5.643   0.392   0.017  0.5528 -1.8454  0.3843
 9502TIP3   OH249920   1.772   4.174  14.939 -0.4529 -0.2136 -0.4120
 9502TIP3    H149921   1.813   4.095  14.903 -0.7255 -0.5110 -0.0801
 9502TIP3    H249922   1.833   4.205  15.005 -0.8581 -0.7740  0.2278
 9503TIP3   OH249923   2.019   2.276  13.707 -0.0864  0.2470 -0.1258
 9503TIP3    H149924   1.930   2.241  13.694  0.2090 -0.8528  0.7999
 9503TIP3    H249925   2.039   2.259  13.799  1.6486 -0.8127 -0.6811
 9504TIP3   OH249926   6.624   0.430   0.277 -0.6943  0.1961  0.4245
 9504TIP3    H149927   6.719   0.419   0.277 -0.5926  1.0048  0.8549
 9504TIP3    H249928   6.600   0.421   0.369 -1.0700 -0.2786  0.2801
 9505TIP3   OH249929   7.000   0.327   2.462 -0.2315 -0.3125 -0.0902
 9505TIP3    H149930   6.993   0.238   2.495 -0.9254 -0.1083  0.3175
 9505TIP3    H249931   7.067   0.368   2.518 -0.1797 -0.4696 -0.0389
 9506TIP3   OH249932   6.336   5.831  12.964 -0.5730  0.2599 -0.5603
 9506TIP3    H149933   6.330   5.925  12.949 -0.0344  0.5291  0.8733
 9506TIP3    H249934   6.270   5.812  13.030  0.4886 -0.0602  0.4373
 9507TIP3   OH249935   2.396   6.684  14.156 -0.0486 -0.2939  0.5531
 9507TIP3    H149936   2.352   6.763  14.125  1.3198 -0.1945 -1.2400
 9507TIP3    H249937   2.437   6.648  14.077  0.9768 -1.7301  1.7254
 9508TIP3   OH249938   5.057   0.826  14.317  0.6601  0.5525 -0.1092
 9508TIP3    H149939   5.002   0.798  14.244  0.1229 -0.2324  0.5891
 9508TIP3    H249940   5.131   0.765  14.316 -0.3134 -0.6845  1.1692
 9509TIP3   OH249941   6.975   5.940  15.015  0.6086  0.3255  0.2482
 9509TIP3    H149942   7.010   5.935  15.104  0.7721 -0.5873  0.1315
 9509TIP3    H249943   7.046   5.978  14.963 -0.0443  2.3579  0.8038
 9510TIP3   OH249944   6.995   5.660  12.748  0.3931  0.0001  0.2824
 9510TIP3    H149945   6.992   5.689  12.839 -0.7967  1.2652 -0.1609
 9510TIP3    H249946   7.053   5.722  12.705 -1.6672  1.3893 -0.5312
 9511TIP3   OH249947   1.438   6.034  12.874  0.2770 -0.1622 -0.1998
 9511TIP3    H149948   1.381   6.108  12.893 -1.4587 -1.4043 -0.4871
 9511TIP3    H249949   1.525   6.062  12.904 -0.6973  1.3083  1.3092
 9512TIP3   OH249950   5.306   6.221   0.112 -0.5386 -0.8125 -0.2797
 9512TIP3    H149951   5.364   6.263   0.175 -2.1170  0.1467  0.5672
 9512TIP3    H249952   5.325   6.127   0.122 -0.5804 -0.6669  1.4619
 9513TIP3   OH249953   5.958   0.585  11.937  0.0301 -0.0463  0.0378
 9513TIP3    H149954   5.887   0.603  11.875  0.5924 -1.8018 -1.1327
 9513TIP3    H249955   6.038   0.609  11.891  0.3237  0.4423  0.7831
 9514TIP3   OH249956   4.196   2.032  14.640 -0.6404 -0.0798 -0.2640
 9514TIP3    H149957   4.231   2.110  14.682 -0.5533 -0.3808  0.2309
 9514TIP3    H249958   4.111   2.059  14.606 -0.4106  0.3518 -0.5021
 9515TIP3   OH249959   4.849   4.647  14.036  0.1276  0.0539  0.5921
 9515TIP3    H149960   4.865   4.729  14.084  0.5013 -0.1485  0.8162
 9515TIP3    H249961   4.763   4.618  14.067 -1.6234  2.1580 -2.0639
 9516TIP3   OH249962   4.771   7.262   3.473 -0.2137 -0.0448  0.0073
 9516TIP3    H149963   4.687   7.237   3.511 -0.6765  0.4380 -0.6884
 9516TIP3    H249964   4.821   7.297   3.547 -1.0765  0.8041  0.2053
 9517TIP3   OH249965   6.610   1.188  15.034 -0.4844  0.1096 -0.1096
 9517TIP3    H149966   6.535   1.206  14.976  0.3725  4.1211 -0.0685
 9517TIP3    H249967   6.578   1.121  15.094 -3.9084  1.3976 -0.3970
 9518TIP3   OH249968   0.865   1.610  13.951 -0.2769 -0.6070  0.1156
 9518TIP3    H149969   0.775   1.639  13.965  0.6456  1.9307  1.0693
 9518TIP3    H249970   0.903   1.611  14.039  1.3747  0.8009 -0.5963
 9519TIP3   OH249971   0.619   3.991  14.454  0.1478  0.2630  0.2537
 9519TIP3    H149972   0.582   4.077  14.435  0.1144  0.1062 -0.3766
 9519TIP3    H249973   0.546   3.931  14.449  0.1824  0.1871  0.6405
 9520TIP3   OH249974   5.522   5.227  12.318  0.0481  0.3112  0.0341
 9520TIP3    H149975   5.537   5.309  12.270 -0.1606 -0.5535 -1.5605
 9520TIP3    H249976   5.604   5.178  12.307  0.1650  0.2969  0.9720
 9521TIP3   OH249977   3.928   3.440  11.211 -0.5692  0.1185 -0.0255
 9521TIP3    H149978   3.874   3.519  11.202  2.0524  1.7668 -1.9314
 9521TIP3    H249979   4.005   3.470  11.259 -0.7262 -1.9584  1.6099
 9522TIP3   OH249980   4.759   6.766  15.898  0.0121 -0.5494 -0.0961
 9522TIP3    H149981   4.690   6.744  15.961  0.6262 -0.8422  0.4786
 9522TIP3    H249982   4.735   6.718  15.819 -0.2006 -1.0159  0.2446
 9523TIP3   OH249983   5.583   0.516   0.891 -0.1290 -0.0925  0.1909
 9523TIP3    H149984   5.578   0.569   0.970 -0.9760 -0.6417  0.5085
 9523TIP3    H249985   5.630   0.437   0.918 -0.2181 -0.1787  0.0942
 9524TIP3   OH249986   3.425   1.074   0.755 -0.1328 -0.2279  0.4344
 9524TIP3    H149987   3.384   1.083   0.842  0.2138  1.8612  0.4258
 9524TIP3    H249988   3.446   0.981   0.748 -1.4312 -0.6824  2.0092
 9525TIP3   OH249989   1.634   5.268  14.732 -0.0327 -0.5789 -0.0295
 9525TIP3    H149990   1.644   5.337  14.666 -2.6701  1.8691  1.9954
 9525TIP3    H249991   1.685   5.195  14.698  1.2947  1.6999 -3.2047
 9526TIP3   OH249992   5.574   4.131  12.918 -0.2394  0.4273 -0.0210
 9526TIP3    H149993   5.520   4.188  12.864  0.0577  1.5403  0.8389
 9526TIP3    H249994   5.581   4.177  13.002  2.1645  0.3886 -0.1569
 9527TIP3   OH249995   4.020   7.066  12.457  0.2104  0.3839  0.0985
 9527TIP3    H149996   4.022   7.140  12.395  1.9037 -1.0221 -1.5849
 9527TIP3    H249997   3.929   7.037  12.456 -0.1412  1.4792 -0.4105
 9528TIP3   OH249998   6.235   6.603  13.916  0.3534 -0.4485  0.2896
 9528TIP3    H149999   6.224   6.592  13.821 -1.0386 -0.5870  0.4604
 9528TIP3    H250000   6.266   6.693  13.926 -2.4218  0.5976 -0.1081
 9529TIP3   OH250001   5.137   1.214  13.967  0.3466 -0.0663 -0.1243
 9529TIP3    H150002   5.103   1.277  14.031  0.3477 -0.1642 -0.0276
 9529TIP3    H250003   5.168   1.268  13.894  0.5315  0.0563  0.0456
 9530TIP3   OH250004   4.224   7.184  14.385 -0.2313 -0.7159  0.0042
 9530TIP3    H150005   4.179   7.115  14.336  1.3329 -1.0092 -1.0483
 9530TIP3    H250006   4.314   7.153  14.395 -0.1560 -0.0117  1.8319
 9531TIP3   OH250007   6.503   6.715   0.176  0.5666  0.0225  0.8575
 9531TIP3    H150008   6.578   6.737   0.231  1.7401  0.3620 -0.8639
 9531TIP3    H250009   6.516   6.623   0.153 -0.1856 -0.2613  1.5334
 9532TIP3   OH250010   0.949   5.069  13.497  0.4965  0.2376  0.0500
 9532TIP3    H150011   0.920   5.042  13.584  2.4431  1.9416  1.2767
 9532TIP3    H250012   0.883   5.132  13.468 -0.8821 -1.3466 -0.3045
 9533TIP3   OH250013   6.767   0.582  14.481 -0.5715 -0.6830 -0.3868
 9533TIP3    H150014   6.684   0.630  14.479 -2.1262 -3.2482  0.1013
 9533TIP3    H250015   6.786   0.563  14.389 -1.0759 -0.9726 -0.4343
 9534TIP3   OH250016   5.240   3.478  14.012  0.0688 -0.3380 -0.2697
 9534TIP3    H150017   5.255   3.436  13.928 -1.6846  3.4519 -2.6016
 9534TIP3    H250018   5.145   3.490  14.016  0.3873  2.0932  0.8867
 9535TIP3   OH250019   6.938   5.678  11.019 -0.5000 -0.5242 -0.2453
 9535TIP3    H150020   6.897   5.594  10.998 -1.5150 -0.6668  2.1606
 9535TIP3    H250021   6.865   5.738  11.034  0.1857  0.1697  0.4020
 9536TIP3   OH250022   4.702   6.923   1.826  0.0607 -0.2601  0.6321
 9536TIP3    H150023   4.646   6.966   1.890 -1.9045 -0.2004 -1.0771
 9536TIP3    H250024   4.726   6.992   1.764 -0.4711 -0.8971 -0.3115
 9537TIP3   OH250025   0.520   4.267  13.827 -0.0670 -0.4694  0.0100
 9537TIP3    H150026   0.569   4.348  13.842  1.2481 -1.1678 -0.3484
 9537TIP3    H250027   0.442   4.275  13.881 -0.4129  1.4402 -0.7410
 9538TIP3   OH250028   4.742   6.827  11.937 -0.1549  0.0093  0.4096
 9538TIP3    H150029   4.733   6.733  11.926  0.5947 -0.1406  1.0278
 9538TIP3    H250030   4.833   6.839  11.966  0.1206  1.0200 -0.8207
 9539TIP3   OH250031   6.778   3.710  14.144  0.5434 -0.5043  0.1136
 9539TIP3    H150032   6.712   3.688  14.078  0.6480  0.8492 -0.4553
 9539TIP3    H250033   6.838   3.770  14.100  1.2460 -0.4555  1.1100
 9540TIP3   OH250034   7.059   5.250  13.068 -0.2159  0.6005 -0.6422
 9540TIP3    H150035   7.064   5.217  12.978 -1.5457 -2.5940  0.3915
 9540TIP3    H250036   6.977   5.214  13.102  1.2349  0.0759  2.5061
 9541TIP3   OH250037   0.408   5.391  15.194 -0.3515 -0.3582 -0.3009
 9541TIP3    H150038   0.411   5.298  15.176 -0.4288 -0.2243 -1.0077
 9541TIP3    H250039   0.445   5.432  15.116  0.5961  0.1561  0.4008
 9542TIP3   OH250040   6.065   1.569  14.862 -0.4339  0.3819  0.0091
 9542TIP3    H150041   6.028   1.607  14.941 -0.4585 -0.9284  0.6302
 9542TIP3    H250042   6.048   1.635  14.794 -1.1013  1.1663  0.9174
 9543TIP3   OH250043   5.171   5.034  12.206 -0.2706 -0.1568 -0.1415
 9543TIP3    H150044   5.206   5.034  12.295  0.8109  0.4036 -0.5612
 9543TIP3    H250045   5.123   4.951  12.199  0.8713 -0.8745  0.4638
 9544TIP3   OH250046   2.218   4.566  14.959  0.4819 -0.0753  0.5917
 9544TIP3    H150047   2.269   4.627  14.906  0.9291  0.3416  1.4898
 9544TIP3    H250048   2.231   4.481  14.917 -2.6598  0.8580 -2.5532
 9545TIP3   OH250049   5.912   7.010  12.327 -0.1019  0.2488  0.0984
 9545TIP3    H150050   5.969   6.941  12.360 -0.0071  0.7376  0.9620
 9545TIP3    H250051   5.847   6.964  12.273 -1.1512 -0.7175  2.1580
 9546TIP3   OH250052   6.283   6.661  14.622 -0.0615  0.2558 -0.0247
 9546TIP3    H150053   6.265   6.608  14.700 -2.6032  1.5013  0.2890
 9546TIP3    H250054   6.221   6.629  14.556  0.5800  0.6830 -0.8543
 9547TIP3   OH250055   3.494   1.494  11.565  0.2069  0.4758  0.2020
 9547TIP3    H150056   3.438   1.455  11.633 -0.4883  1.6802  0.3325
 9547TIP3    H250057   3.436   1.506  11.490  0.3455  1.5057  0.2536
 9548TIP3   OH250058   1.392   1.320   2.345  0.1598  0.3042  0.1310
 9548TIP3    H150059   1.426   1.405   2.374  0.8946 -0.3912  1.3394
 9548TIP3    H250060   1.342   1.287   2.420  0.5133 -0.6777 -0.0540
 9549TIP3   OH250061   6.054   0.293  13.902  0.3929  0.2836 -0.0151
 9549TIP3    H150062   5.975   0.301  13.848  1.1610 -2.3312 -1.6345
 9549TIP3    H250063   6.115   0.356  13.864 -0.2721  1.0347  0.1239
 9550TIP3   OH250064   6.926   1.896  15.298 -0.3559 -0.2622 -0.5169
 9550TIP3    H150065   6.960   1.835  15.233 -1.0750 -0.8674 -0.3273
 9550TIP3    H250066   6.832   1.900  15.280 -0.2598  1.1162 -0.8006
 9551TIP3   OH250067   5.792   4.264  15.658 -0.6044 -0.2848  0.0779
 9551TIP3    H150068   5.809   4.178  15.698 -2.0078 -0.0708  1.2073
 9551TIP3    H250069   5.757   4.243  15.571 -0.7476 -0.8614  0.2683
 9552TIP3   OH250070   5.523   6.878   0.404 -0.0530  0.4779 -0.2272
 9552TIP3    H150071   5.452   6.920   0.453 -1.0038 -0.1216 -1.0589
 9552TIP3    H250072   5.497   6.887   0.312 -0.0618 -1.4954 -0.4468
 9553TIP3   OH250073   3.837   2.392   0.131 -0.0918  0.0373 -0.8325
 9553TIP3    H150074   3.900   2.418   0.198 -0.3999 -3.6161  1.0149
 9553TIP3    H250075   3.776   2.465   0.126  2.5801  2.3809 -0.5306
 9554TIP3   OH250076   3.245   6.102   0.423 -0.5795 -0.4658  0.2158
 9554TIP3    H150077   3.226   6.192   0.397 -0.8018 -0.5163  0.2000
 9554TIP3    H250078   3.165   6.053   0.401 -0.8193 -0.4853  1.1066
 9555TIP3   OH250079   0.005   4.768  12.565 -0.7814 -0.2115 -0.0667
 9555TIP3    H150080  -0.064   4.716  12.605  0.2750 -0.6161  1.2321
 9555TIP3    H250081   0.086   4.740  12.608  0.2781 -0.1037 -1.9193
 9556TIP3   OH250082   4.551   0.236  15.340 -0.9077 -0.5580  0.0718
 9556TIP3    H150083   4.561   0.292  15.417 -1.0064 -0.3975 -0.0321
 9556TIP3    H250084   4.621   0.265  15.281 -1.5684  0.1130 -0.3810
 9557TIP3   OH250085   4.763   5.038   0.886  0.0431 -0.5267  0.1110
 9557TIP3    H150086   4.805   4.986   0.817  0.9135 -1.1077  1.0646
 9557TIP3    H250087   4.734   4.974   0.951  1.1513  0.1646  1.3145
 9558TIP3   OH250088   5.421   6.877  15.762 -0.3942  0.1212  0.4605
 9558TIP3    H150089   5.344   6.920  15.722  1.1741  1.9686 -0.6630
 9558TIP3    H250090   5.432   6.922  15.845 -2.2423 -2.1427  2.0146
 9559TIP3   OH250091   2.599   5.784   0.547  0.4254  0.2301  0.2431
 9559TIP3    H150092   2.522   5.788   0.491 -0.1641  1.3233  1.1073
 9559TIP3    H250093   2.633   5.874   0.547  1.3611 -0.1169  0.3300
 9560TIP3   OH250094   0.321   5.130  12.666  0.1073  0.1871 -0.8199
 9560TIP3    H150095   0.232   5.124  12.634 -0.6088  0.7434  0.9814
 9560TIP3    H250096   0.374   5.148  12.589 -1.1527 -1.4866 -2.1067
 9561TIP3   OH250097   2.460   4.544  13.126  0.0116  0.0640  0.0611
 9561TIP3    H150098   2.530   4.583  13.178  1.1190 -1.2491 -0.4048
 9561TIP3    H250099   2.460   4.452  13.153 -0.2452 -0.3498 -1.3383
 9562TIP3   OH250100   5.719   5.922   1.158  0.5736  0.7997 -0.2978
 9562TIP3    H150101   5.763   5.949   1.077  0.1774  1.2176 -0.3752
 9562TIP3    H250102   5.786   5.929   1.226  0.2068  2.9621 -0.1398
 9563TIP3   OH250103   7.026   5.446   2.123 -0.2642 -0.1368 -0.0232
 9563TIP3    H150104   6.973   5.474   2.049 -1.6222  0.4981  1.1503
 9563TIP3    H250105   7.067   5.364   2.095  0.3074  0.7594 -1.9336
 9564TIP3   OH250106   6.574   5.667  12.295 -0.0546  0.0805 -0.8346
 9564TIP3    H150107   6.638   5.615  12.343 -1.1867 -0.2521  0.3381
 9564TIP3    H250108   6.569   5.626  12.209 -0.8271 -1.6719  0.0204
 9565TIP3   OH250109   7.076   0.314   0.242  0.4458  0.2228 -0.6982
 9565TIP3    H150110   7.086   0.253   0.170 -1.1392 -0.6781 -0.1632
 9565TIP3    H250111   7.161   0.360   0.246  1.1319 -0.8913 -2.0219
 9566TIP3   OH250112   6.019   5.743  12.528 -0.0428  0.1300 -0.4723
 9566TIP3    H150113   5.942   5.727  12.473 -1.2899 -0.0355  1.3141
 9566TIP3    H250114   5.985   5.751  12.617  1.4865  4.1284 -0.1280
 9567TIP3   OH250115   0.901   6.457  13.865 -0.5997 -0.2055  0.6917
 9567TIP3    H150116   0.917   6.426  13.954 -1.6523 -2.8775  0.0140
 9567TIP3    H250117   0.959   6.404  13.810 -0.2583  1.1272 -0.2646
 9568TIP3   OH250118   2.321   1.582   2.063  0.2254  0.2707  0.8629
 9568TIP3    H150119   2.309   1.677   2.059  0.9207  0.3192 -0.1656
 9568TIP3    H250120   2.356   1.558   1.977 -2.3063 -1.2521  0.1994
 9569TIP3   OH250121   1.965   5.963   2.808  0.1255 -0.3092 -0.3684
 9569TIP3    H150122   1.921   5.965   2.894 -1.3005  1.5036 -1.1006
 9569TIP3    H250123   1.897   5.991   2.747  1.8283  0.7827 -1.7832
 9570TIP3   OH250124   0.237   4.941  14.012 -0.8196  0.4343 -0.3249
 9570TIP3    H150125   0.233   4.986  14.096 -0.1931  0.5128 -0.3341
 9570TIP3    H250126   0.234   5.011  13.947 -2.7063  0.2905 -0.4001
 9571TIP3   OH250127   5.450   6.483  14.696  0.0141 -0.0326  0.0080
 9571TIP3    H150128   5.359   6.501  14.721  0.2938  1.8170 -0.2767
 9571TIP3    H250129   5.493   6.568  14.696  1.5832 -0.7986 -0.5868
 9572TIP3   OH250130   6.280   5.041   4.234  0.3620  0.1215  0.1113
 9572TIP3    H150131   6.314   5.130   4.238  0.9450 -0.1476  1.6163
 9572TIP3    H250132   6.285   5.010   4.324  0.2294 -1.4633 -0.4189
 9573TIP3   OH250133   0.099   6.396   0.269 -0.3147  0.0144 -0.3169
 9573TIP3    H150134   0.040   6.341   0.321 -1.2441  0.8759 -0.4539
 9573TIP3    H250135   0.134   6.458   0.332  1.5701 -1.3861  0.0610
 9574TIP3   OH250136   0.840   2.001   0.143  0.0752 -0.0108 -0.5143
 9574TIP3    H150137   0.763   1.959   0.104  0.4064  0.0324 -1.2141
 9574TIP3    H250138   0.908   1.933   0.141 -0.2455 -0.4147  1.1124
 9575TIP3   OH250139   6.454   4.072  15.310  0.5765 -0.0589  0.3588
 9575TIP3    H150140   6.388   4.007  15.286  0.2862  0.4674 -0.2785
 9575TIP3    H250141   6.537   4.036  15.279  0.2919  0.3047 -0.8275
 9576TIP3   OH250142   2.522   7.070   1.882  0.4641 -0.3592  0.4352
 9576TIP3    H150143   2.456   7.055   1.814  0.1874  0.6802  0.4680
 9576TIP3    H250144   2.561   6.984   1.897  0.5851 -0.5829 -1.1066
 9577TIP3   OH250145   5.709   3.618  13.362 -0.1658 -0.4067  0.5314
 9577TIP3    H150146   5.720   3.686  13.295 -0.8061 -0.7312  0.0964
 9577TIP3    H250147   5.799   3.591  13.383  0.0333 -0.3826 -0.2729
 9578TIP3   OH250148   4.089   1.823  14.779  0.0836  0.2808  0.0951
 9578TIP3    H150149   4.127   1.895  14.728 -3.0238  1.9470  0.0070
 9578TIP3    H250150   4.022   1.786  14.722  0.1660 -1.2805  0.9908
 9579TIP3   OH250151   0.303   0.004  13.998  0.5036  0.2660  0.7983
 9579TIP3    H150152   0.385   0.021  13.951 -0.0597 -1.2515 -0.8120
 9579TIP3    H250153   0.238   0.058  13.952  0.0553 -0.8091  0.1388
 9580TIP3   OH250154   0.543   5.782  15.035  0.1898 -0.3937  0.2695
 9580TIP3    H150155   0.548   5.797  15.130 -3.9877 -1.3450  0.7183
 9580TIP3    H250156   0.559   5.688  15.025 -2.9826 -1.0118  0.4752
 9581TIP3   OH250157   5.875   1.154  15.957 -0.0462  0.6671  0.2721
 9581TIP3    H150158   5.821   1.219  15.913 -3.1218 -0.5481  2.0796
 9581TIP3    H250159   5.837   1.070  15.933  2.9486 -0.4512 -0.8356
 9582TIP3   OH250160   0.021   3.538   0.126  0.4158  0.5791  0.4163
 9582TIP3    H150161  -0.002   3.629   0.143  0.3379  0.5916  0.2405
 9582TIP3    H250162  -0.063   3.494   0.116  0.4671  1.0560 -2.5971
 9583TIP3   OH250163   5.008   5.614  12.623 -0.3964 -0.5548 -0.2316
 9583TIP3    H150164   5.022   5.550  12.692  0.7457 -0.9404 -0.7970
 9583TIP3    H250165   5.093   5.657  12.613 -0.7020 -0.1006 -0.9901
 9584TIP3   OH250166   3.582   4.828   0.429 -0.1669 -0.1554  0.0665
 9584TIP3    H150167   3.503   4.823   0.482  0.7379  0.0609  1.4889
 9584TIP3    H250168   3.556   4.873   0.349 -1.3106  0.5679  0.8414
 9585TIP3   OH250169   4.528   4.737  13.302 -0.3068 -0.1524 -0.2273
 9585TIP3    H150170   4.509   4.796  13.230 -2.0658  0.2812  0.5496
 9585TIP3    H250171   4.565   4.794  13.370  0.7346 -0.4432 -0.5545
 9586TIP3   OH250172   0.538   5.374  15.585 -0.2548  0.2830 -0.2113
 9586TIP3    H150173   0.473   5.444  15.587  0.6433  1.1057  0.8927
 9586TIP3    H250174   0.527   5.327  15.668  1.0657  0.9261  0.3535
 9587TIP3   OH250175   5.959   0.279   1.203  0.1568 -0.2916 -0.5606
 9587TIP3    H150176   5.864   0.283   1.191  0.1103  0.4807  0.0383
 9587TIP3    H250177   5.973   0.203   1.259 -0.1275 -0.2427 -0.4267
 9588TIP3   OH250178   2.601   1.836  15.993  0.2604 -0.5358  0.2424
 9588TIP3    H150179   2.527   1.780  16.016 -0.8140  0.4336 -0.7947
 9588TIP3    H250180   2.654   1.782  15.935 -0.1572 -0.8856  0.1813
 9589TIP3   OH250181   0.777   1.216  15.047  0.3239  0.2222 -0.1745
 9589TIP3    H150182   0.826   1.222  15.129 -0.6785 -0.4167  0.4784
 9589TIP3    H250183   0.710   1.283  15.054 -2.2340 -2.3408  1.2474
 9590TIP3   OH250184   7.246   2.911  12.807 -0.3740 -0.1526  0.1655
 9590TIP3    H150185   7.304   2.834  12.801 -1.0781 -0.8655  2.0130
 9590TIP3    H250186   7.161   2.879  12.779 -0.5507  0.0883  0.4229
 9591TIP3   OH250187   2.758   6.403  14.179 -0.3452 -0.1184 -0.1731
 9591TIP3    H150188   2.791   6.354  14.255 -1.7178  0.1995  0.6413
 9591TIP3    H250189   2.773   6.495  14.202  2.9606 -0.1081 -2.0330
 9592TIP3   OH250190   2.360   1.342  14.005  0.2378  0.0218  0.1565
 9592TIP3    H150191   2.403   1.414  13.959  1.0199 -0.9682 -0.6905
 9592TIP3    H250192   2.426   1.310  14.067 -0.7777  1.2919  1.9581
 9593TIP3   OH250193   0.749   0.989  13.186  0.6893 -0.7191 -0.3119
 9593TIP3    H150194   0.683   1.053  13.213  0.4716 -0.8423 -0.5481
 9593TIP3    H250195   0.702   0.929  13.129  1.4177  0.2474 -1.9868
 9594TIP3   OH250196   3.611   1.440   1.257  0.1047 -0.0700  0.1849
 9594TIP3    H150197   3.705   1.448   1.243 -0.0739  0.5356 -0.6791
 9594TIP3    H250198   3.571   1.493   1.188 -0.9746 -3.2884 -1.7405
 9595TIP3   OH250199   6.611   1.338  15.663  0.2469 -0.0958 -0.7926
 9595TIP3    H150200   6.691   1.294  15.689 -0.3366 -0.6721  0.0220
 9595TIP3    H250201   6.609   1.418  15.716  0.1848 -0.1731 -0.6798
 9596TIP3   OH250202   4.878   6.279  14.292  0.2474  0.1553  0.7074
 9596TIP3    H150203   4.838   6.197  14.323  0.1386  0.3371  1.0480
 9596TIP3    H250204   4.805   6.340  14.284  0.1092 -0.2205 -1.0113
 9597TIP3   OH250205   0.496   2.489  14.679  0.0598 -0.1928  0.3979
 9597TIP3    H150206   0.503   2.408  14.628 -1.2641  0.7238 -1.2862
 9597TIP3    H250207   0.555   2.475  14.753  1.5422 -1.8331 -1.0237
 9598TIP3   OH250208   6.895   6.803   0.602  0.2683 -0.0538  0.3517
 9598TIP3    H150209   6.946   6.884   0.610  1.3965 -0.7331  0.1354
 9598TIP3    H250210   6.959   6.736   0.579 -1.0184 -0.5601 -1.8711
 9599TIP3   OH250211   4.399   7.093  14.088  0.7034 -0.4975  0.3219
 9599TIP3    H150212   4.416   6.999  14.090 -0.0094 -0.6599 -0.7223
 9599TIP3    H250213   4.484   7.133  14.105  1.7627 -1.3148 -2.6413
 9600TIP3   OH250214   2.389   5.920  14.739 -0.0608  0.0464  0.4937
 9600TIP3    H150215   2.333   5.939  14.664  0.5996 -1.4487 -0.4168
 9600TIP3    H250216   2.329   5.905  14.811 -0.7983 -0.3341 -0.1887
 9601TIP3   OH250217   0.222   0.626  15.272 -0.1806  0.0144  0.4622
 9601TIP3    H150218   0.155   0.583  15.324  0.2031  0.0373  0.9768
 9601TIP3    H250219   0.276   0.555  15.238  0.3397  0.0809  1.1553
 9602TIP3   OH250220   0.750   2.502   1.786 -0.2769 -0.5977  0.5723
 9602TIP3    H150221   0.668   2.488   1.739 -0.8292 -2.1954  1.9644
 9602TIP3    H250222   0.807   2.545   1.722 -1.9144 -0.2238 -0.6698
 9603TIP3   OH250223   1.087   0.827   1.166  0.1862 -0.3900 -0.3559
 9603TIP3    H150224   1.018   0.841   1.231 -0.7478  0.4901 -1.5452
 9603TIP3    H250225   1.166   0.863   1.207 -0.2573 -0.4439  0.5588
 9604TIP3   OH250226   5.814   1.546  15.088  0.0749  0.2397  0.1973
 9604TIP3    H150227   5.728   1.507  15.070  0.8318 -1.3815 -0.0295
 9604TIP3    H250228   5.874   1.471  15.088  1.3770  1.2703  1.0702
 9605TIP3   OH250229   3.298   6.701   0.334 -0.0411  0.1512 -0.2238
 9605TIP3    H150230   3.234   6.772   0.327  0.7475  0.9903  0.7955
 9605TIP3    H250231   3.288   6.669   0.424  0.5655 -0.1098 -0.2453
 9606TIP3   OH250232   0.858   3.493  15.114 -0.5746 -0.7996 -0.7929
 9606TIP3    H150233   0.930   3.543  15.153  1.4732 -4.7325  0.7161
 9606TIP3    H250234   0.780   3.524  15.159  0.5169  1.5644 -0.4531
 9607TIP3   OH250235   1.077   3.665  14.111 -0.2921 -0.1122 -0.0609
 9607TIP3    H150236   1.152   3.616  14.077 -1.0076 -1.5057  0.2827
 9607TIP3    H250237   1.008   3.650  14.046 -0.2450  1.2463 -0.4325
 9608TIP3   OH250238   6.829   3.200  15.409 -0.1502  0.6171  0.0534
 9608TIP3    H150239   6.808   3.268  15.345  0.2722  0.3458 -0.3714
 9608TIP3    H250240   6.744   3.178  15.448 -0.5711  0.0670 -1.1278
 9609TIP3   OH250241   6.493   6.122   0.002 -0.4183 -0.3974 -0.4650
 9609TIP3    H150242   6.437   6.200  -0.003 -0.6314 -0.5089  0.1134
 9609TIP3    H250243   6.445   6.062   0.060  0.4668 -0.3594  0.3077
 9610TIP3   OH250244   3.374   4.609  13.421  1.2242  0.2554 -0.2910
 9610TIP3    H150245   3.297   4.610  13.364  0.1047  0.2451  1.2170
 9610TIP3    H250246   3.396   4.702  13.433  0.1368  0.3489  1.0313
 9611TIP3   OH250247   1.702   5.745  15.495 -0.1734  0.6953 -0.2567
 9611TIP3    H150248   1.620   5.790  15.473 -0.2754  1.6180  1.8593
 9611TIP3    H250249   1.704   5.745  15.591  1.0762 -1.5873 -0.2543
 9612TIP3   OH250250   6.656   1.913  15.283  0.1241 -0.6159  0.3032
 9612TIP3    H150251   6.609   1.939  15.204  1.4674 -0.5883 -0.4870
 9612TIP3    H250252   6.602   1.948  15.355 -0.0133  1.1851 -0.6407
 9613TIP3   OH250253   6.025   5.255   0.249  0.0064 -0.0999 -0.0997
 9613TIP3    H150254   5.930   5.249   0.261 -0.0043  0.2416 -0.0091
 9613TIP3    H250255   6.059   5.174   0.288 -0.0838  0.7091  1.7182
 9614TIP3   OH250256   1.480   2.143  13.201 -0.6399 -0.2737  0.2220
 9614TIP3    H150257   1.468   2.210  13.134 -1.7055  1.1870  1.8399
 9614TIP3    H250258   1.398   2.093  13.199 -0.8278  0.0069  0.6616
 9615TIP3   OH250259   1.449   2.963  14.961  0.1905 -0.5054  0.2564
 9615TIP3    H150260   1.482   3.053  14.965  1.1040 -0.8699  1.1578
 9615TIP3    H250261   1.376   2.962  15.022  0.2213 -0.3822  0.2949
 9616TIP3   OH250262   5.969   4.246   1.609 -0.1657  0.2996 -0.3815
 9616TIP3    H150263   5.942   4.332   1.640  0.0068  0.6300 -1.1238
 9616TIP3    H250264   5.892   4.191   1.621 -0.2279  0.5194  0.2394
 9617TIP3   OH250265   1.305   1.727   0.095 -0.1605  0.1375  0.2913
 9617TIP3    H150266   1.393   1.713   0.128 -0.5198 -1.2868  0.6709
 9617TIP3    H250267   1.317   1.762   0.007  0.7830 -0.8501  0.0218
 9618TIP3   OH250268   2.080   7.083   2.706 -0.7256 -0.0828  0.0987
 9618TIP3    H150269   2.081   7.144   2.632 -0.1126 -2.2786 -1.7445
 9618TIP3    H250270   2.158   7.106   2.757  1.0653 -1.0968 -2.0947
 9619TIP3   OH250271   1.811   0.571   3.142  0.1597 -0.2561 -0.1148
 9619TIP3    H150272   1.769   0.552   3.058  0.3709  0.8984 -0.4871
 9619TIP3    H250273   1.877   0.638   3.122 -1.2954  1.6669  1.3399
 9620TIP3   OH250274   5.167   4.461  15.790 -0.3330  0.4992  0.2065
 9620TIP3    H150275   5.105   4.423  15.728 -1.2835  2.4431 -0.0397
 9620TIP3    H250276   5.221   4.520  15.737 -0.3820  1.2730  1.0068
 9621TIP3   OH250277   0.255   0.127   2.928 -0.1264  0.2907  0.5788
 9621TIP3    H150278   0.235   0.221   2.929  0.8588  0.6037 -3.0868
 9621TIP3    H250279   0.170   0.086   2.914 -0.2928  0.7877  0.0635
 9622TIP3   OH250280   1.042   1.891  15.624 -0.1128 -0.2327 -0.2077
 9622TIP3    H150281   0.985   1.954  15.670  0.4668  0.3297 -0.2544
 9622TIP3    H250282   0.985   1.853  15.557 -0.6402 -0.2073  0.2134
 9623TIP3   OH250283   1.019   2.195  15.871 -0.1522 -0.4047 -0.5519
 9623TIP3    H150284   0.986   2.133  15.806 -0.3388 -1.8454  0.8744
 9623TIP3    H250285   1.108   2.165  15.890  0.1971  0.4986 -0.7248
 9624TIP3   OH250286   7.068   0.037  15.658  0.5260 -0.4062 -0.0271
 9624TIP3    H150287   7.024  -0.011  15.588  2.2759 -0.5924 -1.0141
 9624TIP3    H250288   7.050   0.129  15.639  0.4705 -0.4864 -0.3667
 9625TIP3   OH250289   0.817   2.147  14.983  0.4725 -0.4414 -0.6148
 9625TIP3    H150290   0.884   2.117  14.922  1.3347  0.1223  0.0401
 9625TIP3    H250291   0.863   2.207  15.042 -0.6234  0.0304 -0.2126
 9626TIP3   OH250292   5.989   3.089   1.602  0.0697  0.1980 -0.3395
 9626TIP3    H150293   5.992   3.116   1.694 -0.0586  1.8169 -0.8066
 9626TIP3    H250294   6.078   3.099   1.571  0.1402 -0.4798 -0.3577
 9627TIP3   OH250295   4.929   3.991  14.414  0.1813  0.0426  0.2861
 9627TIP3    H150296   4.910   3.897  14.415 -1.5445  0.3372 -1.4944
 9627TIP3    H250297   4.888   4.025  14.493  0.9317 -0.6957  1.0114
 9628TIP3   OH250298   3.191   0.606  13.847  0.1094 -0.8983 -0.1637
 9628TIP3    H150299   3.187   0.682  13.906  0.3341 -1.1218  0.1427
 9628TIP3    H250300   3.282   0.576  13.854  0.6816  0.2440 -2.0943
 9629TIP3   OH250301   5.735   1.522   0.021  0.2748  0.1196 -0.5230
 9629TIP3    H150302   5.690   1.438   0.018  2.8564 -1.4365  1.7279
 9629TIP3    H250303   5.764   1.537  -0.069  0.0960 -1.5991 -0.8734
 9630TIP3   OH250304   6.980   7.121  14.072  0.0666  0.4814  0.7755
 9630TIP3    H150305   7.004   7.082  13.987 -0.1978  0.3975  0.7383
 9630TIP3    H250306   6.922   7.056  14.112  1.6546 -0.3216  1.8285
 9631TIP3   OH250307   1.371   6.874   1.035  0.5639 -0.2662 -0.3694
 9631TIP3    H150308   1.459   6.844   1.012  1.0028 -0.7371  1.8137
 9631TIP3    H250309   1.359   6.844   1.125 -1.1137  1.4061 -0.0237
 9632TIP3   OH250310   1.743   0.261   1.322  0.4260  0.1429  0.4442
 9632TIP3    H150311   1.837   0.252   1.333  0.1982 -0.6564  1.8869
 9632TIP3    H250312   1.706   0.190   1.374 -0.9094 -1.0324 -2.0290
 9633TIP3   OH250313   2.713   2.027   0.211 -0.0108  0.0290 -0.1306
 9633TIP3    H150314   2.727   2.002   0.120 -1.1006  1.7398 -0.7764
 9633TIP3    H250315   2.625   1.997   0.232  0.3574 -0.6537  0.4728
 9634TIP3   OH250316   7.134   0.172   1.846 -0.6317  0.5047  0.4752
 9634TIP3    H150317   7.060   0.219   1.885 -1.7364 -2.1604  1.6989
 9634TIP3    H250318   7.210   0.201   1.896 -1.0933  2.0208  0.3077
 9635TIP3   OH250319   1.446   3.917  14.688 -0.5450  0.5387 -0.0646
 9635TIP3    H150320   1.362   3.957  14.711  0.0996  1.8221  0.1656
 9635TIP3    H250321   1.506   3.992  14.681  0.3014 -0.2527 -1.4149
 9636TIP3   OH250322   6.924   3.562  14.632 -0.0416  0.2144 -0.1066
 9636TIP3    H150323   6.912   3.562  14.538  1.3634  0.9220 -0.3022
 9636TIP3    H250324   6.836   3.550  14.668 -0.8172  1.6654 -1.4727
 9637TIP3   OH250325   6.200   2.851  13.755  0.1933  0.1937 -0.2469
 9637TIP3    H150326   6.112   2.819  13.775  0.6682 -0.6318  0.5235
 9637TIP3    H250327   6.196   2.874  13.662 -1.0983  1.0214 -0.0104
 9638TIP3   OH250328   6.377   5.591  13.154 -0.0013  0.7935  0.7860
 9638TIP3    H150329   6.410   5.586  13.064 -1.3269 -1.0894  0.3796
 9638TIP3    H250330   6.282   5.603  13.144  0.0863  2.5842  1.9462
 9639TIP3   OH250331   6.051   1.728   2.986  0.5832 -0.1841  0.3639
 9639TIP3    H150332   6.099   1.699   2.908  0.8848  0.1899  0.4078
 9639TIP3    H250333   6.074   1.820   2.995  0.0309 -0.0587  0.5198
 9640TIP3   OH250334   6.394   2.438   1.346 -0.4516  0.3629 -0.0133
 9640TIP3    H150335   6.380   2.467   1.256  0.3000 -1.3667 -0.6918
 9640TIP3    H250336   6.421   2.518   1.392  1.3976  0.8102 -1.8088
 9641TIP3   OH250337   0.863   6.983   1.246 -0.8451  1.0102 -0.0308
 9641TIP3    H150338   0.838   6.898   1.282 -2.2601  0.6304 -1.8340
 9641TIP3    H250339   0.932   7.014   1.304 -0.2852 -1.3690  0.6360
 9642TIP3   OH250340   1.139   3.765   2.330 -0.4319  0.3827 -0.6384
 9642TIP3    H150341   1.222   3.739   2.290  1.0844  0.5296  2.2479
 9642TIP3    H250342   1.074   3.706   2.291  1.0960 -0.0924 -2.5584
 9643TIP3   OH250343   4.386   2.256   1.887 -0.0476 -0.2571  0.0625
 9643TIP3    H150344   4.397   2.165   1.915 -0.3664 -0.5055 -0.6065
 9643TIP3    H250345   4.312   2.253   1.826 -2.7873  1.0523  3.1336
 9644TIP3   OH250346   2.995   7.114  15.395  0.3435 -0.5486  0.3053
 9644TIP3    H150347   3.039   7.060  15.460 -0.1380  0.5291  1.5474
 9644TIP3    H250348   3.042   7.097  15.313  2.7388  0.2354  1.5019
 9645TIP3   OH250349   3.275   0.982  12.712 -0.5932 -0.2481 -0.3189
 9645TIP3    H150350   3.370   0.978  12.710 -0.5782 -1.0216  1.1563
 9645TIP3    H250351   3.247   0.890  12.705 -1.1496 -0.2508  1.6187
 9646TIP3   OH250352   3.445   3.555  15.447  0.7851  1.0133  0.3456
 9646TIP3    H150353   3.430   3.552  15.352 -0.5796  0.7580  0.5531
 9646TIP3    H250354   3.532   3.519  15.459  0.6102  0.2013 -0.7506
 9647TIP3   OH250355   7.069   0.007   1.361 -0.3538  0.4559 -0.2464
 9647TIP3    H150356   7.113   0.051   1.433  0.3053  0.7357 -0.8153
 9647TIP3    H250357   7.022  -0.066   1.402 -0.4118  0.9236  0.5294
 9648TIP3   OH250358   2.875   3.847   2.511  0.0101 -0.7329  0.1240
 9648TIP3    H150359   2.889   3.797   2.592 -0.5486 -1.0893  0.0072
 9648TIP3    H250360   2.819   3.790   2.458  0.0432 -0.3267 -0.3459
 9649TIP3   OH250361   2.694   0.569  14.991  0.3771  0.3591  0.1106
 9649TIP3    H150362   2.741   0.550  14.910  1.3583  0.1875  0.7066
 9649TIP3    H250363   2.750   0.632  15.037  0.6204 -0.7744  1.3866
 9650TIP3   OH250364   3.587   0.739  13.733  0.1502 -0.1938 -0.2795
 9650TIP3    H150365   3.676   0.765  13.755 -0.0368  0.7861 -0.6426
 9650TIP3    H250366   3.586   0.734  13.637  0.1343 -1.3899 -0.2250
 9651TIP3   OH250367   5.456   0.110   0.819  0.2357  0.0793 -0.0833
 9651TIP3    H150368   5.390   0.091   0.886  0.6183 -0.5945  0.1117
 9651TIP3    H250369   5.417   0.077   0.738  1.3853 -2.6872  0.4415
 9652TIP3   OH250370   6.849   1.790  14.299 -0.2868  0.4784  0.1018
 9652TIP3    H150371   6.898   1.749  14.370 -0.7932 -1.4817 -0.6646
 9652TIP3    H250372   6.840   1.722  14.233 -3.1644  1.1101 -0.2026
 9653TIP3   OH250373   2.305   5.540  11.913  0.1284 -0.1836 -0.5537
 9653TIP3    H150374   2.394   5.529  11.947 -0.2773 -2.4941 -0.1733
 9653TIP3    H250375   2.299   5.480  11.839 -1.4813 -0.9132  0.1467
 9654TIP3   OH250376   4.502   5.110  15.312 -0.2363 -0.1476  0.3217
 9654TIP3    H150377   4.436   5.156  15.365  1.3553  2.9431 -0.2743
 9654TIP3    H250378   4.451   5.056  15.252 -2.4566  4.0859 -1.8863
 9655TIP3   OH250379   3.293   3.009  15.778  0.3295 -0.5240 -0.0871
 9655TIP3    H150380   3.277   3.025  15.685 -0.7950 -0.5993  0.0876
 9655TIP3    H250381   3.274   2.916  15.791  0.4212 -0.4998  0.2307
 9656TIP3   OH250382   4.294   0.688  13.973  0.2842  0.0354 -0.1990
 9656TIP3    H150383   4.232   0.635  14.023  2.0924  0.8489  2.9850
 9656TIP3    H250384   4.279   0.661  13.882 -4.1236 -0.3873  0.5474
 9657TIP3   OH250385   0.015   4.690   0.402  0.8138  0.3864 -0.1278
 9657TIP3    H150386   0.056   4.776   0.405  0.0698  0.7078  0.6289
 9657TIP3    H250387  -0.049   4.696   0.331  1.2426  0.2445 -0.5291
 9658TIP3   OH250388   1.712   1.519   2.340 -0.0474 -0.0573 -0.7479
 9658TIP3    H150389   1.807   1.532   2.328 -0.1326  0.1923 -1.1849
 9658TIP3    H250390   1.704   1.430   2.372  0.3470 -0.0512 -0.6269
 9659TIP3   OH250391   3.158   3.796   1.684  0.4653  0.1199 -0.7338
 9659TIP3    H150392   3.106   3.865   1.643 -0.5950 -0.5790 -0.5740
 9659TIP3    H250393   3.109   3.716   1.669  1.1296 -0.4464  0.0556
 9660TIP3   OH250394   1.519   6.390  15.173  0.5756  0.3635  0.1707
 9660TIP3    H150395   1.483   6.454  15.112 -1.0875 -0.9510 -0.2821
 9660TIP3    H250396   1.565   6.442  15.239 -1.3760  2.0567  0.2300
 9661TIP3   OH250397   1.547   1.964   0.015  0.5711 -0.4862 -0.0114
 9661TIP3    H150398   1.636   1.969  -0.019 -0.0331 -1.4788 -1.8017
 9661TIP3    H250399   1.557   1.959   0.110  2.5345 -3.2042 -0.3320
 9662TIP3   OH250400   2.003   2.292   1.060  0.0932  0.2313  0.2250
 9662TIP3    H150401   2.073   2.353   1.038 -1.3659  2.4708  1.6010
 9662TIP3    H250402   1.987   2.307   1.153 -2.9448  0.5911 -0.3165
 9663TIP3   OH250403   4.181   3.008  14.156 -0.3125  0.0164 -0.6068
 9663TIP3    H150404   4.117   3.041  14.093  0.7947  0.0976 -1.6905
 9663TIP3    H250405   4.165   2.914  14.159 -0.6456  0.0693 -0.6798
 9664TIP3   OH250406   2.893   2.795  15.953  0.8287  0.2846  0.4830
 9664TIP3    H150407   2.915   2.772  16.043 -1.8165  1.9166  1.6066
 9664TIP3    H250408   2.842   2.721  15.921  1.9373 -0.3834  0.2283
 9665TIP3   OH250409   1.785   0.742   0.990 -1.1400 -0.1697  0.4041
 9665TIP3    H150410   1.814   0.814   0.935  0.3337 -1.5408 -0.6673
 9665TIP3    H250411   1.714   0.779   1.043 -0.4228  2.0369 -0.1226
 9666TIP3   OH250412   0.573   2.894   2.408  0.2647 -0.3739 -0.5653
 9666TIP3    H150413   0.558   2.799   2.404 -1.1765 -0.1005 -2.0770
 9666TIP3    H250414   0.492   2.929   2.443  1.2495  0.2174  1.1846
 9667TIP3   OH250415   0.972   4.166  14.706  0.0944  0.0228 -0.5933
 9667TIP3    H150416   0.924   4.096  14.662  0.6292 -0.0431 -1.0948
 9667TIP3    H250417   1.011   4.216  14.634  1.2847 -0.3033 -0.1858
 9668TIP3   OH250418   1.687   1.115  14.968  0.0055  0.3193 -0.0471
 9668TIP3    H150419   1.652   1.067  15.042 -1.4859  1.5201  0.0484
 9668TIP3    H250420   1.643   1.079  14.891  0.3595  0.1740 -0.1843
 9669TIP3   OH250421   2.316   0.431   2.039  0.3547 -0.1215  0.2640
 9669TIP3    H150422   2.374   0.460   1.968 -0.1900  1.8679  0.6052
 9669TIP3    H250423   2.316   0.335   2.032  1.2386 -0.0068 -1.6753
 9670TIP3   OH250424   4.420   3.691   1.714 -0.2101  0.2168 -0.1093
 9670TIP3    H150425   4.403   3.598   1.699  0.4739  0.1181 -0.3149
 9670TIP3    H250426   4.495   3.710   1.658 -0.2864  0.8707  0.0093
 9671TIP3   OH250427   2.533   6.094   0.247 -0.1171 -0.2063  0.3821
 9671TIP3    H150428   2.503   6.146   0.322  2.1513  0.9593  0.5110
 9671TIP3    H250429   2.527   6.153   0.173 -0.0147 -0.5993  0.0608
 9672TIP3   OH250430   1.862   1.019   0.052 -0.2072 -0.2198 -0.0997
 9672TIP3    H150431   1.771   1.006   0.079 -0.3302  0.4242 -0.1804
 9672TIP3    H250432   1.885   0.939   0.006 -0.9692 -0.0903 -0.7271
 9673TIP3   OH250433   3.304   2.784  14.895  0.0524 -0.8121  0.0104
 9673TIP3    H150434   3.391   2.751  14.919 -0.0590 -0.3780  1.0385
 9673TIP3    H250435   3.273   2.723  14.828  0.5607 -1.8130  0.6640
 9674TIP3   OH250436   4.104   1.556  15.995 -0.6988  0.4264 -0.2985
 9674TIP3    H150437   4.026   1.581  15.944 -2.0122 -1.5642  0.6846
 9674TIP3    H250438   4.159   1.510  15.933 -0.9488  0.5882 -0.6427
 9675TIP3   OH250439   5.269   2.434  13.410  0.5613 -0.4427 -0.6453
 9675TIP3    H150440   5.348   2.468  13.453  0.9148  0.2597 -1.8398
 9675TIP3    H250441   5.294   2.347  13.379  0.7523 -0.3567 -0.7296
 9676TIP3   OH250442   3.674   1.693  14.443 -0.5538  0.0885 -0.3966
 9676TIP3    H150443   3.657   1.772  14.392 -0.9909 -0.2321 -0.7485
 9676TIP3    H250444   3.608   1.694  14.512  0.3520  0.7834  0.4670
 9677TIP3   OH250445   5.986   4.536   2.800  0.2582 -0.4042 -0.3013
 9677TIP3    H150446   5.909   4.500   2.756 -0.6191  0.8034  0.2171
 9677TIP3    H250447   5.975   4.631   2.793  1.6432 -0.2220 -0.1261
 9678TIP3   OH250448   3.539   7.241  14.234 -0.2848 -0.0007 -0.6640
 9678TIP3    H150449   3.531   7.171  14.298 -1.2765 -0.4007 -1.2118
 9678TIP3    H250450   3.633   7.248  14.218  0.0147  0.4964  1.2402
 9679TIP3   OH250451   2.840   0.728   0.626  0.9273  0.7186 -0.3197
 9679TIP3    H150452   2.838   0.637   0.596 -0.5429  0.6769 -0.1377
 9679TIP3    H250453   2.879   0.723   0.713  0.7562  0.2378 -0.2655
 9680TIP3   OH250454   4.481   5.790  14.364  0.0071  0.0139  0.1983
 9680TIP3    H150455   4.458   5.758  14.451  0.1625 -1.9364 -0.4409
 9680TIP3    H250456   4.432   5.872  14.354 -1.2438 -0.5590  1.5131
 9681TIP3   OH250457   5.529   6.926   1.091 -0.1054 -0.4994  0.0002
 9681TIP3    H150458   5.523   7.010   1.047 -0.8220 -0.7857 -0.4614
 9681TIP3    H250459   5.493   6.942   1.178  2.2069  0.2964  0.8274
 9682TIP3   OH250460   4.123   7.134  13.067 -0.1140  0.1093 -0.0059
 9682TIP3    H150461   4.123   7.203  13.000 -2.2357 -1.0932 -1.2908
 9682TIP3    H250462   4.163   7.059  13.024  0.9191  0.0907  0.9508
 9683TIP3   OH250463   1.882   5.181  13.448 -0.4060 -0.2708 -0.4409
 9683TIP3    H150464   1.829   5.107  13.478 -3.4771  0.5746 -3.4968
 9683TIP3    H250465   1.863   5.251  13.510 -2.3950 -0.1804 -1.1230
 9684TIP3   OH250466   4.781   5.294  14.999 -0.4370  0.3596  0.1554
 9684TIP3    H150467   4.688   5.272  14.999 -0.6184  1.0828 -0.7007
 9684TIP3    H250468   4.822   5.226  14.945 -0.2745 -0.6701  1.5366
 9685TIP3   OH250469   5.794   0.078  14.658 -0.1839  0.5912 -0.4276
 9685TIP3    H150470   5.884   0.064  14.630  0.9017  3.5379  1.3442
 9685TIP3    H250471   5.758   0.139  14.594 -0.7806 -0.1622 -0.8265
 9686TIP3   OH250472   5.740   2.958  15.672  0.1896 -0.0087 -0.1321
 9686TIP3    H150473   5.760   3.005  15.753  0.5162  2.1933 -1.4661
 9686TIP3    H250474   5.713   2.871  15.702 -1.0363  1.1902  2.4374
 9687TIP3   OH250475   6.929   2.764   2.222  0.0310  0.2463 -0.5211
 9687TIP3    H150476   7.007   2.736   2.271 -0.0114 -1.4063 -1.3459
 9687TIP3    H250477   6.954   2.847   2.182  1.1655  0.0278 -0.2832
 9688TIP3   OH250478   5.038   0.766   2.628  0.1650 -0.0061 -0.0989
 9688TIP3    H150479   4.950   0.730   2.626  1.5991 -3.7942  0.2587
 9688TIP3    H250480   5.060   0.780   2.536 -0.4478  0.0293 -0.2435
 9689TIP3   OH250481   3.695   0.298  15.525  0.4586 -0.5694 -0.4126
 9689TIP3    H150482   3.625   0.242  15.560 -1.9761  2.2590 -0.6205
 9689TIP3    H250483   3.651   0.358  15.466  3.0349  1.4329 -0.3774
 9690TIP3   OH250484   3.826   7.015  14.787 -0.1050  0.4557 -0.2913
 9690TIP3    H150485   3.868   7.101  14.785 -1.1901  1.0668  1.4047
 9690TIP3    H250486   3.765   7.017  14.713  1.8110  0.0827 -1.9246
 9691TIP3   OH250487   3.511   2.485   1.821 -0.0181 -0.3523 -0.0381
 9691TIP3    H150488   3.480   2.448   1.738 -2.3618  0.5161  0.4060
 9691TIP3    H250489   3.601   2.513   1.803 -1.2091  1.8986 -2.9944
 9692TIP3   OH250490   5.556   3.048  14.509 -0.0680  0.3709 -0.3680
 9692TIP3    H150491   5.464   3.055  14.484  0.2811  0.2893 -1.6892
 9692TIP3    H250492   5.559   2.974  14.569 -1.3514  2.2240  2.1043
 9693TIP3   OH250493   5.262   5.911  12.758 -0.6295 -0.1115  0.0050
 9693TIP3    H150494   5.257   6.007  12.763  0.0805 -0.1638  2.1998
 9693TIP3    H250495   5.281   5.884  12.848  0.2185 -2.2476 -0.8049
 9694TIP3   OH250496   6.690   3.945   0.051  0.4548  0.8915 -0.7315
 9694TIP3    H150497   6.666   3.856   0.025  1.5847 -0.6129  2.9133
 9694TIP3    H250498   6.786   3.944   0.051  0.4706  2.0734 -0.5280
 9695TIP3   OH250499   7.179   6.896   2.377 -0.0938  0.0747  0.2317
 9695TIP3    H150500   7.105   6.846   2.344  0.4996 -1.8947  1.7666
 9695TIP3    H250501   7.242   6.898   2.305  0.0954 -1.8857  0.3248
 9696TIP3   OH250502   6.456   2.763   0.979 -0.4216 -0.4522  0.0786
 9696TIP3    H150503   6.401   2.684   0.981 -1.0453 -0.0273 -0.2948
 9696TIP3    H250504   6.482   2.771   0.888 -1.2297  0.3790 -0.0791
 9697TIP3   OH250505   0.347   0.088   1.150  0.2209  0.1948 -0.9244
 9697TIP3    H150506   0.313   0.079   1.061  0.7778 -0.0588 -1.1163
 9697TIP3    H250507   0.400   0.010   1.163 -0.4675 -0.1376 -0.0911
 9698TIP3   OH250508   5.904   1.914  14.431 -0.2401  0.5021 -0.6064
 9698TIP3    H150509   5.937   1.824  14.433 -0.5707  0.3626 -1.6510
 9698TIP3    H250510   5.877   1.928  14.341  0.5830  1.9332 -0.6508
 9699TIP3   OH250511   5.573   1.771   5.055  0.2539 -0.4073 -0.4031
 9699TIP3    H150512   5.538   1.825   5.126  0.8219  1.9437 -1.8376
 9699TIP3    H250513   5.508   1.702   5.043 -1.6228  1.2160  0.0450
 9700TIP3   OH250514   6.304   5.308   0.027 -0.4735 -0.1871  0.2968
 9700TIP3    H150515   6.251   5.246  -0.022  1.5410 -1.2728 -0.5315
 9700TIP3    H250516   6.351   5.358  -0.039 -0.1783  0.5247  1.0292
 9701TIP3   OH250517   2.999   2.992  14.488  0.3851 -0.7801  0.1927
 9701TIP3    H150518   2.976   2.940  14.565  0.7574 -0.8902  0.2306
 9701TIP3    H250519   2.982   3.083  14.515 -1.0424 -0.9428 -0.1479
 9702TIP3   OH250520   3.246   6.811  15.897 -0.1769  0.2328 -1.0588
 9702TIP3    H150521   3.214   6.870  15.965  0.6660  0.1241 -0.5530
 9702TIP3    H250522   3.277   6.869  15.827  0.2723  0.3918 -0.7373
 9703TIP3   OH250523   3.888   7.116  14.440  0.4412  0.1812 -0.1800
 9703TIP3    H150524   3.921   7.172  14.510  1.2907  0.4143 -0.7594
 9703TIP3    H250525   3.801   7.089  14.470 -0.8803  3.5298 -0.8444
 9704TIP3   OH250526   4.122   1.006   1.092 -0.0415  0.4855  0.7041
 9704TIP3    H150527   4.069   1.074   1.050 -0.2868  0.3514  0.7984
 9704TIP3    H250528   4.195   0.992   1.032  0.7216  1.7839  1.3147
 9705TIP3   OH250529   7.214   6.641  14.888  0.3575  0.5722  0.0274
 9705TIP3    H150530   7.131   6.599  14.909  0.8769 -0.5784 -0.1151
 9705TIP3    H250531   7.266   6.570  14.849  1.9788  0.8370  1.6439
 9706TIP3   OH250532   0.938   0.678  15.003  0.4255  0.2103 -0.0518
 9706TIP3    H150533   0.974   0.592  15.026 -0.4587 -0.4049 -0.9041
 9706TIP3    H250534   0.914   0.717  15.087  3.6236  0.9111  0.5934
 9707TIP3   OH250535   3.907   1.499  13.983 -0.2985 -0.4191 -0.1720
 9707TIP3    H150536   3.938   1.522  13.895 -0.5191 -1.1878 -0.4506
 9707TIP3    H250537   3.818   1.534  13.987  0.3398  1.1814  0.3863
 9708TIP3   OH250538   6.164   4.494  12.652  0.4382 -0.2950 -0.6692
 9708TIP3    H150539   6.120   4.495  12.567  1.9018 -0.3419 -1.4390
 9708TIP3    H250540   6.254   4.518  12.632  0.9091 -0.8303  0.8070
 9709TIP3   OH250541   2.596   2.052   1.982 -0.3458  0.4288  0.0791
 9709TIP3    H150542   2.684   2.044   1.944  0.8293 -0.4827  2.8945
 9709TIP3    H250543   2.537   2.022   1.912  1.6495 -0.1709 -1.3874
 9710TIP3   OH250544   5.445   1.050  15.631  0.0395  0.5342  0.0997
 9710TIP3    H150545   5.425   1.143  15.622  0.6601  0.4422 -2.8297
 9710TIP3    H250546   5.363   1.005  15.612  0.2199  0.4592 -0.5346
 9711TIP3   OH250547   0.202   0.353  12.394 -0.6226 -0.0789  0.2782
 9711TIP3    H150548   0.268   0.388  12.334 -2.1765 -0.3710 -1.6492
 9711TIP3    H250549   0.189   0.422  12.459 -0.1133  0.9338 -0.6819
 9712TIP3   OH250550   4.370   0.937   0.991  0.6817  0.7215 -0.1262
 9712TIP3    H150551   4.444   0.995   0.973  0.8206  0.7419  0.4828
 9712TIP3    H250552   4.314   0.945   0.914 -0.1526  3.0000  0.6742
 9713TIP3   OH250553   5.017   6.754   0.478 -0.0264  0.1092 -0.5981
 9713TIP3    H150554   5.070   6.681   0.509 -0.0732  0.2868 -0.1012
 9713TIP3    H250555   4.986   6.797   0.558  1.0878  1.4671 -0.8901
 9714TIP3   OH250556   2.140   1.315   2.008  0.4378  0.8676  0.1441
 9714TIP3    H150557   2.119   1.371   1.933  0.6363 -0.0218 -0.5966
 9714TIP3    H250558   2.209   1.362   2.054  1.9784  0.3582 -1.5581
 9715TIP3   OH250559   1.859   0.015  15.991  0.1130  0.4735  0.4999
 9715TIP3    H150560   1.920   0.087  16.006  1.0624 -0.0035 -0.9444
 9715TIP3    H250561   1.776   0.057  15.969  0.7074  1.1389 -0.5068
 9716TIP3   OH250562   3.979   2.228  12.779 -0.3686  0.4436 -0.1709
 9716TIP3    H150563   3.984   2.309  12.729 -0.0142  0.2249 -0.4875
 9716TIP3    H250564   3.894   2.190  12.755  0.0260  0.0852 -0.9853
 9717TIP3   OH250565   5.556   0.141  14.373  0.4767 -0.3448 -0.6458
 9717TIP3    H150566   5.530   0.149  14.281  1.4633  0.2228 -0.8860
 9717TIP3    H250567   5.652   0.134  14.369  0.3696 -2.6150  0.1869
 9718TIP3   OH250568   7.024   2.943   3.820 -0.1622 -0.9466  0.7418
 9718TIP3    H150569   7.038   2.876   3.753  0.5391 -0.5791  0.5161
 9718TIP3    H250570   7.096   3.005   3.808 -0.4023 -0.5269  1.4102
 9719TIP3   OH250571   6.648   1.291  14.568  0.0951  0.4397 -0.5433
 9719TIP3    H150572   6.621   1.208  14.528 -1.1501  0.3871  0.3491
 9719TIP3    H250573   6.598   1.294  14.650  2.4760  0.5738  0.9617
 9720TIP3   OH250574   3.817   0.866   0.087 -0.2489  0.3601 -0.2639
 9720TIP3    H150575   3.911   0.870   0.099 -0.4812  1.1125  1.3864
 9720TIP3    H250576   3.799   0.934   0.021  0.4410 -0.3155 -1.1520
 9721TIP3   OH250577   3.107   1.952   4.513 -0.5280  0.3340 -0.0585
 9721TIP3    H150578   3.169   1.947   4.441 -0.3943 -0.6641  0.1167
 9721TIP3    H250579   3.081   1.861   4.530  0.7937  0.3525  2.3112
 9722TIP3   OH250580   3.446   0.140  15.554  0.5914  0.7608 -0.1034
 9722TIP3    H150581   3.391   0.062  15.541 -0.8022  1.2533  2.5383
 9722TIP3    H250582   3.418   0.201  15.485 -2.0139  0.8925  1.0235
 9723TIP3   OH250583   1.323   0.192  11.325 -0.3606 -0.1082 -0.1289
 9723TIP3    H150584   1.296   0.141  11.401  1.7816 -1.1879 -0.0615
 9723TIP3    H250585   1.369   0.267  11.362  1.2184 -0.9497 -0.3532
 9724TIP3   OH250586   5.502   1.518   1.687 -0.2868 -0.3404  0.0728
 9724TIP3    H150587   5.445   1.595   1.692 -0.5981 -0.6622  1.5998
 9724TIP3    H250588   5.445   1.449   1.653 -0.5459 -0.4062  0.6357
 9725TIP3   OH250589   3.003   1.564  13.149  0.0214  0.0247  0.4374
 9725TIP3    H150590   3.012   1.494  13.213  2.3794  0.7612  0.9340
 9725TIP3    H250591   3.078   1.621  13.164  0.4845  0.3722 -2.7884
 9726TIP3   OH250592   6.212   0.482   3.463  0.1378  0.6559 -0.4874
 9726TIP3    H150593   6.141   0.534   3.426 -0.3494 -0.4456 -1.1437
 9726TIP3    H250594   6.256   0.540   3.525  0.2823  2.1889 -1.9932
 9727TIP3   OH250595   0.027   2.432   1.444 -0.0984 -0.8320 -0.0874
 9727TIP3    H150596  -0.008   2.443   1.356 -0.5173 -1.0900  0.0440
 9727TIP3    H250597   0.014   2.339   1.464 -0.4028 -0.6842  0.4135
 9728TIP3   OH250598   3.608   5.555  15.653 -0.5702 -0.8810  0.1200
 9728TIP3    H150599   3.612   5.585  15.562  0.7532 -2.7589 -0.4646
 9728TIP3    H250600   3.522   5.512  15.660 -0.4723 -1.1663 -0.3932
 9729TIP3   OH250601   6.763   1.407  15.190  0.4647 -0.1666 -0.3304
 9729TIP3    H150602   6.716   1.432  15.269  1.7192 -0.7198  0.6057
 9729TIP3    H250603   6.703   1.350  15.142  0.3160 -1.1575  1.0196
 9730TIP3   OH250604   5.871   4.992   1.450  0.3925 -0.2139  0.1497
 9730TIP3    H150605   5.881   4.974   1.544  1.3447 -1.0280 -0.0959
 9730TIP3    H250606   5.789   4.949   1.427  1.1358 -1.7265  0.2184
 9731TIP3   OH250607   5.557   3.747  14.746  0.1672 -0.0798 -0.2332
 9731TIP3    H150608   5.596   3.725  14.662  0.8116 -1.6528  0.4644
 9731TIP3    H250609   5.510   3.668  14.773 -2.4241  1.3362 -0.4335
 9732TIP3   OH250610   4.802   3.342   2.037 -0.0271  0.1382  0.4558
 9732TIP3    H150611   4.869   3.316   2.100 -1.0898 -1.1461  1.0862
 9732TIP3    H250612   4.850   3.353   1.954  1.0236 -0.3261  0.9959
 9733TIP3   OH250613   2.941   5.591   2.209  0.3848 -0.5629 -0.1825
 9733TIP3    H150614   2.967   5.522   2.270 -0.7633 -1.3982 -0.6232
 9733TIP3    H250615   2.984   5.568   2.126  2.8899  1.1938  0.5512
 9734TIP3   OH250616   2.479   5.936  15.418  0.1174  0.3203 -0.1922
 9734TIP3    H150617   2.514   5.847  15.429 -0.6849 -0.0165 -0.3256
 9734TIP3    H250618   2.519   5.967  15.336 -1.8800 -1.0430 -1.7348
 9735TIP3   OH250619   2.740   1.139   0.420  0.1357 -0.2107  0.3163
 9735TIP3    H150620   2.805   1.157   0.487 -0.1318 -2.5445  1.2505
 9735TIP3    H250621   2.733   1.043   0.418 -1.8580 -0.0736 -1.1221
 9736TIP3   OH250622   6.533   0.738  14.426  0.5685 -0.2472 -0.1048
 9736TIP3    H150623   6.526   0.769  14.335 -0.6356  2.2705  0.7871
 9736TIP3    H250624   6.443   0.727  14.455  0.9285 -0.5367  0.9370
 9737TIP3   OH250625   2.312   5.640  15.870 -0.6629 -0.1516 -0.2208
 9737TIP3    H150626   2.324   5.734  15.887  0.0951 -0.2092 -0.4060
 9737TIP3    H250627   2.378   5.620  15.803  0.2753 -1.1671  0.9802
 9738TIP3   OH250628   2.675   2.286  14.358 -0.7694  0.0392  0.0092
 9738TIP3    H150629   2.634   2.257  14.440 -2.5698  0.5726 -0.6621
 9738TIP3    H250630   2.667   2.382  14.361  0.5434  0.1511 -0.0883
 9739TIP3   OH250631   6.028   1.795  14.715  0.3362  0.2181  0.0353
 9739TIP3    H150632   5.987   1.859  14.774  0.6821  0.7894 -0.3292
 9739TIP3    H250633   6.050   1.846  14.637 -0.8944 -0.7206 -0.9384
 9740TIP3   OH250634   4.169   6.178   1.657  0.0446  0.1626  0.1681
 9740TIP3    H150635   4.099   6.124   1.620  1.3573 -2.3294  1.2606
 9740TIP3    H250636   4.196   6.235   1.584 -1.9586  0.0075 -0.7389
 9741TIP3   OH250637   3.325   5.662   0.353 -0.2025 -0.4248 -0.1639
 9741TIP3    H150638   3.370   5.746   0.344  0.3014 -0.6248  0.4701
 9741TIP3    H250639   3.395   5.597   0.348 -0.4824 -0.7627  0.3175
 9742TIP3   OH250640   5.787   2.751  12.710  0.0320 -0.2349 -0.4189
 9742TIP3    H150641   5.792   2.717  12.621  1.9021 -1.2826  0.0557
 9742TIP3    H250642   5.861   2.710  12.756 -0.9888  0.1549  1.6583
 9743TIP3   OH250643   3.085   1.398  13.779  0.5829  0.2086  0.2258
 9743TIP3    H150644   3.154   1.342  13.813  1.2700  0.8768 -0.0656
 9743TIP3    H250645   3.083   1.380  13.685  0.2346  0.0588  0.2589
 9744TIP3   OH250646   6.583   3.680  15.579  0.3227  0.3450 -0.2145
 9744TIP3    H150647   6.504   3.723  15.547  0.5167  0.2841 -0.7722
 9744TIP3    H250648   6.557   3.587  15.586  0.0666  0.4661  0.4800
 9745TIP3   OH250649   5.374   6.243   0.466 -0.5837 -0.2353  0.1915
 9745TIP3    H150650   5.349   6.204   0.550  2.6533 -1.9319  0.4841
 9745TIP3    H250651   5.402   6.332   0.489  0.1467 -0.6409  0.9158
 9746TIP3   OH250652   5.381   6.940   0.103  0.2117 -0.2104 -0.0939
 9746TIP3    H150653   5.406   7.014   0.047 -1.9567  1.1020  0.5953
 9746TIP3    H250654   5.303   6.971   0.149  0.6621 -2.0856  1.9924
 9747TIP3   OH250655   2.265   2.230   0.738  0.8747 -0.2846 -0.0111
 9747TIP3    H150656   2.295   2.301   0.795  1.9826 -0.9551  0.2687
 9747TIP3    H250657   2.217   2.274   0.668  1.2674  0.7132  0.3272
 9748TIP3   OH250658   5.123   0.265   0.700  0.3517 -0.0962 -0.0604
 9748TIP3    H150659   5.175   0.314   0.764 -0.6697  0.8075  0.1138
 9748TIP3    H250660   5.088   0.333   0.642 -0.4593 -0.7043 -0.2903
 9749TIP3   OH250661   0.566   6.668  15.872  0.0664  0.1610 -0.6960
 9749TIP3    H150662   0.596   6.758  15.856 -1.4046  0.6719 -0.6167
 9749TIP3    H250663   0.553   6.664  15.967 -0.8128  0.1631 -0.8145
 9750TIP3   OH250664   6.797   2.889  12.460 -0.2949  0.1390 -0.5472
 9750TIP3    H150665   6.773   2.894  12.552 -1.9523 -2.7117 -0.7513
 9750TIP3    H250666   6.866   2.954  12.449 -0.8256  1.2667  2.4477
 9751TIP3   OH250667   5.003   0.685  14.889 -0.7112  0.1754  0.3004
 9751TIP3    H150668   5.061   0.709  14.961 -1.0958  0.2233  0.5897
 9751TIP3    H250669   5.002   0.762  14.832  0.0082 -0.0483 -0.0317
 9752TIP3   OH250670   5.052   3.213   3.717 -0.7099 -0.6120 -0.0644
 9752TIP3    H150671   4.982   3.246   3.659 -2.3035 -0.9094  1.6310
 9752TIP3    H250672   5.062   3.281   3.784 -1.9905 -2.1914  1.7997
 9753TIP3   OH250673   4.352   1.637  15.283  0.1144  0.3108 -0.2309
 9753TIP3    H150674   4.315   1.552  15.256 -0.7063  0.3838  0.6344
 9753TIP3    H250675   4.446   1.625  15.274 -0.0102 -0.5473 -0.5431
 9754TIP3   OH250676   1.883   2.031  12.577  0.2699 -0.5839 -0.5207
 9754TIP3    H150677   1.927   2.070  12.501  0.6318 -1.8080 -0.9562
 9754TIP3    H250678   1.930   2.066  12.653  1.2891 -1.0027 -0.9422
 9755TIP3   OH250679   4.015   3.387  14.980 -0.0509 -0.3413 -0.6039
 9755TIP3    H150680   4.045   3.396  14.889  0.7885 -0.7618 -0.3805
 9755TIP3    H250681   4.064   3.454  15.028  1.3122 -1.6981 -0.0633
 9756TIP3   OH250682   3.993   2.069  13.995  0.2050  0.1138 -0.5114
 9756TIP3    H150683   4.018   1.979  13.976  0.2022  0.1694 -0.7837
 9756TIP3    H250684   3.985   2.110  13.909  0.3761  0.4208 -0.3793
 9757TIP3   OH250685   7.080   3.229  15.491  0.4871 -0.4528 -0.3554
 9757TIP3    H150686   6.987   3.231  15.471  0.5371 -2.9487 -1.0584
 9757TIP3    H250687   7.120   3.294  15.433 -0.7915  0.5178 -0.1494
 9758TIP3   OH250688   4.666   2.753  12.608  0.4917 -0.1643  0.2337
 9758TIP3    H150689   4.613   2.821  12.566 -0.6902  0.0219  1.9816
 9758TIP3    H250690   4.744   2.799  12.641 -0.1417  0.2936  1.1078
 9759TIP3   OH250691   1.149   4.987  13.308  0.3828  0.2973 -0.1751
 9759TIP3    H150692   1.096   5.032  13.374  0.9502  1.2760 -0.3902
 9759TIP3    H250693   1.108   5.009  13.225  0.8689  0.6886 -0.3082
 9760TIP3   OH250694   4.869   5.086  15.612  0.2900  0.6040 -0.0803
 9760TIP3    H150695   4.874   5.142  15.535  0.4172 -0.0579 -0.5542
 9760TIP3    H250696   4.819   5.010  15.583 -0.3012  0.6964  0.6962
 9761TIP3   OH250697   2.804   2.464   0.661 -0.6307 -0.3901 -0.2231
 9761TIP3    H150698   2.873   2.503   0.715 -0.7404 -0.3632 -0.1048
 9761TIP3    H250699   2.803   2.372   0.686 -0.8691 -0.3217  0.0155
 9762TIP3   OH250700   4.632   2.996   2.383  0.2510 -0.3693 -0.1108
 9762TIP3    H150701   4.570   3.067   2.403 -0.2129 -1.1642  1.3034
 9762TIP3    H250702   4.585   2.940   2.321  0.7992  0.7818 -1.6317
 9763TIP3   OH250703   5.792   1.441  12.197 -0.3685  0.1022  0.8050
 9763TIP3    H150704   5.844   1.415  12.272 -0.3304 -0.6719  0.5123
 9763TIP3    H250705   5.711   1.390  12.205 -0.8511  0.8832  0.9549
 9764TIP3   OH250706   2.559   6.326   1.914  0.2326 -0.2396  0.4188
 9764TIP3    H150707   2.474   6.339   1.871 -0.0958  1.0674  1.4319
 9764TIP3    H250708   2.614   6.288   1.846 -1.2974 -1.5785 -0.1115
 9765TIP3   OH250709   1.806   3.670   0.218 -0.3638  0.0899 -0.0205
 9765TIP3    H150710   1.886   3.711   0.251 -0.6337  1.2245 -0.7308
 9765TIP3    H250711   1.759   3.643   0.297  0.6723 -0.5050  0.4024
 9766TIP3   OH250712   0.595   1.000  15.031 -0.1060 -0.3342  0.2047
 9766TIP3    H150713   0.554   1.037  15.110  1.4560 -0.8770  1.2887
 9766TIP3    H250714   0.674   1.052  15.018 -0.9129  0.4439 -1.6399
 9767TIP3   OH250715   2.526   2.820   0.725 -0.2330 -0.2306 -0.3377
 9767TIP3    H150716   2.437   2.842   0.752  0.5297  1.2732  1.1497
 9767TIP3    H250717   2.551   2.747   0.782  0.1213  0.5951  0.5913
 9768TIP3   OH250718   2.846   3.083  15.074 -0.2527 -0.6429 -0.2648
 9768TIP3    H150719   2.902   3.034  15.134 -1.8204  0.0543  1.8025
 9768TIP3    H250720   2.902   3.154  15.041  0.4726 -0.7202  0.7785
 9769TIP3   OH250721   2.157   4.062   0.169 -0.1802  0.0591 -0.0535
 9769TIP3    H150722   2.198   3.985   0.129 -1.9723  0.5801 -3.0590
 9769TIP3    H250723   2.168   4.132   0.104 -1.7380  1.4223  1.0961
 9770TIP3   OH250724   6.949   2.493  13.136 -0.2151 -0.5637  0.1191
 9770TIP3    H150725   6.928   2.517  13.046  0.1008 -1.1525 -0.1164
 9770TIP3    H250726   6.929   2.571  13.187  0.3153  0.0168 -0.5577
 9771TIP3   OH250727   1.797   3.194   0.328  0.1624 -0.3749 -0.3147
 9771TIP3    H150728   1.884   3.233   0.315 -0.3677  1.4942  1.5861
 9771TIP3    H250729   1.736   3.265   0.307 -0.9688 -1.8571 -2.2303
 9772TIP3   OH250730   1.967   2.106   2.438  0.5711 -0.1941  0.3469
 9772TIP3    H150731   2.023   2.111   2.361 -0.0167 -0.7104 -0.1251
 9772TIP3    H250732   1.880   2.085   2.403 -0.0535  1.1926  1.0039
 9773TIP3   OH250733   1.734   2.349   1.589  0.3047 -0.3767  0.4714
 9773TIP3    H150734   1.676   2.315   1.522  0.4007  1.1776 -0.4278
 9773TIP3    H250735   1.679   2.360   1.666 -0.3899  0.2549 -0.1136
 9774TIP3   OH250736   2.627   5.513   0.897  0.7469  0.8330  0.1740
 9774TIP3    H150737   2.655   5.422   0.898 -0.2398  0.5222 -0.0108
 9774TIP3    H250738   2.704   5.562   0.868  0.7855 -0.1144 -1.3661
 9775TIP3   OH250739   0.363   2.091  14.579  0.4794 -0.8522 -0.2841
 9775TIP3    H150740   0.354   1.996  14.585 -1.8369 -0.6022  0.7637
 9775TIP3    H250741   0.325   2.113  14.494  0.3243 -0.7910 -0.1981
 9776TIP3   OH250742   2.563   5.391   3.816 -0.2639  0.1377 -0.2358
 9776TIP3    H150743   2.515   5.472   3.836  1.1633  0.7119  0.9529
 9776TIP3    H250744   2.607   5.410   3.733  0.8998  0.9713  0.5598
 9777TIP3   OH250745   6.243   3.847  14.885  0.2041 -0.2911  0.3609
 9777TIP3    H150746   6.229   3.770  14.829 -0.7685  0.4877 -0.4911
 9777TIP3    H250747   6.268   3.916  14.824 -0.9785  0.5963  0.8695
 9778TIP3   OH250748   3.005   3.631   0.818 -0.2694 -0.0724 -0.7332
 9778TIP3    H150749   3.058   3.606   0.893  1.0037 -0.8952 -1.8768
 9778TIP3    H250750   2.925   3.578   0.826 -0.8947  1.0812  0.9230
 9779TIP3   OH250751   0.161   4.930   0.419 -0.4670 -0.2302 -0.2799
 9779TIP3    H150752   0.106   4.979   0.480 -0.3743 -0.4249 -0.0353
 9779TIP3    H250753   0.250   4.950   0.446 -0.4316 -1.6401  0.7368
 9780TIP3   OH250754   2.043   5.179  13.869 -0.0692 -0.2605 -0.2044
 9780TIP3    H150755   2.071   5.221  13.950  1.6420  0.0976 -0.9657
 9780TIP3    H250756   2.062   5.086  13.882  1.0480 -0.0840 -0.5281
 9781TIP3   OH250757   1.557   3.454  14.013 -0.2514 -0.1220 -0.7289
 9781TIP3    H150758   1.650   3.478  14.008 -0.3350 -0.1756 -3.0971
 9781TIP3    H250759   1.558   3.364  14.047  0.4145  0.6624  1.4248
 9782TIP3   OH250760   1.933   3.308   1.720 -0.2750 -0.2533 -0.3483
 9782TIP3    H150761   1.975   3.296   1.635  0.8920  0.3846  0.1271
 9782TIP3    H250762   1.866   3.374   1.704  0.2667  0.2243 -0.6645
 9783TIP3   OH250763   2.287   6.551   0.828  0.8991  0.0429 -0.8472
 9783TIP3    H150764   2.269   6.645   0.833  2.7535  0.6324 -3.8232
 9783TIP3    H250765   2.376   6.542   0.862  0.6691 -0.6679 -0.4348
 9784TIP3   OH250766   0.718   1.644   0.653  0.7454  1.0624  0.4195
 9784TIP3    H150767   0.733   1.736   0.633  1.6012  0.4105 -2.0791
 9784TIP3    H250768   0.632   1.624   0.616  1.0282  0.5995  0.0061
 9785TIP3   OH250769   1.136   5.236   0.970 -0.7066  0.3851  0.1603
 9785TIP3    H150770   1.065   5.299   0.986 -0.4012  0.4297  1.4238
 9785TIP3    H250771   1.195   5.281   0.910 -0.4852  1.3159  1.0668
 9786TIP3   OH250772   7.109   2.466  14.934 -0.1112  0.3659 -0.4295
 9786TIP3    H150773   7.140   2.379  14.909  1.2540  0.8528 -0.4853
 9786TIP3    H250774   7.023   2.475  14.892 -1.5876 -2.0801  1.9325
 9787TIP3   OH250775   2.145   6.374  15.908 -0.1603  0.2927 -0.3584
 9787TIP3    H150776   2.185   6.339  15.987  2.3284 -1.6097 -2.3691
 9787TIP3    H250777   2.174   6.466  15.906 -1.3620  0.7416  1.5943
 9788TIP3   OH250778   6.453   3.241  11.700 -0.4575  0.5234  0.2276
 9788TIP3    H150779   6.406   3.296  11.763  1.0323 -0.4828  2.3198
 9788TIP3    H250780   6.500   3.303  11.644 -2.5201  1.4637 -0.5072
 9789TIP3   OH250781   2.976   3.273   1.325  0.3362 -0.6779  0.9223
 9789TIP3    H150782   2.886   3.272   1.355 -0.7668  0.6860 -2.1322
 9789TIP3    H250783   2.979   3.210   1.253  1.2419  0.8138 -0.4040
 9790TIP3   OH250784   6.672   5.679   1.696 -0.2733 -0.7799  0.0199
 9790TIP3    H150785   6.600   5.696   1.757  0.4135 -1.3117  0.9814
 9790TIP3    H250786   6.655   5.591   1.662  1.5746 -2.2061  2.6028
 9791TIP3   OH250787   4.025   1.979  15.531  0.0969 -0.1002 -0.3841
 9791TIP3    H150788   4.025   1.884  15.514 -1.2842 -0.0710 -0.6450
 9791TIP3    H250789   4.117   2.002  15.537  0.5808 -0.8375 -3.8062
 9792TIP3   OH250790   5.863   1.567  15.768 -0.1434 -0.3044  0.2352
 9792TIP3    H150791   5.950   1.542  15.797 -0.6766 -2.7240 -0.1790
 9792TIP3    H250792   5.878   1.621  15.691  1.0001 -0.0199  0.6425
 9793TIP3   OH250793   6.190   5.657   3.098 -0.3096  0.2994  0.5322
 9793TIP3    H150794   6.105   5.651   3.140 -0.3926 -1.0699  0.1778
 9793TIP3    H250795   6.246   5.597   3.147  0.0904  0.1440 -0.0976
 9794TIP3   OH250796   2.407   5.271  14.354 -0.7823 -0.2772  0.2928
 9794TIP3    H150797   2.313   5.253  14.362 -0.7891  0.2270  1.4160
 9794TIP3    H250798   2.444   5.190  14.318 -1.3587 -1.1923  1.7181
 9795TIP3   OH250799   4.461   3.033  14.298  0.5432  0.2631  0.4141
 9795TIP3    H150800   4.435   2.960  14.354  0.0997  0.6455  0.7134
 9795TIP3    H250801   4.380   3.058  14.253  1.2912 -1.3735 -1.9629
 9796TIP3   OH250802   5.680   1.131  15.315  0.5320 -0.1587 -0.4561
 9796TIP3    H150803   5.772   1.151  15.332  0.3768 -0.1375  0.3939
 9796TIP3    H250804   5.634   1.213  15.332  0.1669 -0.6027  0.7109
 9797TIP3   OH250805   3.552   1.574   0.409 -0.3581  0.5920 -0.1174
 9797TIP3    H150806   3.561   1.487   0.447 -0.6924  0.9012  0.6760
 9797TIP3    H250807   3.487   1.618   0.464  0.1074  1.4765 -0.2593
 9798TIP3   OH250808   2.578   4.278  15.568  0.8924 -0.4202 -0.1512
 9798TIP3    H150809   2.635   4.290  15.644  1.0267  0.0969 -0.3272
 9798TIP3    H250810   2.634   4.297  15.493  1.0159 -1.8841 -0.4340
 9799TIP3   OH250811   2.820   3.949  15.380  0.0518 -0.0369  0.9917
 9799TIP3    H150812   2.826   4.001  15.460 -0.9393 -0.1089  1.1133
 9799TIP3    H250813   2.741   3.980  15.336  1.1605  0.7205 -0.4820
 9800TIP3   OH250814   6.921   6.229   0.288  0.3524  0.0937 -0.2686
 9800TIP3    H150815   6.944   6.318   0.316  0.8205  0.2526 -1.1430
 9800TIP3    H250816   6.999   6.196   0.244  1.0917 -1.7424  2.3187
 9801TIP3   OH250817   5.183   2.145   1.443  0.1072  0.8174  0.5270
 9801TIP3    H150818   5.276   2.148   1.424  0.3081 -1.8178  0.9764
 9801TIP3    H250819   5.177   2.146   1.539 -0.3581  1.3826  0.5008
 9802TIP3   OH250820   5.210   0.621   0.074 -0.6701  0.1522 -0.3477
 9802TIP3    H150821   5.170   0.635   0.160 -1.1816  0.8371 -0.6882
 9802TIP3    H250822   5.286   0.566   0.091 -1.2672 -0.4361  0.4250
 9803TIP3   OH250823   0.636   2.853  15.774 -0.3235  0.5490 -0.2804
 9803TIP3    H150824   0.622   2.766  15.737 -1.3174 -0.2875  1.9808
 9803TIP3    H250825   0.670   2.836  15.862 -0.7337  2.4591  0.2589
 9804TIP3   OH250826   0.156   1.813   0.665  0.6870  0.1889 -0.1649
 9804TIP3    H150827   0.193   1.866   0.594  1.8053  1.7084  1.5230
 9804TIP3    H250828   0.225   1.750   0.686  0.3324 -0.2993 -0.4547
 9805TIP3   OH250829   4.751   1.153   0.569  0.4691  0.1083 -0.1583
 9805TIP3    H150830   4.763   1.241   0.604 -1.0772  0.7798 -1.2604
 9805TIP3    H250831   4.734   1.166   0.476  5.3833 -1.6844 -1.4619
 9806TIP3   OH250832   3.795   2.569   3.321  0.4701  0.0745 -0.3576
 9806TIP3    H150833   3.886   2.546   3.303 -0.0182 -2.0843 -0.2185
 9806TIP3    H250834   3.755   2.577   3.234  1.2375  3.1280 -0.4932
 9807TIP3   OH250835   3.571   0.496  14.109  0.3485  0.2791 -0.2341
 9807TIP3    H150836   3.580   0.400  14.107 -1.0991  0.1410 -1.9707
 9807TIP3    H250837   3.506   0.515  14.041  0.0379  2.4421  0.6241
 9808TIP3   OH250838   6.239   3.026  12.967 -0.5471  0.0870 -0.3437
 9808TIP3    H150839   6.312   3.070  12.924 -0.5309 -1.8423 -2.3663
 9808TIP3    H250840   6.280   2.975  13.037 -0.1415  0.2682 -0.4461
 9809TIP3   OH250841   0.939   2.457  13.623 -0.2270 -0.2046  0.7107
 9809TIP3    H150842   0.886   2.472  13.701  1.0669 -0.5880  1.6752
 9809TIP3    H250843   0.993   2.535  13.615  0.3515 -0.5937  0.7723
 9810TIP3   OH250844   1.844   1.746   3.102  0.4243 -0.0744  0.0258
 9810TIP3    H150845   1.934   1.720   3.121  0.9312 -0.0467 -2.1999
 9810TIP3    H250846   1.832   1.827   3.151  1.4182 -0.3951  0.8194
 9811TIP3   OH250847   4.329   4.899   2.590  0.2500 -0.1631 -0.8001
 9811TIP3    H150848   4.328   4.991   2.561  0.5656  0.2561  0.4794
 9811TIP3    H250849   4.413   4.865   2.558 -0.0572 -0.1350 -1.6530
 9812TIP3   OH250850   2.393   2.389  15.287  0.1137 -0.0143 -0.3838
 9812TIP3    H150851   2.342   2.374  15.367  1.3820  0.7372  0.5968
 9812TIP3    H250852   2.344   2.457  15.240 -0.1544  0.2203  0.2202
 9813TIP3   OH250853   5.239   2.586  14.998  0.5943 -0.1205 -0.3572
 9813TIP3    H150854   5.220   2.654  14.934 -2.4643 -1.0075 -0.4726
 9813TIP3    H250855   5.267   2.511  14.945  0.6635 -0.0039 -0.4830
 9814TIP3   OH250856   2.338   4.279   4.336  0.5208 -0.0072 -0.3295
 9814TIP3    H150857   2.344   4.341   4.263 -0.0576  0.4117 -0.0243
 9814TIP3    H250858   2.370   4.329   4.412 -1.1697  0.3401  0.1682
 9815TIP3   OH250859   1.742   6.411  14.276 -0.2820  0.4605 -0.0277
 9815TIP3    H150860   1.793   6.413  14.195 -0.0297  1.7582  0.1636
 9815TIP3    H250861   1.651   6.415  14.247 -0.2065  0.4778 -0.2655
 9816TIP3   OH250862   2.201   3.039   2.877  0.0801  0.1963 -0.0560
 9816TIP3    H150863   2.238   3.126   2.892  0.6033 -0.0891  0.3086
 9816TIP3    H250864   2.276   2.983   2.858 -0.4145  0.2514 -2.4357
 9817TIP3   OH250865   4.237   5.374  14.415 -0.1494 -0.5966  0.2269
 9817TIP3    H150866   4.215   5.340  14.502 -0.9215 -2.3846 -0.6546
 9817TIP3    H250867   4.271   5.299  14.367 -3.0861 -0.4654 -2.1652
 9818TIP3   OH250868   1.563   3.343   0.278  0.4801 -0.3557 -0.7327
 9818TIP3    H150869   1.583   3.337   0.184  0.4141 -0.3290 -0.7483
 9818TIP3    H250870   1.531   3.433   0.289 -0.1242 -0.5663 -0.7964
 9819TIP3   OH250871   1.565   3.931   0.461  0.4055  0.4327 -1.0191
 9819TIP3    H150872   1.510   3.975   0.526 -0.8049  1.0664 -2.4502
 9819TIP3    H250873   1.525   3.845   0.450  1.4741 -0.2335  0.1345
 9820TIP3   OH250874   3.457   4.428   0.513 -0.1950  0.2887 -0.1118
 9820TIP3    H150875   3.363   4.445   0.506 -0.2559 -0.1420 -0.3968
 9820TIP3    H250876   3.486   4.418   0.422 -0.3533 -2.0682  0.0620
 9821TIP3   OH250877   2.997   3.540  15.194 -0.4232 -0.5424 -0.4365
 9821TIP3    H150878   3.036   3.538  15.282 -0.8594  0.0869 -0.2210
 9821TIP3    H250879   3.007   3.451  15.161  2.1482 -0.1541 -0.8132
 9822TIP3   OH250880   5.105   5.968  14.198 -0.3017  0.3410  0.3911
 9822TIP3    H150881   5.196   5.940  14.208  0.0841  0.1828 -2.9951
 9822TIP3    H250882   5.110   6.064  14.198  0.4913  0.4123 -3.7588
 9823TIP3   OH250883   2.886   3.930   0.815  0.2492  0.5176  0.6717
 9823TIP3    H150884   2.916   3.840   0.803  2.6953  1.4143 -0.1860
 9823TIP3    H250885   2.899   3.948   0.908 -0.0581  0.0693  0.8030
 9824TIP3   OH250886   4.181   2.630   0.787  0.2768  0.8717 -0.5154
 9824TIP3    H150887   4.228   2.714   0.791  1.4797  0.2605 -1.3838
 9824TIP3    H250888   4.204   2.586   0.868  0.6407  0.8787 -0.6118
 9825TIP3   OH250889   2.189   2.859  15.707 -0.7426 -0.2486 -0.1845
 9825TIP3    H150890   2.210   2.884  15.617 -0.7159 -0.3774 -0.2146
 9825TIP3    H250891   2.137   2.932  15.740 -0.7924 -0.2208 -0.3193
 9826TIP3   OH250892   2.054   2.048  13.327 -0.1109 -0.1572  0.4195
 9826TIP3    H150893   2.109   1.974  13.304  0.6404  0.6969 -0.5839
 9826TIP3    H250894   1.998   2.016  13.398  0.0660 -1.7244 -0.1497
 9827TIP3   OH250895   3.245   1.036   2.478  0.0850 -0.1507 -0.4300
 9827TIP3    H150896   3.254   0.976   2.404 -2.1559 -0.4807 -0.4636
 9827TIP3    H250897   3.153   1.064   2.476  0.6200  1.8149  0.7173
 9828TIP3   OH250898   3.098   6.760  14.087  0.6125  0.4704 -0.3939
 9828TIP3    H150899   3.105   6.855  14.084 -0.5157  0.6046  0.7524
 9828TIP3    H250900   3.180   6.731  14.126 -0.3686  1.2251  2.3589
 9829TIP3   OH250901   6.869   1.685  15.108  0.1434 -0.0322  0.8447
 9829TIP3    H150902   6.938   1.710  15.048 -0.0867 -0.3638  0.4356
 9829TIP3    H250903   6.860   1.590  15.096  2.0020 -0.5664  3.4258
 9830TIP3   OH250904   3.496   4.094   0.894  0.0112  0.1347  0.2370
 9830TIP3    H150905   3.420   4.048   0.859 -0.4141  0.5491  0.6083
 9830TIP3    H250906   3.527   4.149   0.822  1.0351 -1.3580 -0.4805
 9831TIP3   OH250907   4.324   3.715   0.258  0.5161 -0.4378  0.2468
 9831TIP3    H150908   4.307   3.737   0.166  0.7915 -0.3715  0.2136
 9831TIP3    H250909   4.412   3.746   0.275  0.9292 -1.5413  0.1859
 9832TIP3   OH250910   1.233   7.173  15.259  0.8211  0.3232 -0.2328
 9832TIP3    H150911   1.155   7.209  15.302  0.1548 -2.3540  0.9205
 9832TIP3    H250912   1.281   7.250  15.228 -1.6306  2.0766  0.1701
 9833TIP3   OH250913   4.294   0.861   1.919  0.0630  0.8394  0.1200
 9833TIP3    H150914   4.212   0.845   1.871 -0.5515  1.9932  0.7544
 9833TIP3    H250915   4.339   0.776   1.919  0.6892  1.0783 -3.5922
 9834TIP3   OH250916   2.192   2.837   1.746 -0.2043  0.3551  0.2717
 9834TIP3    H150917   2.120   2.891   1.777 -1.1601 -0.1501 -1.0357
 9834TIP3    H250918   2.156   2.787   1.673  1.2391 -0.5081  0.1165
 9835TIP3   OH250919   3.758   5.679  13.297  0.3439  0.0503  0.6450
 9835TIP3    H150920   3.818   5.683  13.372 -0.0585 -0.7811  1.0189
 9835TIP3    H250921   3.804   5.625  13.233 -0.6950 -2.0197  1.5920
 9836TIP3   OH250922   2.847   3.698  15.517  0.1381  0.8671 -0.1129
 9836TIP3    H150923   2.808   3.765  15.462 -3.2783  0.3434  1.5590
 9836TIP3    H250924   2.821   3.615  15.477 -1.0515  0.4997  1.3622
 9837TIP3   OH250925   2.731   3.379   0.786 -0.3788  0.0016  0.0492
 9837TIP3    H150926   2.727   3.445   0.855 -2.1596 -1.3343  1.2682
 9837TIP3    H250927   2.693   3.301   0.826  0.9639 -1.5429 -1.6263
 9838TIP3   OH250928   3.260   3.306   0.757 -0.0015 -0.1639  0.4812
 9838TIP3    H150929   3.180   3.290   0.708  0.3888 -0.7664  0.0377
 9838TIP3    H250930   3.315   3.357   0.697 -0.4791  1.2179  1.1836
 9839TIP3   OH250931   7.162   2.898   4.809 -0.0532  0.4713  0.1914
 9839TIP3    H150932   7.124   2.983   4.784 -1.4658  0.0214  0.7687
 9839TIP3    H250933   7.255   2.908   4.791 -0.6605  0.9990 -2.9234
 9840TIP3   OH250934   3.058   2.412  15.675  0.2079  0.1394  0.0381
 9840TIP3    H150935   2.992   2.476  15.649  1.1432  0.1801 -2.4532
 9840TIP3    H250936   3.040   2.393  15.767 -1.4086  2.3620  0.2012
 9841TIP3   OH250937   5.632   2.769   0.496 -0.1741 -0.4224  0.5367
 9841TIP3    H150938   5.662   2.726   0.416 -0.7044  0.5345 -0.2027
 9841TIP3    H250939   5.548   2.728   0.515 -0.2839 -0.3042  0.3122
 9842TIP3   OH250940   1.190   5.135   1.778 -0.1628  0.2751  0.2565
 9842TIP3    H150941   1.139   5.125   1.859 -1.5461  0.7767 -0.5397
 9842TIP3    H250942   1.149   5.074   1.716  1.5296 -0.8558  0.2141
 9843TIP3   OH250943   3.771   0.854   1.111  0.2210  0.0995 -0.6518
 9843TIP3    H150944   3.808   0.913   1.044  0.3957 -0.4511 -1.0429
 9843TIP3    H250945   3.693   0.819   1.070 -1.5660  2.3653  0.7084
 9844TIP3   OH250946   6.894   2.050   1.386 -0.8572  0.0034 -0.2714
 9844TIP3    H150947   6.943   2.090   1.315 -0.7237  1.4133  0.5997
 9844TIP3    H250948   6.802   2.059   1.360 -0.7566 -0.8258 -0.9490
 9845TIP3   OH250949   6.903   5.221  15.131 -0.1076  0.2885 -0.6893
 9845TIP3    H150950   6.883   5.197  15.040 -1.4538  2.3814 -0.9655
 9845TIP3    H250951   6.988   5.264  15.126  0.5735 -1.0303 -0.7108
 9846TIP3   OH250952   4.235   2.432  15.447  0.1579 -0.5195  0.8627
 9846TIP3    H150953   4.182   2.397  15.518  0.7227 -1.2551  0.9274
 9846TIP3    H250954   4.173   2.478  15.391 -0.5750 -1.4743  0.8790
 9847TIP3   OH250955   6.218   0.856   2.180 -0.1314 -0.1142  0.0738
 9847TIP3    H150956   6.139   0.811   2.150  0.0817 -0.6417  0.2937
 9847TIP3    H250957   6.188   0.942   2.207 -1.0090 -1.0582  2.2183
 9848TIP3   OH250958   2.094   2.991  13.395  0.1978 -0.0331 -0.6726
 9848TIP3    H150959   2.109   2.990  13.490 -1.0680 -0.3122 -0.4697
 9848TIP3    H250960   2.073   3.082  13.375 -1.4832 -0.3474 -0.3688
 9849TIP3   OH250961   4.450   1.923   0.828  0.0632 -0.6246  0.7424
 9849TIP3    H150962   4.380   1.957   0.884 -0.0071 -0.4433  0.5432
 9849TIP3    H250963   4.515   1.992   0.825  0.0511 -0.6192  0.5725
 9850TIP3   OH250964   5.107   0.398  12.300 -0.0694  0.1586 -0.2013
 9850TIP3    H150965   5.150   0.479  12.327 -2.9441  1.2800  1.1971
 9850TIP3    H250966   5.014   0.417  12.306 -0.8110 -2.7227 -1.5593
 9851TIP3   OH250967   3.230   5.465   2.977  0.3376  0.0479  0.2723
 9851TIP3    H150968   3.168   5.396   2.953  1.3347 -1.5636  2.1758
 9851TIP3    H250969   3.314   5.434   2.944  0.7645  0.4319  0.9857
 9852TIP3   OH250970   3.237   4.193  15.390 -0.4758  0.5717 -0.2609
 9852TIP3    H150971   3.242   4.194  15.295  0.9515 -0.3181 -0.2037
 9852TIP3    H250972   3.212   4.103  15.412  0.3463  0.4615  0.2453
 9853TIP3   OH250973   5.198   0.334   1.635  0.1057 -0.1279  0.0879
 9853TIP3    H150974   5.288   0.366   1.646  0.5766 -1.8971  1.5638
 9853TIP3    H250975   5.159   0.343   1.722 -1.0448  0.3329 -0.4782
 9854TIP3   OH250976   4.148   0.635  13.135  0.6765 -0.1942  0.4053
 9854TIP3    H150977   4.076   0.629  13.198  0.9892  0.8119  0.8695
 9854TIP3    H250978   4.146   0.552  13.089  0.5873 -1.0533  1.9127
 9855TIP3   OH250979   4.158   7.186  12.775 -0.1737 -0.4785  0.5672
 9855TIP3    H150980   4.094   7.115  12.781 -0.2519 -0.3612  1.2062
 9855TIP3    H250981   4.221   7.157  12.710 -0.7191 -0.7260  0.1482
 9856TIP3   OH250982   5.823   4.311  15.174 -0.0525  0.0402 -0.1620
 9856TIP3    H150983   5.730   4.300  15.194 -0.0409  0.2350  0.0050
 9856TIP3    H250984   5.849   4.228  15.135  0.1594 -0.6919  1.5245
 9857TIP3   OH250985   4.857   6.240  15.608 -0.1289  0.6243 -0.4157
 9857TIP3    H150986   4.787   6.181  15.634  1.0121  0.1535  1.7812
 9857TIP3    H250987   4.912   6.247  15.686  2.7861  0.2221 -2.3467
 9858TIP3   OH250988   2.510   7.000   0.017  0.7267  0.7021  0.0777
 9858TIP3    H150989   2.502   6.905   0.014  1.1387  0.6389  0.8724
 9858TIP3    H250990   2.434   7.029   0.069  0.0375  0.8934 -1.0126
 9859TIP3   OH250991   4.099   2.666  15.081  0.1739 -0.0891 -0.0593
 9859TIP3    H150992   4.075   2.736  15.141 -0.9729 -0.5091 -0.0220
 9859TIP3    H250993   4.105   2.588  15.136  1.3126 -0.0636 -0.1244
 9860TIP3   OH250994   1.463   3.029   3.783 -0.5470  0.0174  0.1417
 9860TIP3    H150995   1.373   3.060   3.793 -0.0696  1.0413  1.3928
 9860TIP3    H250996   1.488   3.000   3.871 -0.1488 -1.6585 -0.5053
 9861TIP3   OH250997   2.541   2.144   1.276  0.0843  0.1495 -1.0022
 9861TIP3    H150998   2.512   2.158   1.186  1.8677 -0.6196 -1.7287
 9861TIP3    H250999   2.585   2.225   1.301 -1.3746  0.7756 -0.4143
 9862TIP3   OH251000   5.667   1.719  14.803 -0.5135  0.3852 -0.1479
 9862TIP3    H151001   5.649   1.811  14.823 -3.2192 -0.6763  2.7553
 9862TIP3    H251002   5.737   1.695  14.864 -0.1256  0.3789 -0.5904
 9863TIP3   OH251003   2.620   2.398   1.387 -0.2050  0.6452 -0.1622
 9863TIP3    H151004   2.533   2.383   1.425  0.0203 -0.6940 -0.1273
 9863TIP3    H251005   2.642   2.487   1.412  0.0730 -0.3016  3.2049
 9864TIP3   OH251006   3.274   3.036   0.725 -0.7078 -0.0676  0.0823
 9864TIP3    H151007   3.179   3.027   0.734 -0.6767 -0.6741 -0.1711
 9864TIP3    H251008   3.295   3.118   0.771 -1.4198  0.3546 -0.3293
 9865TIP3   OH251009   4.352   3.553   4.050  0.1176 -0.0143  0.2815
 9865TIP3    H151010   4.417   3.512   4.106  0.2093  1.5539  1.3709
 9865TIP3    H251011   4.276   3.495   4.055  0.1664  0.0503  1.9600
 9866TIP3   OH251012   6.808   3.173  14.385 -0.4394  0.0857 -0.0292
 9866TIP3    H151013   6.756   3.226  14.324 -1.8409 -2.3886 -1.0852
 9866TIP3    H251014   6.879   3.137  14.330  0.7803  1.2095  0.7819
 9867TIP3   OH251015   3.524   2.530  13.348  0.4135 -0.3162 -0.3423
 9867TIP3    H151016   3.510   2.532  13.253  0.6908 -0.3847 -0.3838
 9867TIP3    H251017   3.478   2.608  13.380  0.4168 -0.2307 -0.5446
 9868TIP3   OH251018   2.576   6.083   1.744  0.1680 -0.8456 -0.1870
 9868TIP3    H151019   2.573   6.010   1.682  0.0808 -1.7088  0.8218
 9868TIP3    H251020   2.641   6.056   1.809  0.5303  0.2137 -0.1085
 9869TIP3   OH251021   2.827   4.751   1.908 -0.5458 -0.1391  0.4851
 9869TIP3    H151022   2.773   4.778   1.982 -0.2716  0.3462  0.5074
 9869TIP3    H251023   2.765   4.723   1.841 -0.7892 -1.2672  1.1566
 9870TIP3   OH251024   2.745   3.238   2.109  0.3264  0.0706  0.3844
 9870TIP3    H151025   2.730   3.228   2.203 -1.1406 -0.9246  0.0589
 9870TIP3    H251026   2.677   3.300   2.081 -0.1069 -0.6761 -0.2436
 9871TIP3   OH251027   5.502   5.988   0.598 -0.5563 -0.0743  0.0650
 9871TIP3    H151028   5.440   6.059   0.605 -0.7049 -0.0918 -0.8956
 9871TIP3    H251029   5.467   5.919   0.654 -0.8123  0.3235  0.3954
 9872TIP3   OH251030   6.152   4.645   0.819  0.0621 -0.0413  0.4488
 9872TIP3    H151031   6.182   4.710   0.883  0.9144 -1.2892  1.3355
 9872TIP3    H251032   6.215   4.651   0.748  0.7950 -0.6767  1.0378
 9873TIP3   OH251033   3.612   1.022   0.205 -0.1636 -0.3263  0.4546
 9873TIP3    H151034   3.590   1.012   0.298  1.5992  1.2312  1.0608
 9873TIP3    H251035   3.669   0.947   0.186  1.1091  0.4486  1.1643
 9874TIP3   OH251036   3.804   2.726  15.342  0.1003 -0.5949 -0.1190
 9874TIP3    H151037   3.780   2.667  15.414 -3.8436  0.6313 -0.3375
 9874TIP3    H251038   3.792   2.673  15.263  0.3479 -0.6669 -0.1087
 9875TIP3   OH251039   4.701   4.052   3.117  0.0069 -0.1694 -0.2331
 9875TIP3    H151040   4.681   4.078   3.027  1.6292 -1.6621 -1.0504
 9875TIP3    H251041   4.796   4.062   3.124  0.2719 -2.7249  0.4021
 9876TIP3   OH251042   6.505   3.896  13.596  0.0631 -0.0708 -0.5248
 9876TIP3    H151043   6.592   3.881  13.560  0.5876  1.4357  0.0739
 9876TIP3    H251044   6.516   3.970  13.656 -1.5879  0.0232 -0.3092
 9877TIP3   OH251045   4.263   3.773   2.681 -0.6800  0.0723 -0.3119
 9877TIP3    H151046   4.219   3.800   2.762 -0.6815  1.1104 -0.6424
 9877TIP3    H251047   4.194   3.733   2.629 -0.7438 -0.3368  0.0870
 9878TIP3   OH251048   1.597   3.084   3.260 -0.1364 -0.6629 -0.1416
 9878TIP3    H151049   1.516   3.086   3.310 -0.5932 -0.7836 -0.8800
 9878TIP3    H251050   1.617   3.177   3.245  0.5716 -0.5869  1.1724
 9879TIP3   OH251051   6.222   7.157  14.889  0.2960  0.0506 -0.4037
 9879TIP3    H151052   6.141   7.155  14.939  1.0394 -1.4005  0.7564
 9879TIP3    H251053   6.205   7.103  14.812 -0.3645  1.1061 -1.0175
 9880TIP3   OH251054   4.124   6.097  15.118 -0.1263  0.5455  0.2994
 9880TIP3    H151055   4.143   6.130  15.030 -2.1056 -1.4936 -0.9444
 9880TIP3    H251056   4.163   6.009  15.120 -1.2687  0.0466  0.9760
 9881TIP3   OH251057   0.534   6.746  15.491  0.3791 -0.7692 -0.1465
 9881TIP3    H151058   0.627   6.740  15.509  0.5447 -0.2241 -0.8117
 9881TIP3    H251059   0.512   6.838  15.506  0.2995 -0.5337 -1.6023
 9882TIP3   OH251060   3.573   3.813   1.351  0.1510 -0.2071  0.3103
 9882TIP3    H151061   3.591   3.766   1.432 -0.1418  0.1313  0.5733
 9882TIP3    H251062   3.576   3.906   1.376 -0.6202 -0.1172  0.0855
 9883TIP3   OH251063   7.135   3.345   0.111  0.0751  0.2267  0.1333
 9883TIP3    H151064   7.180   3.296   0.179 -0.4579 -0.8176 -0.2658
 9883TIP3    H251065   7.042   3.337   0.132 -0.1877 -1.3217 -1.5185
 9884TIP3   OH251066   7.204   3.091  14.953 -0.5475  0.4729  0.2178
 9884TIP3    H151067   7.121   3.044  14.964  1.1237 -2.7909 -0.6358
 9884TIP3    H251068   7.266   3.045  15.009  1.1873  1.6157 -0.7121
 9885TIP3   OH251069   6.848   2.692   1.685 -0.3946 -0.5853 -0.0818
 9885TIP3    H151070   6.783   2.754   1.718 -1.1782 -0.5592 -1.5906
 9885TIP3    H251071   6.810   2.606   1.703  0.0147 -0.6107  0.6885
 9886TIP3   OH251072   5.140   3.501   1.629 -1.0884  0.8452  0.1728
 9886TIP3    H151073   5.213   3.553   1.596 -1.3668  0.6275 -0.7975
 9886TIP3    H251074   5.114   3.545   1.710  0.1101  0.9248  0.5080
 9887TIP3   OH251075   3.486   2.397   1.557 -0.3846  0.0061 -0.3290
 9887TIP3    H151076   3.408   2.385   1.503  0.3150 -3.0838 -0.7178
 9887TIP3    H251077   3.548   2.442   1.500 -1.6466  1.9786 -0.1945
 9888TIP3   OH251078   5.266   0.627   1.232  0.4864 -0.0190 -0.5299
 9888TIP3    H151079   5.261   0.538   1.269  0.5802 -0.6699 -2.0675
 9888TIP3    H251080   5.175   0.656   1.230  0.0936 -1.2925 -2.8909
 9889TIP3   OH251081   6.589   1.604  13.424 -0.1974  0.0399  0.0358
 9889TIP3    H151082   6.575   1.683  13.477  1.0231  0.0595  0.3527
 9889TIP3    H251083   6.673   1.570  13.455  1.2122  0.8013 -2.8394
 9890TIP3   OH251084   5.030   1.035  15.233  0.0473  0.0226  0.5119
 9890TIP3    H151085   5.098   0.986  15.279 -0.4847 -0.1453  1.1258
 9890TIP3    H251086   4.953   0.978  15.236 -0.2505  0.4064  0.2268
 9891TIP3   OH251087   5.822   3.528   0.194  0.2106  0.2595  0.0498
 9891TIP3    H151088   5.873   3.500   0.118  1.9366  1.0833  0.8877
 9891TIP3    H251089   5.881   3.515   0.269 -0.0004  3.3355  0.7893
 9892TIP3   OH251090   3.405   3.111  15.339  0.2140  0.2077  0.2368
 9892TIP3    H151091   3.469   3.050  15.302 -2.4473 -2.1097 -0.7033
 9892TIP3    H251092   3.334   3.112  15.275 -0.3838  3.3242  0.8977
 9893TIP3   OH251093   2.680   5.008   3.049  0.4182  0.2651 -0.5186
 9893TIP3    H151094   2.637   5.058   2.980  0.2832 -1.2992 -1.6148
 9893TIP3    H251095   2.626   4.929   3.059  0.9782  0.0151  0.6938
 9894TIP3   OH251096   0.091   5.503  14.937 -0.4055 -0.1823 -0.1103
 9894TIP3    H151097   0.123   5.545  15.017  0.0240  0.4387 -0.6045
 9894TIP3    H251098   0.170   5.466  14.897 -0.2404  1.5726 -1.4654
 9895TIP3   OH251099   5.309   4.516   0.600 -0.1313  0.1349 -0.0378
 9895TIP3    H151100   5.393   4.553   0.629 -0.0792  0.1980 -0.2681
 9895TIP3    H251101   5.244   4.556   0.658  0.3458 -2.5456  2.4540
 9896TIP3   OH251102   0.595   3.589  15.209 -0.5944 -0.0993  0.0717
 9896TIP3    H151103   0.612   3.668  15.259  1.5913  0.1878 -1.0889
 9896TIP3    H251104   0.533   3.617  15.141  0.5029  0.7117 -0.5942
 9897TIP3   OH251105   1.095   1.651  13.290 -0.7294  0.4851 -0.1655
 9897TIP3    H151106   1.025   1.587  13.278 -0.7333  0.7419 -1.5823
 9897TIP3    H251107   1.049   1.734  13.305 -0.7503 -0.1462  3.7557
 9898TIP3   OH251108   2.737   7.002   0.744  0.3397 -0.0748  0.3040
 9898TIP3    H151109   2.804   7.071   0.740  1.3379 -1.0663 -0.1612
 9898TIP3    H251110   2.657   7.049   0.769  0.7840  1.4077 -0.9710
 9899TIP3   OH251111   4.944   1.322   0.308  0.0290 -0.7663  0.5812
 9899TIP3    H151112   4.946   1.228   0.323 -1.9248 -0.9399 -0.1414
 9899TIP3    H251113   4.852   1.343   0.293  0.5037  1.1684  0.1401
 9900TIP3   OH251114   6.640   3.987   1.238 -0.9642 -0.7958 -0.0219
 9900TIP3    H151115   6.669   3.901   1.206 -1.6285 -0.4946 -1.4517
 9900TIP3    H251116   6.583   4.020   1.169 -1.2376  0.5180  0.8272
 9901TIP3   OH251117   3.103   0.370   1.442 -0.8019 -0.2625 -0.6081
 9901TIP3    H151118   3.093   0.279   1.468  1.2994 -0.4523 -0.3669
 9901TIP3    H251119   3.167   0.369   1.371 -1.9693  0.8732 -1.7058
 9902TIP3   OH251120   1.262   3.215   0.930 -0.3454 -0.4538 -0.2138
 9902TIP3    H151121   1.217   3.216   1.014 -0.8954 -0.2173 -0.5053
 9902TIP3    H251122   1.354   3.200   0.951 -0.0480  2.4355  0.6185
 9903TIP3   OH251123   7.157   6.263  13.199  0.6873  0.2259  0.3362
 9903TIP3    H151124   7.092   6.311  13.148 -0.3802  2.3398  3.5993
 9903TIP3    H251125   7.235   6.260  13.142 -0.8676  1.3448 -1.9139
 9904TIP3   OH251126   6.936   4.413   0.656 -0.2592  0.2768  0.0595
 9904TIP3    H151127   6.980   4.498   0.660 -0.9377  0.6023  0.5573
 9904TIP3    H251128   6.867   4.425   0.591 -0.6908  0.2668  0.5119
 9905TIP3   OH251129   4.442   2.634  15.941  0.0456 -0.3571 -0.4461
 9905TIP3    H151130   4.513   2.698  15.951  0.4983 -1.0737  1.1118
 9905TIP3    H251131   4.481   2.562  15.892 -0.4658  0.5291 -2.2088
 9906TIP3   OH251132   3.093   1.929   0.470  0.3238  0.0241  0.2881
 9906TIP3    H151133   3.135   2.014   0.480  1.2182 -0.3990  0.1458
 9906TIP3    H251134   2.999   1.950   0.461  0.7522  1.1620 -2.0520
 9907TIP3   OH251135   6.411   1.085   0.228 -0.5871  0.3759  0.9914
 9907TIP3    H151136   6.456   1.159   0.269  1.3324  0.2860 -0.8402
 9907TIP3    H251137   6.479   1.041   0.177 -2.1505 -1.4806  0.4342
 9908TIP3   OH251138   4.913   3.529   0.682 -0.4101  0.5447 -0.3197
 9908TIP3    H151139   4.870   3.601   0.635 -0.2798  0.3092 -0.8001
 9908TIP3    H251140   4.999   3.563   0.704 -0.4976  0.6821 -0.1872
 9909TIP3   OH251141   5.352   0.597   4.379 -0.1108  0.3684 -0.0461
 9909TIP3    H151142   5.412   0.530   4.410 -0.4092  0.3774  0.5682
 9909TIP3    H251143   5.382   0.618   4.291  1.9691  1.7342  0.9423
 9910TIP3   OH251144   4.764   1.380   1.261  0.4388  0.7528 -0.1206
 9910TIP3    H151145   4.795   1.330   1.186  1.8340  1.8955 -0.3227
 9910TIP3    H251146   4.745   1.467   1.226 -1.3197  0.5830  0.3588
 9911TIP3   OH251147   5.528   4.587   0.734  0.1513 -0.1908  0.3589
 9911TIP3    H151148   5.621   4.573   0.715 -0.2834 -0.0889 -2.1142
 9911TIP3    H251149   5.508   4.527   0.805  1.7183 -1.5210 -0.2913
 9912TIP3   OH251150   6.278   6.633   2.276  0.4367  0.0589  0.3838
 9912TIP3    H151151   6.266   6.593   2.362 -1.6352 -1.6199 -0.6299
 9912TIP3    H251152   6.192   6.669   2.254  0.0343 -2.3163 -2.2828
 9913TIP3   OH251153   4.340   3.051  13.822  0.3574  0.5786 -0.4483
 9913TIP3    H151154   4.386   3.122  13.867  2.1912 -0.3648 -0.7844
 9913TIP3    H251155   4.325   3.084  13.733 -0.8306  1.4036  0.0519
 9914TIP3   OH251156   5.926   3.645  15.834 -0.0877 -0.1074 -0.2368
 9914TIP3    H151157   5.968   3.677  15.755 -1.3217  0.0543 -0.8502
 9914TIP3    H251158   5.834   3.672  15.825  0.2595  2.1052  2.4352
 9915TIP3   OH251159   1.616   4.663   0.957  0.3470  0.1432 -0.5337
 9915TIP3    H151160   1.685   4.603   0.986 -0.6844  0.1919  2.1776
 9915TIP3    H251161   1.634   4.744   1.004 -0.3421  0.8304 -1.4510
 9916TIP3   OH251162   4.166   6.144  14.287 -1.2547 -0.4230  0.1315
 9916TIP3    H151163   4.185   6.235  14.262  0.1255 -0.8987 -0.5545
 9916TIP3    H251164   4.133   6.103  14.207  0.2430 -1.1100 -0.1597
 9917TIP3   OH251165   3.824   3.125  13.876  0.0566  0.2957 -0.4556
 9917TIP3    H151166   3.918   3.125  13.891  0.3480  0.8755 -2.2255
 9917TIP3    H251167   3.790   3.195  13.932  0.5473 -0.4817  0.8420
 9918TIP3   OH251168   2.019   0.285  13.426 -0.1850 -0.2062 -0.1596
 9918TIP3    H151169   2.111   0.267  13.445 -0.3714 -0.6049  0.3726
 9918TIP3    H251170   2.021   0.358  13.363  0.5802 -2.2344 -2.5704
 9919TIP3   OH251171   0.514   5.503   0.599  0.2080 -1.4255  0.2777
 9919TIP3    H151172   0.537   5.595   0.581 -0.3330 -1.2157  0.6434
 9919TIP3    H251173   0.530   5.458   0.517 -0.4933 -0.8163 -0.1989
 9920TIP3   OH251174   4.240   3.704   0.514  0.0338 -0.1002  0.3271
 9920TIP3    H151175   4.200   3.618   0.509  0.9962 -0.5898  1.0135
 9920TIP3    H251176   4.268   3.723   0.425  0.3322 -0.7355  0.2896
 9921TIP3   OH251177   5.201   2.204   0.683 -0.2707  0.4690  0.0360
 9921TIP3    H151178   5.162   2.117   0.686  2.2086 -0.6929 -0.0659
 9921TIP3    H251179   5.183   2.241   0.769 -2.5788  0.4417 -0.4145
 9922TIP3   OH251180   2.962   4.402  15.862  0.3141 -0.0438 -0.3924
 9922TIP3    H151181   2.971   4.326  15.919 -1.6329  0.1883  0.2712
 9922TIP3    H251182   3.050   4.419  15.830  0.6426 -3.2047 -1.3639
 9923TIP3   OH251183   2.431   5.767   1.191 -0.1293  0.0440  0.2157
 9923TIP3    H151184   2.341   5.771   1.158  0.4946 -1.4112 -1.7828
 9923TIP3    H251185   2.422   5.729   1.279 -1.5760  1.2377  0.6063
 9924TIP3   OH251186   6.997   3.609   3.295  0.3497 -0.3099  0.0156
 9924TIP3    H151187   7.035   3.665   3.228  1.0422 -1.6439 -0.7312
 9924TIP3    H251188   6.917   3.575   3.255  0.7516 -1.0865 -0.1594
 9925TIP3   OH251189   1.451   3.565  14.976  0.5620 -0.2182 -0.0242
 9925TIP3    H151190   1.390   3.492  14.982  0.6313 -0.2093  0.8936
 9925TIP3    H251191   1.399   3.641  15.003  1.1460 -0.3107  1.3891
 9926TIP3   OH251192   6.496   4.629  12.602 -0.2193 -0.2784  0.5297
 9926TIP3    H151193   6.460   4.700  12.547  1.3182  0.1303  0.0191
 9926TIP3    H251194   6.468   4.651  12.691 -1.5540 -0.1893  0.1011
 9927TIP3   OH251195   0.712   0.573  15.482  0.6615 -0.1739 -0.3741
 9927TIP3    H151196   0.639   0.538  15.430  0.7092  1.2966 -1.4549
 9927TIP3    H251197   0.731   0.504  15.546 -0.4056 -1.3738 -1.3250
 9928TIP3   OH251198   4.449   1.790   1.366 -0.3389  0.0021 -0.0827
 9928TIP3    H151199   4.461   1.697   1.380 -1.2211  0.4095  4.2338
 9928TIP3    H251200   4.361   1.798   1.327  0.2767 -0.9936 -1.7171
 9929TIP3   OH251201   1.531   5.910  14.401  0.5266 -0.0902 -0.0806
 9929TIP3    H151202   1.551   5.987  14.347 -0.7507 -0.6071 -1.3290
 9929TIP3    H251203   1.529   5.837  14.339 -2.8491 -0.4137  0.3183
 9930TIP3   OH251204   5.255   0.285  15.662  0.8510 -0.1166 -0.0665
 9930TIP3    H151205   5.267   0.242  15.577  2.3963 -1.0622  0.6032
 9930TIP3    H251206   5.209   0.366  15.642 -1.0712 -1.5206 -1.5015
 9931TIP3   OH251207   0.439   6.406   1.815  0.4454  0.4676  0.4467
 9931TIP3    H151208   0.464   6.490   1.853 -0.9889  0.8360  0.6067
 9931TIP3    H251209   0.378   6.368   1.878 -0.3113  0.1223 -0.4709
 9932TIP3   OH251210   1.998   6.866  15.040  0.1559 -0.3305  0.2244
 9932TIP3    H151211   2.041   6.781  15.046  1.3173  0.1058 -1.4151
 9932TIP3    H251212   2.070   6.930  15.045 -0.4870  0.4733 -0.6483
 9933TIP3   OH251213   3.217   6.093  15.257  0.2718  0.3085 -0.0955
 9933TIP3    H151214   3.199   6.038  15.181 -1.3915 -0.6825  0.9775
 9933TIP3    H251215   3.294   6.144  15.233 -0.1973 -0.0455 -2.4098
 9934TIP3   OH251216   0.849   4.172   3.465 -0.1360  0.2743  0.3881
 9934TIP3    H151217   0.851   4.267   3.456  1.4501  0.4098  2.1262
 9934TIP3    H251218   0.924   4.141   3.415 -0.2084 -0.0287  0.4644
 9935TIP3   OH251219   2.428   3.187   0.573 -0.3545 -0.2284 -0.1015
 9935TIP3    H151220   2.349   3.162   0.526 -0.6381  3.0857 -1.5905
 9935TIP3    H251221   2.397   3.242   0.645  0.4868 -0.0991  0.1705
 9936TIP3   OH251222   6.202   2.759  15.385 -0.9328 -0.1905 -0.5032
 9936TIP3    H151223   6.176   2.671  15.357 -1.9540 -0.2577  0.6057
 9936TIP3    H251224   6.146   2.777  15.460 -0.4261  1.2435 -0.4627
 9937TIP3   OH251225   1.704   2.717   5.576 -0.2452 -0.1589 -0.0612
 9937TIP3    H151226   1.709   2.783   5.506 -0.5313  0.0940  0.1544
 9937TIP3    H251227   1.615   2.724   5.608  0.3621  0.9218  1.4772
 9938TIP3   OH251228   1.033   6.752   1.059 -0.6083 -0.6099  0.2922
 9938TIP3    H151229   1.009   6.660   1.067 -0.9592 -0.5136  0.3739
 9938TIP3    H251230   1.012   6.789   1.145  1.8527 -0.9844  1.0881
 9939TIP3   OH251231   1.770   4.965  15.267 -0.0766  0.4685  0.3637
 9939TIP3    H151232   1.759   5.053  15.302  2.3234  0.9272  0.0866
 9939TIP3    H251233   1.709   4.911  15.317  0.1048  1.8977  2.1732
 9940TIP3   OH251234   3.852   5.029  12.505 -0.0231  0.1490 -0.5534
 9940TIP3    H151235   3.927   4.978  12.535 -0.8488 -0.2907  0.8130
 9940TIP3    H251236   3.876   5.120  12.522 -0.1498 -0.0490  0.7161
 9941TIP3   OH251237   6.710   0.771  15.113 -0.3726 -0.3299  0.3346
 9941TIP3    H151238   6.663   0.708  15.167 -0.4452 -0.3968  0.1936
 9941TIP3    H251239   6.694   0.743  15.023  0.1409 -0.4979  0.2923
 9942TIP3   OH251240   0.370   6.801   1.709 -0.6674 -0.1203 -0.0775
 9942TIP3    H151241   0.434   6.770   1.773 -0.8117  1.4666  0.8439
 9942TIP3    H251242   0.402   6.768   1.625  0.8178 -0.1774  0.5008
 9943TIP3   OH251243   4.433   1.546   0.187 -0.2468  0.0000  0.5127
 9943TIP3    H151244   4.408   1.636   0.207  0.6838  0.5424 -0.6515
 9943TIP3    H251245   4.529   1.548   0.184 -0.2098 -1.1092  0.8633
 9944TIP3   OH251246   5.908   4.766   0.803 -0.2111 -0.3742  0.0508
 9944TIP3    H151247   5.857   4.689   0.825 -0.4944  0.2156  1.5502
 9944TIP3    H251248   5.995   4.732   0.780 -1.0830 -1.3265 -1.9062
 9945TIP3   OH251249   1.524   4.662  13.112  0.4858 -0.4432 -0.1188
 9945TIP3    H151250   1.591   4.723  13.144  2.0566 -1.3935 -1.5309
 9945TIP3    H251251   1.460   4.718  13.069  0.3564  0.4836  1.2517
 9946TIP3   OH251252   2.017   5.547  15.293 -0.0862 -0.2019  0.2169
 9946TIP3    H151253   1.955   5.506  15.233 -0.7256  0.3679  0.4876
 9946TIP3    H251254   2.095   5.562  15.239 -1.4072  2.2497 -1.0644
 9947TIP3   OH251255   2.162   6.443  15.300  0.2506 -0.5196 -0.0145
 9947TIP3    H151256   2.149   6.455  15.394  2.3037 -1.4878  0.4108
 9947TIP3    H251257   2.104   6.370  15.277 -1.1154  0.4574  0.2527
 9948TIP3   OH251258   6.297   0.702  14.536  0.2850 -0.2861  0.2649
 9948TIP3    H151259   6.242   0.722  14.612  0.7784  1.9844  0.0476
 9948TIP3    H251260   6.241   0.720  14.461  0.9330  0.8644  0.0554
 9949TIP3   OH251261   6.257   6.384  15.512  0.1836 -0.4637 -0.1045
 9949TIP3    H151262   6.333   6.434  15.538 -0.9935  0.2199  2.1031
 9949TIP3    H251263   6.290   6.324  15.444  2.6105 -0.0814  0.6920
 9950TIP3   OH251264   3.591   6.022   2.060  0.0592  0.5034  0.0994
 9950TIP3    H151265   3.527   6.043   1.992 -0.2900 -1.3679 -0.1539
 9950TIP3    H251266   3.545   6.039   2.142 -0.0517  1.1957 -0.1005
 9951TIP3   OH251267   0.130   2.588  14.046 -0.7364  0.2077  0.4646
 9951TIP3    H151268   0.208   2.555  14.002 -1.8258 -1.3482 -0.3523
 9951TIP3    H251269   0.142   2.564  14.138  0.0117  0.4980  0.4469
 9952TIP3   OH251270   3.218   3.366  14.425 -0.3560  0.2277 -0.1259
 9952TIP3    H151271   3.222   3.271  14.414 -2.0740  0.3039 -1.6968
 9952TIP3    H251272   3.279   3.400  14.359  0.5716  0.2321  0.7117
 9953TIP3   OH251273   0.979   6.728   2.235 -0.1505 -0.1274 -0.0388
 9953TIP3    H151274   0.919   6.803   2.231  0.9601  0.8193  0.8760
 9953TIP3    H251275   0.938   6.663   2.178 -0.0224  1.9608 -2.6349
 9954TIP3   OH251276   1.170   1.497   1.726 -0.4067  0.8918  0.3930
 9954TIP3    H151277   1.211   1.437   1.663 -1.5289 -0.3638  0.8388
 9954TIP3    H251278   1.150   1.576   1.675  0.5727  0.6844 -0.3303
 9955TIP3   OH251279   6.670   3.031   0.217 -0.1604  0.3382 -0.1224
 9955TIP3    H151280   6.678   2.959   0.279 -2.3220 -2.5369 -3.0383
 9955TIP3    H251281   6.616   3.096   0.262 -2.1185 -1.9117  0.8754
 9956TIP3   OH251282   2.718   2.754   0.369  0.3479  0.0499 -0.2831
 9956TIP3    H151283   2.750   2.834   0.411  1.6259 -0.8154  0.4429
 9956TIP3    H251284   2.765   2.750   0.286 -0.5818  0.6467 -0.8444
 9957TIP3   OH251285   4.682   2.753  15.925  0.1212  0.2720  0.9489
 9957TIP3    H151286   4.760   2.706  15.895 -0.0853  0.2894  0.3768
 9957TIP3    H251287   4.666   2.818  15.856 -1.6924 -1.1712 -0.0601
 9958TIP3   OH251288   1.992   1.859   1.947  0.1287 -0.4099  0.7356
 9958TIP3    H151289   1.934   1.791   1.912  0.6090 -1.3672  1.7587
 9958TIP3    H251290   1.963   1.939   1.904  0.8786 -1.5532 -2.0676
 9959TIP3   OH251291   3.514   3.967  14.654 -0.2604  0.2937  0.0898
 9959TIP3    H151292   3.500   3.947  14.746 -0.2383 -0.9344 -0.1522
 9959TIP3    H251293   3.599   3.927  14.633 -0.2677  0.5564 -0.4565
 9960TIP3   OH251294   4.662   7.272  13.567  0.2110  0.2882  0.1899
 9960TIP3    H151295   4.598   7.336  13.537 -0.4167 -0.9923 -1.2768
 9960TIP3    H251296   4.642   7.258  13.659 -0.1615  1.5805  0.3099
 9961TIP3   OH251297   2.771   1.463  14.214 -0.3073 -0.0636 -0.6000
 9961TIP3    H151298   2.849   1.427  14.171  0.3760  1.0511 -0.3233
 9961TIP3    H251299   2.741   1.532  14.156 -0.5974  0.0585 -0.3048
 9962TIP3   OH251300   2.473   6.341  14.619 -0.1920 -0.2118  0.0868
 9962TIP3    H151301   2.503   6.432  14.615 -0.5582 -0.1798 -2.7733
 9962TIP3    H251302   2.532   6.300  14.683  0.8681  1.7052  0.3913
 9963TIP3   OH251303   2.921   4.424  15.161  0.2247 -0.2434 -0.1287
 9963TIP3    H151304   2.911   4.518  15.145  0.7831 -0.4238 -1.5992
 9963TIP3    H251305   3.016   4.409  15.157  0.2942 -0.5447  2.0525
 9964TIP3   OH251306   3.524   2.949  15.653  0.2417  0.2893  0.3375
 9964TIP3    H151307   3.592   2.893  15.689  1.3549  1.1704 -0.3794
 9964TIP3    H251308   3.454   2.946  15.718  0.4679 -1.5579  0.5294
 9965TIP3   OH251309   0.396   6.153   4.977  0.1623 -0.4037 -0.5947
 9965TIP3    H151310   0.471   6.202   4.944 -1.5262  0.7891 -2.7795
 9965TIP3    H251311   0.413   6.143   5.071  2.2582  1.1984 -0.7688
 9966TIP3   OH251312   1.035   4.177  14.973 -0.3504  0.3347  0.0804
 9966TIP3    H151313   0.959   4.223  15.009 -1.1543 -1.7743  1.1513
 9966TIP3    H251314   1.006   4.148  14.886 -0.7254 -0.3341  0.4259
 9967TIP3   OH251315   5.051   4.230  14.401 -0.4999 -0.1108  0.1524
 9967TIP3    H151316   5.022   4.144  14.371 -0.6511 -0.0318  0.0720
 9967TIP3    H251317   5.096   4.268  14.326  1.5831 -1.0286  0.8898
 9968TIP3   OH251318   4.280   6.136  14.851 -0.3000 -0.4960 -0.0239
 9968TIP3    H151319   4.293   6.101  14.763  0.4089 -0.3095  0.0093
 9968TIP3    H251320   4.278   6.231  14.840  1.1339 -0.4211  0.3404
 9969TIP3   OH251321   1.045   0.110   0.287 -0.0941 -0.1709  0.0050
 9969TIP3    H151322   1.023   0.197   0.253  0.3558 -0.6929 -1.6709
 9969TIP3    H251323   0.962   0.074   0.317 -0.5720  0.1304 -0.9566
 9970TIP3   OH251324   5.205   5.578   0.338 -0.0333 -0.4328  0.0425
 9970TIP3    H151325   5.244   5.509   0.284 -1.9637  0.4830 -2.6725
 9970TIP3    H251326   5.255   5.656   0.316 -0.3332 -0.2134  0.1392
 9971TIP3   OH251327   1.415   6.990   1.543  0.1033  0.3223 -0.2457
 9971TIP3    H151328   1.376   6.976   1.629 -1.8714  0.4777 -1.0847
 9971TIP3    H251329   1.402   7.083   1.525  1.9320  0.6406 -0.0659
 9972TIP3   OH251330   2.758   4.776  15.335  0.3782 -0.4958 -0.4465
 9972TIP3    H151331   2.792   4.774  15.424 -0.0313  1.0503 -0.2410
 9972TIP3    H251332   2.713   4.860  15.328 -1.1490 -1.3684 -1.5460
 9973TIP3   OH251333   4.609   2.011   3.022  0.1055  0.4698 -0.3133
 9973TIP3    H151334   4.618   1.966   2.938 -0.4950 -0.8444  0.3129
 9973TIP3    H251335   4.657   1.956   3.084  0.2809  1.2726  0.2740
 9974TIP3   OH251336   6.077   5.007  15.324 -0.4858 -0.3047  0.2216
 9974TIP3    H151337   5.990   5.047  15.331 -0.5531 -0.3869 -0.1316
 9974TIP3    H251338   6.080   4.944  15.396 -0.7828 -0.4178  0.1359
 9975TIP3   OH251339   2.271   5.093  15.510  0.6579  0.5427  0.2282
 9975TIP3    H151340   2.261   5.186  15.531  1.0855  0.6662 -0.1195
 9975TIP3    H251341   2.364   5.082  15.493 -0.0808  1.1319 -4.9357
 9976TIP3   OH251342   5.272   7.057  14.500 -0.3542  0.2240  0.4963
 9976TIP3    H151343   5.311   6.993  14.440  0.1489 -0.6114  1.6717
 9976TIP3    H251344   5.205   7.007  14.548  0.0937  0.5444  1.4765
 9977TIP3   OH251345   2.381   1.764  15.562 -0.3797 -0.1848  0.5306
 9977TIP3    H151346   2.463   1.715  15.565  0.6446  1.5469  0.8748
 9977TIP3    H251347   2.313   1.697  15.577  0.9367 -1.6468  0.0647
 9978TIP3   OH251348   1.098   6.557  12.919 -0.9888  0.0364 -0.1154
 9978TIP3    H151349   1.084   6.538  12.826 -2.7715  0.2640  0.0980
 9978TIP3    H251350   1.122   6.473  12.957  1.7068  0.2785 -1.1034
 9979TIP3   OH251351   7.056   4.564   1.021 -0.3246  0.2611  0.2976
 9979TIP3    H151352   6.972   4.608   1.005 -1.1045 -1.7984 -1.5344
 9979TIP3    H251353   7.061   4.558   1.117 -1.9742  0.9409  0.4597
 9980TIP3   OH251354   0.844   6.956  15.648 -0.0210 -0.2293  0.0359
 9980TIP3    H151355   0.793   7.007  15.586  0.5869 -0.3111 -0.5326
 9980TIP3    H251356   0.929   7.000  15.651 -0.9537  1.5096  2.9849
 9981TIP3   OH251357   6.258   1.983   1.442  0.0742  0.1294 -0.2275
 9981TIP3    H151358   6.230   1.892   1.443 -0.0558  0.1533 -1.3077
 9981TIP3    H251359   6.265   2.006   1.349  2.0649  0.6229  0.0097
 9982TIP3   OH251360   0.209   0.106   0.346 -0.0645  0.3208 -0.2378
 9982TIP3    H151361   0.119   0.116   0.377 -0.1471  0.5622 -0.5576
 9982TIP3    H251362   0.233   0.193   0.314 -0.2824 -0.1232 -1.6514
 9983TIP3   OH251363   4.303   6.552   1.126  0.1367  0.2685 -0.2955
 9983TIP3    H151364   4.252   6.485   1.080 -0.7494  0.7037  0.0391
 9983TIP3    H251365   4.362   6.502   1.183 -0.3584 -0.2298 -0.2123
 9984TIP3   OH251366   4.922   0.140  15.822  0.1385  0.5609  0.7331
 9984TIP3    H151367   4.891   0.223  15.785  1.5466  1.0915  0.7363
 9984TIP3    H251368   4.871   0.129  15.902 -2.8687 -0.5322 -1.2219
 9985TIP3   OH251369   1.970   3.977  13.586  0.4045 -0.3785  0.1813
 9985TIP3    H151370   2.028   3.956  13.514  0.9528  0.5359  0.3398
 9985TIP3    H251371   2.013   3.942  13.664  0.1769 -0.7207  0.1509
 9986TIP3   OH251372   4.564   2.807   0.810  0.5250  0.1515  0.8506
 9986TIP3    H151373   4.567   2.715   0.837 -0.9250 -0.2089 -0.1328
 9986TIP3    H251374   4.602   2.855   0.883 -0.9970 -1.0250  2.4500
 9987TIP3   OH251375   2.927   3.997   1.063  0.0957  0.1594 -0.0560
 9987TIP3    H151376   2.937   4.089   1.040  0.4451  0.1863  0.2089
 9987TIP3    H251377   3.017   3.966   1.078 -0.0140 -0.2374 -0.2057
 9988TIP3   OH251378   0.904   1.976   1.426  0.1150  0.2647  0.3492
 9988TIP3    H151379   0.913   2.042   1.495 -1.6320  0.9597 -0.0676
 9988TIP3    H251380   0.824   2.000   1.380  0.1186 -1.4397 -0.5824
 9989TIP3   OH251381   7.063   5.618   0.153 -0.2408  0.3996  0.4621
 9989TIP3    H151382   7.068   5.581   0.065  0.6777  2.3606 -0.3519
 9989TIP3    H251383   7.012   5.698   0.142  0.0858  0.7768  1.6526
 9990TIP3   OH251384   6.308   0.637  14.008  0.1672  0.1247 -0.0858
 9990TIP3    H151385   6.381   0.671  13.956 -1.1814  0.5259 -1.7543
 9990TIP3    H251386   6.328   0.544  14.018  0.1253 -0.0949 -1.9060
 9991TIP3   OH251387   2.955   1.726  14.458 -0.3055 -0.4105  0.2135
 9991TIP3    H151388   3.037   1.730  14.408 -1.1976  0.2908 -1.2474
 9991TIP3    H251389   2.923   1.637  14.445 -0.0442 -0.5254  0.3505
 9992TIP3   OH251390   5.672   4.603  12.908 -0.0727 -0.8526 -0.0836
 9992TIP3    H151391   5.674   4.561  12.994 -1.0132 -1.6046 -0.4257
 9992TIP3    H251392   5.581   4.627  12.895  0.2948  0.4839 -0.2963
 9993TIP3   OH251393   1.549   5.350  13.693 -0.3633 -0.1637  0.0004
 9993TIP3    H151394   1.607   5.279  13.719  0.0563 -0.0345 -0.5628
 9993TIP3    H251395   1.588   5.428  13.734 -0.4012 -0.1487  0.0080
 9994TIP3   OH251396   2.322   3.415  15.434  0.6420 -0.2574 -0.2202
 9994TIP3    H151397   2.243   3.402  15.381  0.5294  0.9639 -0.3525
 9994TIP3    H251398   2.341   3.328  15.470 -0.6331 -0.6062 -0.3648
 9995TIP3   OH251399   3.483   5.097  14.803 -0.4124 -0.4648  0.2619
 9995TIP3    H151400   3.514   5.007  14.800 -2.8836 -1.3071 -0.5480
 9995TIP3    H251401   3.392   5.091  14.832 -1.2562  1.5763 -1.7797
 9996TIP3   OH251402   3.188   0.398  15.471  0.0293  0.2218 -0.1396
 9996TIP3    H151403   3.104   0.352  15.467  0.4571 -0.7457  1.6935
 9996TIP3    H251404   3.249   0.343  15.422  0.2841 -0.6255  1.1109
 9997TIP3   OH251405   5.698   2.257  14.731  0.4247  0.1412 -0.4625
 9997TIP3    H151406   5.676   2.297  14.648  0.1908 -0.6110 -0.7707
 9997TIP3    H251407   5.789   2.229  14.721  0.1521 -0.6613 -0.7591
 9998TIP3   OH251408   1.723   4.622  15.266  0.6191 -0.1331  0.4142
 9998TIP3    H151409   1.659   4.557  15.294  0.0026  0.3048  0.0323
 9998TIP3    H251410   1.672   4.689  15.222  1.2548  0.6242  0.8212
 9999TIP3   OH251411   0.059   5.594   0.965 -0.4004  0.4092 -0.5732
 9999TIP3    H151412   0.011   5.552   1.036  0.7005  1.3654  0.7768
 9999TIP3    H251413   0.019   5.560   0.885 -2.9240  0.7580  0.4946
10000TIP3   OH251414   4.766   3.444   1.650 -0.5399 -0.2485  0.6082
10000TIP3    H151415   4.773   3.505   1.576 -0.6524 -0.2521  0.5953
10000TIP3    H251416   4.701   3.484   1.708  0.5993  0.4953  1.4123
10001TIP3   OH251417   6.646   6.001  13.105 -0.5589  0.5561  0.1180
10001TIP3    H151418   6.630   5.975  13.195  1.2185  0.2171  0.3658
10001TIP3    H251419   6.732   6.044  13.107 -1.3156  2.1837 -1.1066
10002TIP3   OH251420   4.440   4.196  14.562 -0.3150 -0.6652 -0.2053
10002TIP3    H151421   4.389   4.234  14.634 -1.6862  1.1629 -2.0619
10002TIP3    H251422   4.389   4.218  14.483  2.0450 -1.0514 -1.8899
10003TIP3   OH251423   6.558   5.012  13.239 -0.0855  0.3837  0.1153
10003TIP3    H151424   6.524   4.961  13.165  0.8772  0.0231 -0.0868
10003TIP3    H251425   6.571   5.099  13.203 -1.2936  0.6624  0.3350
10004TIP3   OH251426   3.947   5.049   0.688 -0.4788 -0.1189  0.1014
10004TIP3    H151427   3.871   5.054   0.630 -2.1404  1.3741  2.2983
10004TIP3    H251428   3.927   5.111   0.759  2.4829 -0.2150  1.1026
10005TIP3   OH251429   5.802   3.871   0.392  0.1621 -0.1528  0.0029
10005TIP3    H151430   5.743   3.803   0.358 -1.1577  0.7278  0.5056
10005TIP3    H251431   5.841   3.910   0.314  0.1913 -0.8277 -0.3312
10006TIP3   OH251432   6.532   5.020  10.579  0.0885  0.5627  0.5941
10006TIP3    H151433   6.564   4.971  10.504  1.2574  0.7396  0.9571
10006TIP3    H251434   6.449   4.979  10.602  0.7268 -0.8231  0.4802
10007TIP3   OH251435   3.948   5.547  15.273 -0.2155 -0.3808 -0.1504
10007TIP3    H151436   3.934   5.579  15.184 -0.2370  0.1133  0.0310
10007TIP3    H251437   3.961   5.625  15.326 -0.8993 -0.6318  0.4088
10008TIP3   OH251438   4.555   1.363  11.561 -0.3737  0.1672  0.3551
10008TIP3    H151439   4.474   1.312  11.565 -0.7507  0.8117  0.8614
10008TIP3    H251440   4.594   1.338  11.477 -1.5562  0.5472 -0.3223
10009TIP3   OH251441   5.642   1.804  11.724  0.4766  0.0333  0.2730
10009TIP3    H151442   5.624   1.711  11.739 -1.0115  0.5263  1.7453
10009TIP3    H251443   5.598   1.823  11.641  1.0973 -0.6584 -0.2217
10010TIP3   OH251444   5.932   0.929  15.354 -0.2102 -0.3410 -0.6453
10010TIP3    H151445   5.914   0.871  15.428 -0.0169 -0.9077 -1.0411
10010TIP3    H251446   5.955   0.870  15.283  1.3146  0.2884 -0.6799
10011TIP3   OH251447   6.702   3.898  13.025 -0.1736  0.3086 -0.1835
10011TIP3    H151448   6.665   3.820  13.066 -0.0943  0.6447  0.5219
10011TIP3    H251449   6.771   3.927  13.085  1.6827 -0.6754 -1.7890
10012TIP3   OH251450   1.667   5.453  15.671 -0.4904  0.2334  0.0178
10012TIP3    H151451   1.736   5.434  15.608  0.6991  0.0917  1.3429
10012TIP3    H251452   1.710   5.505  15.739 -1.9587  1.1580  0.2626
10013TIP3   OH251453   6.180   5.452   0.512 -0.4400 -0.0142  0.0783
10013TIP3    H151454   6.097   5.419   0.479 -0.6370  0.7472 -0.1961
10013TIP3    H251455   6.157   5.513   0.582 -0.1345  0.5401 -0.2991
10014TIP3   OH251456   2.986   2.825   1.845 -0.5053  0.4286  0.2470
10014TIP3    H151457   2.932   2.899   1.873 -0.4715  1.3726 -2.0766
10014TIP3    H251458   3.070   2.865   1.820 -0.2705 -0.4800 -0.4357
10015TIP3   OH251459   3.282   5.045   3.003 -0.1915  0.7120 -0.0990
10015TIP3    H151460   3.248   5.097   2.930  0.6189 -0.6017 -1.4450
10015TIP3    H251461   3.292   4.957   2.967 -0.6762 -0.1712  1.8814
10016TIP3   OH251462   3.581   4.299  15.766 -0.6990  0.0117 -0.0405
10016TIP3    H151463   3.646   4.345  15.819  0.3288 -0.5323 -0.8092
10016TIP3    H251464   3.599   4.206  15.781 -4.4662 -0.2656  3.6241
10017TIP3   OH251465   1.300   6.315   0.971 -0.4990 -0.0449 -0.1865
10017TIP3    H151466   1.218   6.268   0.986  0.6540 -2.7323 -1.9674
10017TIP3    H251467   1.323   6.351   1.057 -2.9937 -0.0889  0.5385
10018TIP3   OH251468   0.057   5.426  15.263  0.1501  0.1579  0.1758
10018TIP3    H151469   0.100   5.509  15.246  1.4060 -0.7044 -0.9608
10018TIP3    H251470   0.098   5.394  15.343  0.5669  0.0404 -0.0836
10019TIP3   OH251471   4.769   5.227   0.669  0.3592  0.3370  0.1673
10019TIP3    H151472   4.825   5.217   0.746 -0.0358 -2.1793  0.1465
10019TIP3    H251473   4.709   5.153   0.673  1.8338 -1.1584 -3.8571
10020TIP3   OH251474   3.375   3.890   0.239  0.3607 -0.0260 -0.2097
10020TIP3    H151475   3.384   3.833   0.316  1.8981 -1.7593 -1.6236
10020TIP3    H251476   3.310   3.846   0.184 -0.1928  0.8290 -0.2419
10021TIP3   OH251477   3.068   5.179  15.114 -0.1213  0.3260 -0.1144
10021TIP3    H151478   3.117   5.262  15.106  2.7968 -1.3872 -0.7312
10021TIP3    H251479   3.030   5.166  15.027  5.0307 -2.2281 -2.2398
10022TIP3   OH251480   4.134   5.084  14.114  0.7818 -0.3290 -0.0341
10022TIP3    H151481   4.171   5.090  14.202  0.3841  0.5136  0.0829
10022TIP3    H251482   4.063   5.021  14.122 -0.9817  1.7060  0.8779
10023TIP3   OH251483   4.911   4.815  14.813 -0.5225 -0.2704  1.0456
10023TIP3    H151484   4.897   4.760  14.735  1.8623  0.4684  0.0523
10023TIP3    H251485   4.947   4.896  14.778  1.5725 -0.3257  3.0176
10024TIP3   OH251486   3.721   6.689  14.204  0.1545  0.0183  0.0140
10024TIP3    H151487   3.693   6.639  14.128 -0.1095 -2.1819  1.5150
10024TIP3    H251488   3.775   6.759  14.168 -1.0827 -0.1632 -2.2956
10025TIP3   OH251489   5.604   1.917   1.082 -0.6485 -0.0346 -0.1662
10025TIP3    H151490   5.651   1.840   1.049 -0.1922  1.2640 -2.6993
10025TIP3    H251491   5.658   1.950   1.153  1.2306  0.2283 -1.6718
10026TIP3   OH251492   3.502   3.546   0.628 -0.2024  0.3520  0.1410
10026TIP3    H151493   3.589   3.584   0.643 -0.3062  0.5438  0.2678
10026TIP3    H251494   3.452   3.570   0.706 -1.2138  2.7422 -1.1672
10027TIP3   OH251495   0.186   5.965   2.349  0.1164 -0.4428 -0.0987
10027TIP3    H151496   0.091   5.973   2.343  0.0748  0.0569  1.0901
10027TIP3    H251497   0.217   6.055   2.365  0.5551 -0.9738  2.2119
10028TIP3   OH251498   0.122   4.315   0.747  0.2459 -0.7903  0.2598
10028TIP3    H151499   0.152   4.366   0.672  0.8610  1.1327  1.7695
10028TIP3    H251500   0.093   4.381   0.810 -3.4920 -2.4705  0.4251
10029TIP3   OH251501   0.011   5.124  15.328  1.0104  0.3107 -0.6320
10029TIP3    H151502  -0.057   5.062  15.353  0.4854  0.9562 -0.4207
10029TIP3    H251503  -0.013   5.152  15.240  1.1122  0.3831 -0.6377
10030TIP3   OH251504   0.691   5.108  14.561 -0.2592  0.1921 -0.1643
10030TIP3    H151505   0.747   5.039  14.596  1.3676  0.7936 -1.5280
10030TIP3    H251506   0.687   5.173  14.632  1.2270  0.4062 -0.2745
10031TIP3   OH251507   4.356   1.724  12.377  0.6220  0.3633  0.0682
10031TIP3    H151508   4.285   1.682  12.425 -1.1276  0.5384 -2.2639
10031TIP3    H251509   4.371   1.668  12.301  2.9229  0.4072  0.4472
10032TIP3   OH251510   4.594   6.443  15.023  0.0699  0.2169  0.9076
10032TIP3    H151511   4.547   6.382  15.080 -0.4606 -0.3389 -0.1061
10032TIP3    H251512   4.532   6.460  14.951  1.7233 -1.1379 -0.8651
10033TIP3   OH251513   0.768   1.924  11.046  0.2467 -0.1498  0.2555
10033TIP3    H151514   0.840   1.960  10.996 -1.2676  0.7212 -1.3622
10033TIP3    H251515   0.793   1.833  11.063  1.5785  0.0628 -0.5319
10034TIP3   OH251516   5.793   3.315  13.978 -0.0964 -0.2846  0.4622
10034TIP3    H151517   5.806   3.271  14.061 -1.9266 -0.5805  0.6046
10034TIP3    H251518   5.739   3.391  13.999  0.2012  0.1537 -0.3124
10035TIP3   OH251519   3.954   5.742   1.258 -0.3070 -0.0289 -0.3069
10035TIP3    H151520   3.945   5.648   1.273  0.8791 -0.1655 -0.3878
10035TIP3    H251521   4.027   5.768   1.313  0.5260  0.5013 -1.6362
10036TIP3   OH251522   4.689   4.326  11.505 -0.3536 -0.3228 -0.7716
10036TIP3    H151523   4.768   4.379  11.515  0.7974 -1.4671 -3.4296
10036TIP3    H251524   4.617   4.388  11.517  0.9621  1.4314 -1.7743
10037TIP3   OH251525   4.692   4.259   0.350 -0.1093 -0.0286 -0.3105
10037TIP3    H151526   4.713   4.289   0.262  0.1469  0.3127 -0.1349
10037TIP3    H251527   4.758   4.300   0.406 -0.8488  0.5069  0.1673
10038TIP3   OH251528   5.007   4.277   1.277 -0.0422 -0.1470 -0.5347
10038TIP3    H151529   4.982   4.336   1.206 -3.1127  1.3307  1.6553
10038TIP3    H251530   5.081   4.321   1.320 -0.3663  0.6076 -0.7413
10039TIP3   OH251531   0.274   4.267  13.953 -0.3089  0.3067  0.0351
10039TIP3    H151532   0.233   4.196  13.903 -2.0889  1.0172  0.4232
10039TIP3    H251533   0.222   4.345  13.930  2.9167  1.9704 -2.0982
10040TIP3   OH251534   2.412   6.853  15.211 -0.4991  0.1283 -0.3269
10040TIP3    H151535   2.424   6.907  15.133  0.0075 -0.7138 -0.8447
10040TIP3    H251536   2.422   6.913  15.285 -1.2517  0.9896 -0.9139
10041TIP3   OH251537   4.762   6.549   1.870 -0.2945  0.0073  0.1561
10041TIP3    H151538   4.843   6.598   1.854 -0.4491 -0.0311 -0.7779
10041TIP3    H251539   4.777   6.464   1.828 -0.3306 -0.4721  1.0877
10042TIP3   OH251540   7.247   0.447  15.644  0.8730 -0.0475 -0.0703
10042TIP3    H151541   7.262   0.525  15.590  2.2587 -0.5060 -0.3706
10042TIP3    H251542   7.195   0.389  15.589  1.2453 -0.0096 -0.4647
10043TIP3   OH251543   6.944   3.154  12.242  0.5126  0.3616 -0.3676
10043TIP3    H151544   6.880   3.093  12.206  0.4337  0.1907  0.0616
10043TIP3    H251545   6.979   3.200  12.165  0.5848 -0.2324 -0.6968
10044TIP3   OH251546   1.020   3.793  14.658  0.0278  0.5655 -0.2685
10044TIP3    H151547   0.926   3.797  14.675  0.2110  0.4865  0.7870
10044TIP3    H251548   1.039   3.699  14.656  0.3998  0.6012  1.3163
10045TIP3   OH251549   4.804   1.257   1.005 -0.0020  0.4389  0.0160
10045TIP3    H151550   4.842   1.177   0.968 -0.9548  1.0206 -2.3030
10045TIP3    H251551   4.859   1.328   0.971  1.1776  0.7466  2.5174
10046TIP3   OH251552   2.528   4.630   2.049 -0.0737 -0.2040 -0.5690
10046TIP3    H151553   2.508   4.552   2.102 -1.5156  0.9609  0.6460
10046TIP3    H251554   2.551   4.595   1.963 -0.2621 -2.0080  0.0921
10047TIP3   OH251555   5.692   6.989   0.095  0.1487 -0.1896 -0.5302
10047TIP3    H151556   5.610   6.946   0.120 -0.2171  0.3599 -0.7658
10047TIP3    H251557   5.664   7.072   0.056  0.7766 -0.3516 -1.3499
10048TIP3   OH251558   6.930   5.220  14.513 -0.1256  0.0929 -0.2048
10048TIP3    H151559   6.863   5.160  14.546  0.6224 -0.5073  0.2601
10048TIP3    H251560   6.958   5.181  14.430  0.2724 -0.1435  0.0371
10049TIP3   OH251561   2.661   4.259  12.385 -0.1723  0.6335 -0.0162
10049TIP3    H151562   2.686   4.167  12.392 -0.1085  0.6950  0.6633
10049TIP3    H251563   2.720   4.295  12.319  0.6151  0.4524  0.5662
10050TIP3   OH251564   6.469   5.549  15.361 -0.0983  0.2600 -0.4745
10050TIP3    H151565   6.400   5.610  15.334  0.3125  0.1483 -1.8233
10050TIP3    H251566   6.521   5.536  15.282  1.0649 -0.1997  0.3596
10051TIP3   OH251567   6.026   5.752   0.520 -0.5959  0.0528 -0.1596
10051TIP3    H151568   6.056   5.695   0.591  0.2191  0.2888 -0.3093
10051TIP3    H251569   5.965   5.813   0.563  0.9830  1.1109  0.6338
10052TIP3   OH251570   4.208   2.142  15.065  0.2968  0.0206  0.4620
10052TIP3    H151571   4.144   2.158  15.134  0.6684 -0.5486  0.9388
10052TIP3    H251572   4.280   2.096  15.108  0.8216  0.2406 -0.1662
10053TIP3   OH251573   6.239   4.682  15.213 -0.1908 -0.0083  0.2926
10053TIP3    H151574   6.318   4.631  15.229 -0.1885 -0.0326  0.2041
10053TIP3    H251575   6.168   4.619  15.217 -0.1044 -0.1855 -0.7636
10054TIP3   OH251576   2.707   6.694   1.346  0.1142  0.6483 -0.4570
10054TIP3    H151577   2.685   6.612   1.300  0.4613  0.1703  0.2316
10054TIP3    H251578   2.796   6.713   1.318  0.2969  0.3995 -0.0514
10055TIP3   OH251579   6.140   4.419   0.636  0.0992  0.4687 -0.1617
10055TIP3    H151580   6.201   4.446   0.567  0.1743 -0.3279 -0.4025
10055TIP3    H251581   6.152   4.484   0.705  2.0071 -0.3441  0.2680
10056TIP3   OH251582   5.343   3.926   2.752  0.2125 -0.5259 -0.1698
10056TIP3    H151583   5.335   3.890   2.664  0.1238 -0.1841 -0.3006
10056TIP3    H251584   5.253   3.927   2.785  0.1309  0.2175 -0.4179
10057TIP3   OH251585   0.731   3.848  11.923 -0.6450  0.1040  0.2614
10057TIP3    H151586   0.706   3.918  11.983  1.2586 -0.4172  1.7504
10057TIP3    H251587   0.824   3.864  11.906 -0.7138 -0.8408 -1.0739
10058TIP3   OH251588   4.417   7.136  15.616 -0.1035  0.3891 -0.6754
10058TIP3    H151589   4.405   7.060  15.558  2.0746  1.0009 -1.9537
10058TIP3    H251590   4.440   7.208  15.557  2.8934  0.8608  0.9783
10059TIP3   OH251591   1.924   4.514   0.849  0.1794 -0.0041  0.6072
10059TIP3    H151592   1.988   4.582   0.869 -0.7074  0.8144  0.6740
10059TIP3    H251593   1.976   4.444   0.809  0.7722  1.6136 -1.5410
10060TIP3   OH251594   7.165   4.623   0.611  0.0211 -0.3283  0.0871
10060TIP3    H151595   7.088   4.659   0.568 -0.0900 -0.2026  0.3948
10060TIP3    H251596   7.235   4.632   0.546 -0.3315 -0.8922 -0.3694
10061TIP3   OH251597   2.847   5.106   1.724  0.1912  0.2411  0.4691
10061TIP3    H151598   2.773   5.046   1.730  0.3570  0.1247  1.4067
10061TIP3    H251599   2.849   5.151   1.808  0.4773  1.0872  0.0175
10062TIP3   OH251600   5.811   1.923  13.418  0.2206  0.0108 -0.0793
10062TIP3    H151601   5.778   1.851  13.365 -0.5551  0.6926 -0.5408
10062TIP3    H251602   5.855   1.881  13.492  1.4426 -0.9606 -1.3290
10063TIP3   OH251603   2.209   5.676  15.534  0.2382  0.4124  0.1397
10063TIP3    H151604   2.186   5.658  15.625  1.3047  1.0977  0.5658
10063TIP3    H251605   2.125   5.686  15.489 -0.2960 -0.1569  1.0022
10064TIP3   OH251606   1.012   6.151   0.945  0.2403  0.5661 -0.5000
10064TIP3    H151607   0.928   6.138   0.989 -0.1634  1.9422 -0.8582
10064TIP3    H251608   1.003   6.105   0.861  0.9777 -1.9817  0.7676
10065TIP3   OH251609   3.905   4.606   5.237 -0.1852 -0.0357 -0.2912
10065TIP3    H151610   3.839   4.593   5.305  1.0935 -3.7097  0.3051
10065TIP3    H251611   3.969   4.665   5.277 -0.9896  0.2546  0.5916
10066TIP3   OH251612   1.490   1.916  15.003  0.1155  0.3521  0.5679
10066TIP3    H151613   1.493   1.838  14.947  0.6301  0.3762  0.5589
10066TIP3    H251614   1.397   1.930  15.020  0.0325 -0.3919  0.7445
10067TIP3   OH251615   6.343   1.329  14.065  0.2616 -0.3907  0.4045
10067TIP3    H151616   6.286   1.261  14.100 -1.3549  0.9323  0.4180
10067TIP3    H251617   6.389   1.288  13.992  0.4236 -1.9190  1.3487
10068TIP3   OH251618   0.215   0.355   0.240  0.2261  0.2075  0.4064
10068TIP3    H151619   0.132   0.401   0.232 -0.3623 -0.8046  0.5273
10068TIP3    H251620   0.262   0.376   0.159 -0.0932  0.8969  0.4009
10069TIP3   OH251621   6.635   6.437   0.140  0.2911  0.1731 -0.3463
10069TIP3    H151622   6.645   6.458   0.047  0.8491  0.7201 -0.1635
10069TIP3    H251623   6.725   6.427   0.172  0.0931 -0.2100  0.0908
10070TIP3   OH251624   3.598   2.932  14.441  0.1364 -0.2149 -0.6971
10070TIP3    H151625   3.643   2.893  14.516  0.6070  0.4834 -0.6119
10070TIP3    H251626   3.508   2.900  14.448  0.1854 -0.1830  0.1424
10071TIP3   OH251627   2.379   6.065  15.656 -0.0159 -0.1152 -0.1852
10071TIP3    H151628   2.415   6.022  15.578  1.3554  0.9320 -0.1411
10071TIP3    H251629   2.294   6.098  15.627  0.3167 -0.0566 -1.1264
10072TIP3   OH251630   3.198   4.663   1.442  0.0720 -0.0014 -0.0558
10072TIP3    H151631   3.227   4.739   1.391  0.0518  0.8350  1.1713
10072TIP3    H251632   3.246   4.669   1.524 -1.4091 -0.1970  0.8430
10073TIP3   OH251633   2.110   6.385   0.689 -1.1321  0.1433  0.0819
10073TIP3    H151634   2.144   6.417   0.606 -2.4801 -0.5499 -0.7484
10073TIP3    H251635   2.177   6.411   0.753  1.1127 -1.4310 -1.5220
10074TIP3   OH251636   4.110   6.832  14.759 -0.7426 -0.3591 -0.3684
10074TIP3    H151637   4.099   6.823  14.665 -0.9591  2.3963 -0.6657
10074TIP3    H251638   4.023   6.860  14.790 -0.4083 -0.2829  0.5030
10075TIP3   OH251639   6.492   0.042  14.514  0.1264  0.4279  1.1390
10075TIP3    H151640   6.446  -0.038  14.541 -0.5142 -0.3995 -2.2058
10075TIP3    H251641   6.585   0.022  14.528 -0.0513 -0.7623  0.7386
10076TIP3   OH251642   1.786   3.803  11.454  0.0268  0.1146  0.5296
10076TIP3    H151643   1.756   3.866  11.520 -1.1055 -0.2776  0.3879
10076TIP3    H251644   1.749   3.719  11.481 -0.8475  0.0318 -0.8559
10077TIP3   OH251645   3.032   5.650  13.374  0.3625 -0.0294  0.0692
10077TIP3    H151646   3.048   5.556  13.370 -1.8618 -0.4078 -0.6214
10077TIP3    H251647   3.038   5.672  13.467 -0.3841 -1.0757  0.3584
10078TIP3   OH251648   1.287   5.079   2.206 -0.1883  0.1234 -0.0519
10078TIP3    H151649   1.199   5.062   2.238 -0.4682  1.0237 -0.3237
10078TIP3    H251650   1.280   5.073   2.110  0.1121 -0.1191 -0.0612
10079TIP3   OH251651   0.722   3.420   0.194 -0.6296  0.0250  0.3551
10079TIP3    H151652   0.739   3.384   0.281 -1.5493 -1.1862  0.0427
10079TIP3    H251653   0.643   3.375   0.164 -1.0086  1.3050 -0.6186
10080TIP3   OH251654   0.661   7.085   3.731  0.1625  0.3215 -0.0455
10080TIP3    H151655   0.597   7.015   3.748 -1.2667  1.7491  0.6062
10080TIP3    H251656   0.726   7.074   3.800 -0.0382 -0.3808  0.0403
10081TIP3   OH251657   3.070   6.121   2.352  0.7668 -0.1017  0.0162
10081TIP3    H151658   3.134   6.121   2.423  1.0153 -1.4091 -0.1986
10081TIP3    H251659   3.039   6.030   2.347 -1.2034  0.5263  0.1953
10082TIP3   OH251660   0.823   4.513  15.016  0.0667  0.2143 -0.0621
10082TIP3    H151661   0.777   4.596  15.009  0.4729  0.4093 -0.4791
10082TIP3    H251662   0.818   4.476  14.927 -1.0183 -0.6932  0.3676
10083TIP3   OH251663   6.707   0.213   2.431 -0.4771  0.2231  0.0523
10083TIP3    H151664   6.730   0.306   2.438 -2.0790  0.6870 -0.7457
10083TIP3    H251665   6.790   0.167   2.447  0.5038  1.7989 -0.3810
10084TIP3   OH251666   2.034   5.226  15.259 -0.0656 -0.5490 -0.2077
10084TIP3    H151667   1.995   5.143  15.284 -0.8209 -0.8495 -2.3125
10084TIP3    H251668   1.959   5.285  15.249  0.1240 -0.7092 -2.7189
10085TIP3   OH251669   2.521   4.649   1.423  0.0216  0.2621 -0.0298
10085TIP3    H151670   2.595   4.694   1.463 -0.5534  1.3706 -0.1890
10085TIP3    H251671   2.550   4.627   1.335  0.6790 -0.6497  0.3974
10086TIP3   OH251672   6.886   4.649  15.208  0.1828 -0.1628  0.5280
10086TIP3    H151673   6.802   4.681  15.176 -0.2327  0.7808  2.4823
10086TIP3    H251674   6.879   4.554  15.204 -1.2129 -0.0968  1.2071
10087TIP3   OH251675   0.471   4.962   0.111 -0.3959 -0.0287 -0.1256
10087TIP3    H151676   0.484   4.876   0.152 -0.2305  0.0693  0.0255
10087TIP3    H251677   0.393   4.950   0.057  1.0997 -1.0003 -2.1160
10088TIP3   OH251678   2.469   0.983  13.855  0.2490  0.3386  0.4158
10088TIP3    H151679   2.429   0.936  13.782 -1.6185  0.8016  1.1076
10088TIP3    H251680   2.474   1.074  13.825  0.0089  0.4309  0.6602
10089TIP3   OH251681   7.130   2.127  14.547 -0.4749 -0.5575  0.2067
10089TIP3    H151682   7.197   2.145  14.481 -0.0730  0.2698  0.8411
10089TIP3    H251683   7.049   2.115  14.496 -0.2295  0.3799 -0.4061
10090TIP3   OH251684   0.258   6.579  13.909  0.0824  0.2043 -0.1060
10090TIP3    H151685   0.347   6.552  13.885 -0.7212 -1.7596 -0.9598
10090TIP3    H251686   0.207   6.498  13.910 -1.3877  1.0985  1.8710
10091TIP3   OH251687   2.915   0.593  13.782  0.2798 -0.1110 -0.1136
10091TIP3    H151688   2.914   0.530  13.711  1.8184  0.0534 -0.2998
10091TIP3    H251689   3.006   0.591  13.815  0.2574  1.7215  0.1051
10092TIP3   OH251690   2.090   5.583   4.021 -0.2230  0.1286 -0.4262
10092TIP3    H151691   2.123   5.567   3.933  0.3773  1.8036 -0.5233
10092TIP3    H251692   2.038   5.663   4.013 -1.6837 -0.7208  0.3754
10093TIP3   OH251693   0.730   0.416   0.978  0.0070 -0.2054  0.4107
10093TIP3    H151694   0.730   0.499   0.931  0.5359 -0.9839 -1.0050
10093TIP3    H251695   0.647   0.415   1.025  0.9685  2.0909  2.2360
10094TIP3   OH251696   2.420   7.048  15.453 -0.0895 -0.5654  0.0410
10094TIP3    H151697   2.338   7.005  15.477  0.0841 -0.5148  0.7520
10094TIP3    H251698   2.475   7.039  15.531 -0.5105  2.0805  0.7195
10095TIP3   OH251699   5.028   1.506   0.512  0.5531  0.1106  0.1962
10095TIP3    H151700   5.123   1.499   0.501  0.2905 -0.5538 -1.7719
10095TIP3    H251701   4.994   1.424   0.476 -0.8085  0.6026  0.3649
10096TIP3   OH251702   1.831   3.702  15.487 -0.0708  0.5444  0.0711
10096TIP3    H151703   1.908   3.730  15.437  0.1860 -1.7662 -0.9316
10096TIP3    H251704   1.765   3.682  15.421 -0.3230 -0.8584  0.7080
10097TIP3   OH251705   2.193   0.880  15.834  0.0975  0.3495  0.3862
10097TIP3    H151706   2.134   0.849  15.767  0.7672 -0.8222  0.3214
10097TIP3    H251707   2.151   0.855  15.917  0.0314  0.3884  0.3644
10098TIP3   OH251708   0.543   0.364  15.805  0.1901  0.2271 -0.0272
10098TIP3    H151709   0.517   0.392  15.893  1.7241  1.5321  0.0296
10098TIP3    H251710   0.487   0.416  15.747  0.7008  0.9924  0.1521
10099TIP3   OH251711   5.212   6.147  15.652  0.5445  0.6417  0.5656
10099TIP3    H151712   5.165   6.172  15.732  1.0330  1.7800  0.5115
10099TIP3    H251713   5.195   6.053  15.643 -1.2971  0.9264  0.8118
10100TIP3   OH251714   5.589   4.550   2.317  0.0449 -0.6503  0.1731
10100TIP3    H151715   5.621   4.484   2.378 -0.6250 -0.6991  0.4821
10100TIP3    H251716   5.503   4.574   2.352  0.3277  0.4550  0.1153
10101TIP3   OH251717   6.302   1.370  12.953 -0.0230 -0.1414  0.0495
10101TIP3    H151718   6.384   1.356  13.000 -0.4944  2.0002  1.5681
10101TIP3    H251719   6.328   1.404  12.868  0.6940 -0.2032  0.2432
10102TIP3   OH251720   3.007   0.939  13.685 -0.1117 -0.1258  0.0421
10102TIP3    H151721   3.030   1.031  13.674 -2.4697  0.5318  0.4055
10102TIP3    H251722   3.088   0.892  13.665  0.3987  1.8489 -2.8903
10103TIP3   OH251723   1.597   0.472  14.049  0.5154 -0.6341  0.6167
10103TIP3    H151724   1.541   0.427  14.112 -0.4349 -1.1595 -0.5870
10103TIP3    H251725   1.596   0.416  13.971 -0.2151  1.1585 -0.7003
10104TIP3   OH251726   7.225   7.032  14.184 -0.3557 -0.8544  0.7325
10104TIP3    H151727   7.132   7.053  14.171  0.2889  1.1857 -0.7999
10104TIP3    H251728   7.237   6.950  14.135 -0.5985  0.7367 -2.1324
10105TIP3   OH251729   6.449   1.349  14.757  0.4555  0.0039  0.3103
10105TIP3    H151730   6.403   1.291  14.697  0.1801  2.9379 -2.4058
10105TIP3    H251731   6.381   1.378  14.819 -0.3609  0.6584 -0.8631
10106TIP3   OH251732   3.021   0.939   0.559 -0.2280 -0.2479  0.8177
10106TIP3    H151733   3.084   0.940   0.631 -0.4334 -0.2406  0.9976
10106TIP3    H251734   2.951   0.881   0.589 -0.7742  0.5112  1.0240
10107TIP3   OH251735   3.875   3.741  14.803  0.4597  0.1156 -0.4804
10107TIP3    H151736   3.859   3.663  14.750  3.4578 -0.4015 -0.7309
10107TIP3    H251737   3.910   3.805  14.740 -0.3830  1.0946  0.0344
10108TIP3   OH251738   3.760   4.335  12.218  0.0276  0.0929 -0.6077
10108TIP3    H151739   3.676   4.325  12.262  0.0330 -1.6235 -0.9711
10108TIP3    H251740   3.825   4.328  12.288 -0.0855  0.1779 -0.4961
10109TIP3   OH251741   5.957   5.385  12.233 -1.0755 -0.2077 -0.1530
10109TIP3    H151742   5.915   5.320  12.176 -1.5732 -0.7933  0.8579
10109TIP3    H251743   6.034   5.340  12.267 -0.5585  0.2796 -0.6776
10110TIP3   OH251744   1.273   7.240   1.579  0.5473 -0.1213 -0.6246
10110TIP3    H151745   1.223   7.185   1.639  0.1849 -0.0075 -0.8225
10110TIP3    H251746   1.314   7.306   1.635  0.7507 -0.4156 -0.4221
10111TIP3   OH251747   1.998   5.352   0.458 -0.2991 -0.2152  0.0313
10111TIP3    H151748   1.914   5.311   0.477 -0.7933  1.3791  1.4176
10111TIP3    H251749   2.007   5.420   0.524  1.4053  0.6194 -1.0167
10112TIP3   OH251750   2.363   0.370  13.968 -0.2729 -0.6437  0.1807
10112TIP3    H151751   2.273   0.357  13.938 -0.1144 -0.1835 -0.5100
10112TIP3    H251752   2.358   0.450  14.021 -0.0743  0.0321 -0.7879
10113TIP3   OH251753   2.864   6.145  14.661  0.4037 -0.6406  0.1602
10113TIP3    H151754   2.802   6.072  14.670  2.7388 -2.4371  2.3624
10113TIP3    H251755   2.846   6.201  14.735 -0.2348  0.1612 -0.5891
10114TIP3   OH251756   2.098   0.433   0.206 -0.2233  0.1510 -0.2310
10114TIP3    H151757   2.181   0.439   0.254 -0.8162  2.4855  0.5783
10114TIP3    H251758   2.032   0.418   0.274 -0.3688 -2.9475 -0.9863
10115TIP3   OH251759   4.676   5.673  14.761  0.1542  0.3578  0.2418
10115TIP3    H151760   4.673   5.585  14.724 -0.7637  0.1682  0.7368
10115TIP3    H251761   4.618   5.724  14.705 -0.4392  0.3060  0.8004
10116TIP3   OH251762   0.676   0.751   4.476  0.0683  0.0858 -0.1083
10116TIP3    H151763   0.580   0.743   4.475  0.1974 -1.6508  0.6839
10116TIP3    H251764   0.697   0.775   4.566  0.3840  0.7418 -0.3486
10117TIP3   OH251765   3.171   6.277  15.541 -0.0678  0.1359  0.0553
10117TIP3    H151766   3.226   6.200  15.550  1.4840  1.3545  1.2211
10117TIP3    H251767   3.089   6.244  15.503  0.1193 -2.2408  1.6509
10118TIP3   OH251768   2.241   4.704   0.007  0.5758  0.2322  0.0798
10118TIP3    H151769   2.293   4.698   0.088 -0.4478  0.0938  0.7367
10118TIP3    H251770   2.292   4.655  -0.058  0.8402 -0.6426  0.9383
10119TIP3   OH251771   4.544   6.590  12.727  0.5306  0.3182 -0.1312
10119TIP3    H151772   4.551   6.651  12.800 -1.5841  1.1941 -0.6311
10119TIP3    H251773   4.527   6.505  12.768 -0.6649  0.8078  0.3965
10120TIP3   OH251774   5.536   5.127  11.834 -1.0882 -0.2362 -0.4569
10120TIP3    H151775   5.488   5.081  11.903 -0.6806  0.0327  0.0046
10120TIP3    H251776   5.494   5.213  11.828  0.1056  0.4482  0.7833
10121TIP3   OH251777   3.983   5.418  13.802  0.2169 -0.4787 -0.5434
10121TIP3    H151778   4.075   5.391  13.807  0.7863  1.4277 -0.1891
10121TIP3    H251779   3.982   5.506  13.840 -1.9141 -0.8247  0.2587
10122TIP3   OH251780   3.321   5.993  15.894  0.6240 -0.0701 -0.0660
10122TIP3    H151781   3.389   6.005  15.960  1.5801  2.2708 -1.4165
10122TIP3    H251782   3.353   5.922  15.839  1.5130  0.3280 -0.0759
10123TIP3   OH251783   3.084   4.870   1.023 -0.1066  0.0171  0.5942
10123TIP3    H151784   3.127   4.930   1.083 -0.0661 -0.6892  1.2872
10123TIP3    H251785   3.155   4.819   0.984 -0.2245 -0.4361  0.9573
10124TIP3   OH251786   4.766   4.893  15.012 -0.0009 -0.4496  0.2688
10124TIP3    H151787   4.821   4.890  14.934  0.5107  0.2554  0.5903
10124TIP3    H251788   4.827   4.910  15.084 -0.7598  1.5517  0.4774
10125TIP3   OH251789   4.400   6.852  15.805 -0.4731 -0.3707 -0.0953
10125TIP3    H151790   4.317   6.820  15.840 -0.8201 -0.9038 -1.3747
10125TIP3    H251791   4.377   6.929  15.753 -0.3284 -1.1382 -1.3336
10126TIP3   OH251792   2.570   6.522   4.758  0.5027  0.3425 -0.0583
10126TIP3    H151793   2.647   6.488   4.803  0.1041  0.6959  0.9217
10126TIP3    H251794   2.500   6.461   4.780  0.8485 -0.8802 -2.2851
10127TIP3   OH251795   2.316   5.764  14.387 -0.2520 -0.3216  0.0651
10127TIP3    H151796   2.233   5.716  14.381 -1.3045  1.4389  0.2495
10127TIP3    H251797   2.302   5.842  14.334 -0.0025  1.7954  3.0231
10128TIP3   OH251798   2.337   1.986  14.374  0.6706  0.3791  0.3452
10128TIP3    H151799   2.425   1.986  14.338  0.0734  1.3868 -1.1744
10128TIP3    H251800   2.334   2.064  14.430  0.1805  1.4403 -1.1136
10129TIP3   OH251801   1.361   6.914   0.113 -0.0881  0.3145 -0.0534
10129TIP3    H151802   1.434   6.975   0.117 -0.1637  0.3515  0.8379
10129TIP3    H251803   1.320   6.931   0.028 -0.1235  1.5214  0.1954
10130TIP3   OH251804   3.649   5.793  15.878  0.3702  0.1137 -0.2084
10130TIP3    H151805   3.612   5.843  15.951  1.3407 -1.2212  1.2133
10130TIP3    H251806   3.690   5.859  15.822 -1.4719  1.2792 -0.2277
10131TIP3   OH251807   2.183   4.594  13.989  0.5697  0.2507  0.3336
10131TIP3    H151808   2.220   4.519  13.943  1.2871  0.0439  1.2276
10131TIP3    H251809   2.197   4.575  14.082 -1.7819  0.1711  0.7126
10132TIP3   OH251810   5.735   0.446  12.843  0.3260  0.3597  0.5138
10132TIP3    H151811   5.645   0.414  12.849  1.0697 -1.7231  0.6235
10132TIP3    H251812   5.735   0.502  12.765 -0.8937 -0.1582  0.1314
10133TIP3   OH251813   5.554   5.286  14.228 -0.1726  0.4554  0.8694
10133TIP3    H151814   5.475   5.341  14.231 -1.1823 -0.8492 -0.8987
10133TIP3    H251815   5.521   5.197  14.237  0.6653 -0.4075 -3.5703
10134TIP3   OH251816   3.543   4.395  13.044  0.0168 -0.0049  0.0657
10134TIP3    H151817   3.451   4.383  13.069 -0.4164 -0.3139 -1.5807
10134TIP3    H251818   3.592   4.351  13.114 -1.0431  0.8766  1.3892
10135TIP3   OH251819   6.170   5.612   1.467 -0.3267 -0.0396  0.0505
10135TIP3    H151820   6.160   5.636   1.559 -1.6180 -1.1392  0.2189
10135TIP3    H251821   6.263   5.626   1.448 -0.0633  0.2403  1.5120
10136TIP3   OH251822   2.251   6.737   1.209 -0.7484  0.1027 -0.6835
10136TIP3    H151823   2.330   6.701   1.251 -0.4152 -0.6514 -1.9256
10136TIP3    H251824   2.279   6.757   1.120 -2.0065 -0.3626 -1.1911
10137TIP3   OH251825   0.260   1.561   3.692  0.4240 -0.0734 -0.0195
10137TIP3    H151826   0.260   1.466   3.679  1.2498  0.0509 -1.0225
10137TIP3    H251827   0.339   1.578   3.744 -0.4670 -0.0777  1.3549
10138TIP3   OH251828   2.380   5.576  14.598 -0.0188  0.2547  0.4398
10138TIP3    H151829   2.389   5.653  14.542 -0.2846  1.2681  1.7551
10138TIP3    H251830   2.318   5.520  14.551 -0.2078  1.0698 -0.3073
10139TIP3   OH251831   5.199   6.225  14.595 -0.7902  0.0935  0.6347
10139TIP3    H151832   5.243   6.220  14.680 -1.4202  1.4859  1.0399
10139TIP3    H251833   5.113   6.187  14.610  0.5660 -3.6266 -0.4056
10140TIP3   OH251834   2.704   6.396  15.318 -0.0830  0.2684 -0.3490
10140TIP3    H151835   2.677   6.335  15.249 -3.0650  0.6335  0.4291
10140TIP3    H251836   2.645   6.470  15.310  1.1249  1.4297  1.0606
10141TIP3   OH251837   2.269   6.584  12.321 -0.0265 -0.6314 -0.1655
10141TIP3    H151838   2.208   6.531  12.269  0.6657  0.7886 -2.4872
10141TIP3    H251839   2.353   6.539  12.311  0.2383  0.0069 -0.8264
10142TIP3   OH251840   6.587   1.653  15.079 -0.4830  0.2673  0.5043
10142TIP3    H151841   6.647   1.630  15.008 -2.0678  0.9211 -1.1117
10142TIP3    H251842   6.642   1.690  15.147  1.1172 -0.6513 -0.2809
10143TIP3   OH251843   5.375   3.340  13.633  0.0220 -0.0506  0.4744
10143TIP3    H151844   5.389   3.259  13.585 -2.7691 -0.6138  0.5710
10143TIP3    H251845   5.436   3.334  13.707  4.5093  0.9295 -2.9253
10144TIP3   OH251846   1.592   0.892   1.111  0.0393 -0.0312 -0.1125
10144TIP3    H151847   1.556   0.977   1.082 -3.4768 -0.9783  1.1536
10144TIP3    H251848   1.605   0.903   1.206  1.4698 -0.3004 -0.2691
10145TIP3   OH251849   6.183   5.383  15.551 -0.5430 -0.0870 -0.0378
10145TIP3    H151850   6.190   5.410  15.460  1.8537 -0.4099  0.0023
10145TIP3    H251851   6.246   5.311  15.559 -0.1690  0.4376  2.0444
10146TIP3   OH251852   3.292   7.035   0.583  0.0612 -0.1473  0.4003
10146TIP3    H151853   3.306   7.118   0.629 -0.0077 -0.1591  0.4427
10146TIP3    H251854   3.239   7.059   0.507 -2.0221 -0.5264  1.7203
10147TIP3   OH251855   4.146   6.390  15.174 -0.0817 -0.6195 -0.6619
10147TIP3    H151856   4.131   6.296  15.160 -0.9225 -0.2935 -2.0667
10147TIP3    H251857   4.082   6.414  15.241  0.1223 -1.0408 -0.3111
10148TIP3   OH251858   4.845   5.394   0.482 -0.9564  0.7509  0.4209
10148TIP3    H151859   4.841   5.308   0.524 -0.2898  1.6971  2.5012
10148TIP3    H251860   4.754   5.422   0.475 -1.1462  0.0784  0.1408
10149TIP3   OH251861   4.372   6.732   0.950  0.5456  0.0275 -0.1108
10149TIP3    H151862   4.353   6.680   1.028  0.7113  0.3186  0.1231
10149TIP3    H251863   4.351   6.673   0.877  0.5615 -0.3061  0.1497
10150TIP3   OH251864   6.276   7.153   1.750 -0.1176 -0.2650 -0.3174
10150TIP3    H151865   6.314   7.069   1.724 -1.3996 -1.2766  0.9936
10150TIP3    H251866   6.297   7.161   1.844 -1.4498  0.0761 -0.0401
10151TIP3   OH251867   5.073   4.072  13.130  0.1711  0.4852 -0.0856
10151TIP3    H151868   4.981   4.066  13.104  0.0477 -0.1105  0.4754
10151TIP3    H251869   5.091   3.989  13.174  1.1887  0.2933 -0.8433
10152TIP3   OH251870   3.078   7.023  14.069  0.1514 -0.8880  0.3843
10152TIP3    H151871   3.147   7.089  14.075 -0.1139 -0.5660 -0.0711
10152TIP3    H251872   3.007   7.066  14.022 -0.9455 -0.7489  2.1214
10153TIP3   OH251873   5.221   0.647   0.956 -0.0792  0.3943  0.4397
10153TIP3    H151874   5.275   0.705   0.903 -0.3828  0.3922  0.1216
10153TIP3    H251875   5.233   0.677   1.046  1.8572 -0.7380  0.5933
10154TIP3   OH251876   1.412   5.524  15.071  0.3898  0.3140  0.1754
10154TIP3    H151877   1.473   5.555  15.138  2.1469 -0.7431 -0.9013
10154TIP3    H251878   1.432   5.578  14.994 -0.1868  0.1129 -0.1164
10155TIP3   OH251879   4.082   6.318   0.781 -0.3158  0.5857  0.6787
10155TIP3    H151880   4.004   6.312   0.725  0.1973  0.9520 -0.0929
10155TIP3    H251881   4.110   6.227   0.793 -0.7877  0.4612  0.8569
10156TIP3   OH251882   7.204   2.244   0.681 -0.6854 -0.2255  0.4248
10156TIP3    H151883   7.151   2.209   0.752  0.1255 -0.4008  0.9554
10156TIP3    H251884   7.222   2.169   0.624 -0.3053 -0.3401  0.6947
10157TIP3   OH251885   6.375   0.368  13.947 -0.5468  0.3255 -0.2547
10157TIP3    H151886   6.360   0.274  13.934  0.3883  0.1199  0.1113
10157TIP3    H251887   6.427   0.373  14.028 -2.1424  1.2765  0.7469
10158TIP3   OH251888   2.841   0.254   0.755  0.3646 -0.3039 -0.0937
10158TIP3    H151889   2.813   0.217   0.838  0.7762  1.7785  0.9899
10158TIP3    H251890   2.914   0.198   0.728 -0.2736 -1.4708  0.5170
10159TIP3   OH251891   6.057   4.639   3.043 -1.0251 -0.9165 -0.5029
10159TIP3    H151892   6.013   4.604   2.965  0.8580 -1.6922 -1.2484
10159TIP3    H251893   6.024   4.729   3.050 -1.3054 -0.8713 -2.1397
10160TIP3   OH251894   5.149   6.746  15.156  0.3720 -0.1658 -0.5708
10160TIP3    H151895   5.211   6.782  15.220 -0.9460  0.5747  0.2996
10160TIP3    H251896   5.204   6.694  15.097  2.1685  2.3901 -1.2427
10161TIP3   OH251897   6.488   0.599  13.403 -0.2660  0.1456  0.2031
10161TIP3    H151898   6.508   0.583  13.310  0.5639  2.4119 -0.0418
10161TIP3    H251899   6.396   0.575  13.412 -0.2953 -0.2932 -1.1757
10162TIP3   OH251900   5.704   2.340  13.101 -0.9557 -0.0252 -0.2555
10162TIP3    H151901   5.730   2.388  13.022 -0.7205 -0.0276 -0.1817
10162TIP3    H251902   5.665   2.259  13.068 -0.1647 -0.3703 -0.3609
10163TIP3   OH251903   4.678   6.080  12.021  0.5952 -0.0920 -0.0909
10163TIP3    H151904   4.661   6.042  12.107  1.8398  1.2952  0.7746
10163TIP3    H251905   4.602   6.053  11.968  0.9145 -2.8320  0.7882
10164TIP3   OH251906   2.404   0.131   2.178 -1.3223 -0.9386 -0.4676
10164TIP3    H151907   2.311   0.132   2.198 -1.1692 -0.4846  0.2411
10164TIP3    H251908   2.444   0.187   2.245 -0.7701  0.3669 -1.8420
10165TIP3   OH251909   6.472   4.414   1.270 -0.5102 -0.1074  0.0702
10165TIP3    H151910   6.448   4.493   1.220 -0.6265  0.4194  0.9468
10165TIP3    H251911   6.388   4.375   1.295 -0.4536 -0.0520  0.3470
10166TIP3   OH251912   2.056   4.745  14.630  0.1022  0.7132  0.5119
10166TIP3    H151913   1.994   4.785  14.569  0.4918  1.7781  0.8083
10166TIP3    H251914   2.003   4.722  14.707 -0.1514  0.5196  0.2788
10167TIP3   OH251915   2.236   5.902  13.118  0.2525 -0.2222 -0.0478
10167TIP3    H151916   2.221   5.808  13.108 -2.0180 -0.0012  0.8744
10167TIP3    H251917   2.276   5.911  13.204 -0.6516 -0.2454  0.3764
10168TIP3   OH251918   2.515   2.426   1.784  0.2249 -0.5280  0.1353
10168TIP3    H151919   2.489   2.513   1.755 -0.3585 -1.0533 -0.9413
10168TIP3    H251920   2.610   2.431   1.794  0.5458 -0.5240 -2.5600
10169TIP3   OH251921   4.323   0.828  13.525 -0.1336  0.0273  0.0321
10169TIP3    H151922   4.357   0.817  13.436  1.5877 -0.0151  0.6754
10169TIP3    H251923   4.286   0.916  13.525 -1.2307 -0.4173 -1.0601
10170TIP3   OH251924   3.281   0.194  14.163 -0.1255 -0.5335  0.1888
10170TIP3    H151925   3.372   0.220  14.148  0.2626 -1.5432  0.7308
10170TIP3    H251926   3.235   0.275  14.180  0.6680 -0.0060 -0.1525
10171TIP3   OH251927   1.232   5.094   0.694 -0.0320  0.5355  0.0996
10171TIP3    H151928   1.138   5.099   0.676 -0.0682 -1.7946 -0.5906
10171TIP3    H251929   1.240   5.110   0.788 -1.1658  0.2274  0.2545
10172TIP3   OH251930   3.963   6.455  14.870  0.4754  0.2477  0.6524
10172TIP3    H151931   3.965   6.521  14.940 -0.5693  1.1645 -0.1547
10172TIP3    H251932   3.876   6.415  14.879  0.6456 -0.1744  0.3874
10173TIP3   OH251933   3.328   7.152   1.151 -0.1952 -0.1791 -0.2649
10173TIP3    H151934   3.377   7.074   1.125  0.4688 -0.1985  1.0029
10173TIP3    H251935   3.333   7.210   1.075  2.3465  0.0863  0.0648
10174TIP3   OH251936   5.567   6.713   1.547 -0.7264  0.1134 -0.0503
10174TIP3    H151937   5.649   6.672   1.573 -0.4725 -0.1892 -1.3013
10174TIP3    H251938   5.592   6.800   1.516 -0.6151 -0.6691 -2.2556
10175TIP3   OH251939   2.863   6.093  14.932  0.5713  0.2738 -0.3544
10175TIP3    H151940   2.862   5.998  14.918 -0.0278  0.4483 -1.5603
10175TIP3    H251941   2.781   6.111  14.978  0.4704  0.2722 -0.5364
10176TIP3   OH251942   0.226   5.093   0.842 -0.1414 -0.0351 -0.0334
10176TIP3    H151943   0.260   5.178   0.870 -0.2164 -0.0979  0.2537
10176TIP3    H251944   0.255   5.032   0.910  1.8615 -0.6520 -1.3988
10177TIP3   OH251945   0.415   4.813  13.339  1.1467 -0.1547  0.1519
10177TIP3    H151946   0.371   4.742  13.386  1.6127  0.7429  2.0236
10177TIP3    H251947   0.386   4.893  13.384  1.1498  0.7820 -1.4957
10178TIP3   OH251948   4.482   5.263  15.059  0.1063  0.5142  0.2592
10178TIP3    H151949   4.448   5.352  15.048 -0.4367  0.3086  0.2230
10178TIP3    H251950   4.487   5.251  15.154  0.5011  0.7025  0.2627
10179TIP3   OH251951   1.034   0.747   0.328  0.1780  0.1321  0.8938
10179TIP3    H151952   0.983   0.791   0.260  1.4241 -0.2242 -0.2852
10179TIP3    H251953   0.968   0.719   0.393 -1.0460  0.3053 -0.2504
10180TIP3   OH251954   0.806   5.909  15.699 -0.1198  0.4882  0.8247
10180TIP3    H151955   0.822   5.995  15.660 -0.2077  0.7347  1.3308
10180TIP3    H251956   0.876   5.853  15.663 -0.8457  0.4303 -0.5399
10181TIP3   OH251957   7.089   2.726  15.016 -0.1669 -0.3654 -0.0285
10181TIP3    H151958   7.083   2.764  14.929 -1.5141  0.5414  0.4457
10181TIP3    H251959   7.108   2.633  15.000 -0.4367 -0.2148 -1.2860
10182TIP3   OH251960   0.385   0.970  14.405 -0.4974  0.1051 -0.3840
10182TIP3    H151961   0.360   0.951  14.314  0.5238 -0.2303 -0.5945
10182TIP3    H251962   0.319   0.924  14.457 -0.5112 -0.5238 -0.9448
10183TIP3   OH251963   0.389   5.631  12.930 -0.3697 -0.3126 -0.4447
10183TIP3    H151964   0.477   5.615  12.897 -1.0979 -0.6765 -2.3091
10183TIP3    H251965   0.356   5.703  12.876 -1.1702 -0.1022  0.3100
10184TIP3   OH251966   2.665   2.660   3.243  0.0132  0.2098  0.3009
10184TIP3    H151967   2.624   2.581   3.209 -0.1596  0.9081 -1.1238
10184TIP3    H251968   2.611   2.684   3.318 -0.8557 -0.1435 -0.2060
10185TIP3   OH251969   6.969   0.209  15.434 -0.1638 -0.2843 -0.0162
10185TIP3    H151970   6.920   0.145  15.382  0.5196 -0.0463 -0.9774
10185TIP3    H251971   6.988   0.280  15.372  0.9764 -0.1672  0.4669
10186TIP3   OH251972   0.353   2.835   0.536  0.1203  0.2750 -0.4455
10186TIP3    H151973   0.379   2.905   0.596  1.7234  1.1714 -2.1635
10186TIP3    H251974   0.428   2.777   0.532 -0.9090 -1.1466  0.3330
10187TIP3   OH251975   1.702   2.168   4.828  0.4386 -0.1149  0.2733
10187TIP3    H151976   1.788   2.205   4.846  0.1937  0.9922 -0.7818
10187TIP3    H251977   1.702   2.153   4.734  0.2511 -2.1203  0.5686
10188TIP3   OH251978   6.830   4.720   3.045  0.1578  0.2892 -0.9633
10188TIP3    H151979   6.863   4.788   3.104  0.9605 -1.1874  0.3358
10188TIP3    H251980   6.739   4.744   3.030  0.1904  1.1857  0.1745
10189TIP3   OH251981   6.110   1.231  13.074  0.5376 -0.9393  0.0958
10189TIP3    H151982   6.167   1.277  13.012 -0.8986  1.1233  0.2593
10189TIP3    H251983   6.170   1.191  13.137  1.8853 -0.5912 -0.9479
10190TIP3   OH251984   5.396   1.645   0.259  0.1834  0.4272 -0.1211
10190TIP3    H151985   5.347   1.590   0.198  0.4809 -0.7282  0.6605
10190TIP3    H251986   5.481   1.658   0.216  0.1877  0.1053 -0.2067
10191TIP3   OH251987   4.464   1.767  15.829 -0.1096 -0.1644  0.0170
10191TIP3    H151988   4.505   1.740  15.746  1.4456  0.8781  0.4357
10191TIP3    H251989   4.528   1.744  15.896 -0.2549  1.3362  0.6924
10192TIP3   OH251990   5.201   5.501   3.314  0.6002  0.3785  0.1530
10192TIP3    H151991   5.126   5.559   3.305 -0.5023 -0.9337  0.7170
10192TIP3    H251992   5.194   5.466   3.403  0.1721 -2.0524 -0.7976
10193TIP3   OH251993   6.133   6.249   0.356  0.2916  0.3023 -0.1009
10193TIP3    H151994   6.186   6.323   0.385 -0.4657  1.1874 -0.9468
10193TIP3    H251995   6.187   6.206   0.290  0.9434 -0.2047  0.7513
10194TIP3   OH251996   7.026   5.616   1.322 -0.0716  0.3505  0.2963
10194TIP3    H151997   6.963   5.677   1.284  0.3884  1.1397  0.8083
10194TIP3    H251998   7.109   5.663   1.322 -0.1874  0.6294  2.9129
10195TIP3   OH251999   0.733   5.954  15.967  0.5461  0.8109 -0.2184
10195TIP3    H152000   0.757   5.956  15.875  3.2399  2.0026  0.4461
10195TIP3    H252001   0.767   5.870  15.998  0.5810  0.8735 -0.0874
10196TIP3   OH252002   3.963   4.878  14.724  0.0721  0.1224  0.3037
10196TIP3    H152003   3.908   4.954  14.741 -0.1494 -0.3688  1.8962
10196TIP3    H252004   3.950   4.821  14.800 -0.8396 -2.1595 -1.4689
10197TIP3   OH252005   2.416   1.584  15.166 -0.1236  0.2328  0.0879
10197TIP3    H152006   2.455   1.650  15.224  0.4488  1.0561 -1.2012
10197TIP3    H252007   2.425   1.621  15.078 -0.3194 -1.3156 -0.6062
10198TIP3   OH252008   4.737   7.117   1.623  0.1836 -0.1389 -0.0025
10198TIP3    H152009   4.761   7.201   1.585  3.2561 -0.7229  0.4948
10198TIP3    H252010   4.697   7.068   1.551  1.6600  0.4552 -1.2520
10199TIP3   OH252011   7.209   4.174   1.308  0.4282 -0.8494  0.1379
10199TIP3    H152012   7.231   4.097   1.256  0.7844  1.5096 -3.3250
10199TIP3    H252013   7.125   4.204   1.274  1.5547  1.8172 -0.4686
10200TIP3   OH252014   1.539   6.490   1.438  0.6002 -0.3423 -0.5533
10200TIP3    H152015   1.447   6.467   1.446  0.1169  1.2036 -1.4083
10200TIP3    H252016   1.579   6.458   1.519 -0.9106 -0.0078  0.3440
10201TIP3   OH252017   6.860   0.030   3.397 -0.1764 -0.3011  0.1918
10201TIP3    H152018   6.768   0.054   3.388 -0.4265 -1.2627  0.0870
10201TIP3    H252019   6.891   0.018   3.307 -0.1144 -0.5867  0.2504
10202TIP3   OH252020   6.518   5.995   1.786 -0.1643  0.3904  0.0530
10202TIP3    H152021   6.538   6.012   1.878 -1.6571 -2.6535  1.0115
10202TIP3    H252022   6.601   6.009   1.740  0.8104  1.1130  1.9810
10203TIP3   OH252023   5.255   4.536   1.091 -0.1919  0.3997  0.1031
10203TIP3    H152024   5.208   4.619   1.081  0.0985  0.5577  0.0239
10203TIP3    H252025   5.246   4.514   1.184 -1.3682 -0.1497 -0.1369
10204TIP3   OH252026   5.586   0.883  15.402 -0.7623 -0.7335  0.0533
10204TIP3    H152027   5.558   0.920  15.485 -1.9642  0.6398 -0.9402
10204TIP3    H252028   5.642   0.950  15.363 -0.1868 -1.3758 -0.2338
10205TIP3   OH252029   3.441   6.815  13.209  0.3132 -0.2479 -0.0163
10205TIP3    H152030   3.458   6.749  13.142  0.5440  1.0864 -1.3018
10205TIP3    H252031   3.528   6.851  13.229  0.0663  0.3767 -0.0693
10206TIP3   OH252032   5.509   7.137  15.917  0.3953  0.5056 -0.2177
10206TIP3    H152033   5.495   7.211  15.975  1.3078  0.5250 -0.0092
10206TIP3    H252034   5.535   7.176  15.834  1.8250  0.4127  0.1659
10207TIP3   OH252035   4.463   4.292   1.344  0.2346  0.2715  0.1585
10207TIP3    H152036   4.476   4.387   1.348  1.7425  0.1155 -0.6014
10207TIP3    H252037   4.540   4.260   1.298 -1.5732 -1.0521 -2.0068
10208TIP3   OH252038   5.764   2.820   2.606  0.0397 -0.3225 -0.2882
10208TIP3    H152039   5.751   2.738   2.559  2.4152  0.3413 -2.2381
10208TIP3    H252040   5.688   2.873   2.583 -0.7558 -1.4269 -0.2373
10209TIP3   OH252041   1.878   2.636  14.151 -0.1691 -0.2591  1.2624
10209TIP3    H152042   1.802   2.635  14.209 -1.9699  1.0997 -1.0093
10209TIP3    H252043   1.913   2.725  14.157 -1.6135  0.5247 -1.2556
10210TIP3   OH252044   1.866   0.238   3.685  0.8335  0.3302  0.1850
10210TIP3    H152045   1.788   0.289   3.662 -0.2943 -1.0891  0.7949
10210TIP3    H252046   1.880   0.255   3.778  2.4668  2.1586 -0.3572
10211TIP3   OH252047   5.684   1.268   0.944 -0.3643 -0.4087 -0.1403
10211TIP3    H152048   5.738   1.340   0.978  0.0608  0.2291 -2.1312
10211TIP3    H252049   5.611   1.263   1.005  0.0421  1.1582  0.5142
10212TIP3   OH252050   5.653   2.439  15.954  0.3037  0.1208  0.1678
10212TIP3    H152051   5.634   2.478  15.868  1.6347  0.4789  0.0272
10212TIP3    H252052   5.723   2.376  15.936  1.1185  0.7430  1.1201
10213TIP3   OH252053   0.284   0.057   3.200  0.4533 -0.3849 -0.2478
10213TIP3    H152054   0.307   0.091   3.114  0.2187 -0.0657 -0.1853
10213TIP3    H252055   0.368   0.052   3.247  0.4626  0.2924 -0.1921
10214TIP3   OH252056   6.389   6.823   1.442 -0.1243 -0.7220 -0.1857
10214TIP3    H152057   6.354   6.813   1.530 -0.9402  0.2806 -0.3991
10214TIP3    H252058   6.349   6.903   1.408  1.0512 -0.4804 -1.0523
10215TIP3   OH252059   1.040   3.678  15.214 -0.0365 -0.1601  0.6622
10215TIP3    H152060   1.016   3.713  15.300 -0.2401  0.5284  0.3247
10215TIP3    H252061   1.099   3.744  15.177  1.6519 -1.3885  1.0913
10216TIP3   OH252062   6.471   2.661   1.503 -0.1668 -0.3629 -0.1392
10216TIP3    H152063   6.446   2.753   1.513  1.8994 -0.0386  2.4813
10216TIP3    H252064   6.445   2.620   1.585  1.6630 -1.4729 -0.0997
10217TIP3   OH252065   7.044   4.463   5.089 -0.4660  0.3519 -0.5222
10217TIP3    H152066   6.965   4.485   5.139  0.6557  0.1956  1.3673
10217TIP3    H252067   7.040   4.368   5.078 -0.6550  0.3719 -0.6292
10218TIP3   OH252068   0.672   1.640   1.437 -0.0068  0.0901 -0.4279
10218TIP3    H152069   0.665   1.700   1.511  3.0247  2.2625 -1.8010
10218TIP3    H252070   0.740   1.578   1.462 -0.1781 -0.2123 -0.7059
10219TIP3   OH252071   1.894   1.218   1.766 -0.7441 -0.2071 -0.7978
10219TIP3    H152072   1.956   1.155   1.802  1.1933  3.1263  1.8881
10219TIP3    H252073   1.821   1.218   1.828 -0.9274 -0.0589 -1.0124
10220TIP3   OH252074   7.107   2.170  15.756  0.1973 -0.2149 -0.0506
10220TIP3    H152075   7.028   2.124  15.785  0.6600 -0.3272  1.0250
10220TIP3    H252076   7.174   2.147  15.820  0.6571  1.2917  0.0328
10221TIP3   OH252077   5.789   6.828   0.624 -0.4239 -0.0593 -0.2990
10221TIP3    H152078   5.723   6.894   0.645 -1.6076 -1.5313  0.6711
10221TIP3    H252079   5.754   6.746   0.659  2.0759 -0.8126  0.5324
10222TIP3   OH252080   3.504   0.085  14.459  0.4981 -0.2620  0.6576
10222TIP3    H152081   3.456   0.038  14.391  2.0315 -0.5288 -0.2473
10222TIP3    H252082   3.548   0.016  14.509 -0.0890 -0.0197  1.5108
10223TIP3   OH252083   3.074   4.270   1.588  0.1172  0.5717  0.3825
10223TIP3    H152084   3.086   4.330   1.662 -1.5640  2.7098 -1.0253
10223TIP3    H252085   3.128   4.306   1.518 -0.1670 -0.1046 -0.1923
10224TIP3   OH252086   6.267   2.652   5.498 -0.3006 -0.2117 -0.6109
10224TIP3    H152087   6.297   2.610   5.417 -0.1322  0.6889 -1.0186
10224TIP3    H252088   6.185   2.607   5.519 -0.5823 -0.1500 -1.5358
10225TIP3   OH252089   0.610   4.173   0.602 -0.1815 -0.2771 -0.4750
10225TIP3    H152090   0.617   4.089   0.556 -1.0568  0.1575 -1.4168
10225TIP3    H252091   0.546   4.158   0.671  1.0595 -0.9033  0.5738
10226TIP3   OH252092   2.443   1.119   3.448  0.0659 -0.7987  0.5484
10226TIP3    H152093   2.503   1.047   3.465  1.6929  0.6760  1.2482
10226TIP3    H252094   2.435   1.164   3.532 -1.6144 -0.6495  0.3329
10227TIP3   OH252095   0.894   0.760   3.430 -0.2214  0.9831  0.3109
10227TIP3    H152096   0.869   0.771   3.522 -2.9544  2.1712 -0.5073
10227TIP3    H252097   0.944   0.839   3.409 -0.7737  1.3725  0.4360
10228TIP3   OH252098   4.758   6.180   1.472 -0.1613 -0.0756 -0.1440
10228TIP3    H152099   4.667   6.157   1.451 -0.3603  0.5660 -0.0058
10228TIP3    H252100   4.759   6.183   1.568  0.2022 -0.8551 -0.1216
10229TIP3   OH252101   6.714   1.345   0.197  0.6015  0.0072  0.7823
10229TIP3    H152102   6.737   1.432   0.163 -3.7782  0.9617 -0.0445
10229TIP3    H252103   6.653   1.310   0.132  0.9766 -2.9826  2.0005
10230TIP3   OH252104   5.337   0.863   0.737  0.2683 -0.0571  0.2370
10230TIP3    H152105   5.385   0.945   0.750  0.2033  0.2208 -1.1999
10230TIP3    H252106   5.404   0.800   0.710 -0.0165  0.1103 -0.9043
10231TIP3   OH252107   1.595   3.101  13.564  0.3183 -0.6631  0.2503
10231TIP3    H152108   1.537   3.085  13.490  1.0874  1.4879 -0.8764
10231TIP3    H252109   1.549   3.165  13.618  0.0485 -1.7241  1.2829
10232TIP3   OH252110   1.929   1.959   0.369 -0.3667  0.0183  0.8734
10232TIP3    H152111   1.949   1.906   0.446  0.6831  0.0065  0.6043
10232TIP3    H252112   1.929   1.896   0.297 -2.3005 -0.1294  0.9870
10233TIP3   OH252113   1.588   7.249   5.474  0.1546 -0.0612 -0.0732
10233TIP3    H152114   1.584   7.239   5.379 -0.5142  1.8767 -0.2655
10233TIP3    H252115   1.680   7.266   5.493  0.2598 -0.2817 -0.3839
10234TIP3   OH252116   6.211   2.929  13.472 -0.0223 -0.0027  0.1150
10234TIP3    H152117   6.228   2.838  13.451 -0.6944 -0.0550 -0.2428
10234TIP3    H252118   6.138   2.953  13.415  0.6390  0.9760 -0.3335
10235TIP3   OH252119   6.099   1.656   2.070  0.0636  0.2951  0.1282
10235TIP3    H152120   6.058   1.596   2.008  0.5124  2.2569 -2.1594
10235TIP3    H252121   6.039   1.731   2.073  2.1236  2.0883 -1.2967
10236TIP3   OH252122   6.167   3.286   2.678 -0.4194 -0.6465 -0.3740
10236TIP3    H152123   6.088   3.340   2.677 -1.3858 -1.9581  1.8554
10236TIP3    H252124   6.143   3.208   2.628 -0.8550 -1.4204  1.0035
10237TIP3   OH252125   6.525   0.070   3.388 -0.3318 -0.8938  0.3039
10237TIP3    H152126   6.495   0.151   3.346  0.6755 -0.4142  0.4805
10237TIP3    H252127   6.477   0.068   3.471 -1.8602 -1.5256 -0.5786
10238TIP3   OH252128   3.165   2.208   1.416  0.4191  0.0500  0.1610
10238TIP3    H152129   3.161   2.113   1.403  1.2720  0.1026 -0.5466
10238TIP3    H252130   3.150   2.244   1.329 -1.3140  0.6078  0.6763
10239TIP3   OH252131   1.517   2.072   2.350 -0.8532 -0.3404 -0.3319
10239TIP3    H152132   1.611   2.066   2.337 -0.4102  1.4849  1.6937
10239TIP3    H252133   1.500   2.019   2.429 -1.2832  0.5077  0.1579
10240TIP3   OH252134   6.657   1.328   0.951  0.2546 -0.8462  0.6249
10240TIP3    H152135   6.682   1.242   0.984  1.8969 -0.0360  1.5303
10240TIP3    H252136   6.675   1.388   1.024 -3.9141 -0.1091  1.2215
10241TIP3   OH252137   4.436   3.485   0.167 -0.0812 -0.2095 -0.2519
10241TIP3    H152138   4.427   3.573   0.204  2.0911  0.2394 -0.7545
10241TIP3    H252139   4.529   3.476   0.148 -0.1995 -2.7885  0.1781
10242TIP3   OH252140   3.389   1.575   1.844 -0.1988  0.0592  0.7361
10242TIP3    H152141   3.296   1.556   1.829  0.0555 -0.5506 -0.1014
10242TIP3    H252142   3.417   1.509   1.907 -0.1128 -0.3294  0.2938
10243TIP3   OH252143   5.806   4.886   3.076 -0.3297 -0.1973 -0.1828
10243TIP3    H152144   5.727   4.929   3.109 -0.8621 -0.1300 -1.5012
10243TIP3    H252145   5.775   4.805   3.036  0.1159  0.3097 -1.6058
10244TIP3   OH252146   5.861   5.600   0.749 -0.1442  0.3209 -0.2760
10244TIP3    H152147   5.917   5.669   0.786  1.3843 -0.6430 -0.7741
10244TIP3    H252148   5.828   5.554   0.826  0.1608  0.5658  0.0073
10245TIP3   OH252149   6.767   2.161   1.649  0.5705 -0.6375 -0.3086
10245TIP3    H152150   6.699   2.093   1.648  0.1954 -0.2586 -0.4844
10245TIP3    H252151   6.728   2.235   1.601  2.1415 -1.4243 -2.9347
10246TIP3   OH252152   6.790   2.787   1.077  0.8520 -0.6580  0.7319
10246TIP3    H152153   6.717   2.801   1.137 -0.9578  2.2245 -2.0033
10246TIP3    H252154   6.837   2.870   1.075  2.4508 -1.5416  0.1640
10247TIP3   OH252155   1.960   2.943  14.811 -0.0852  0.2754  0.2536
10247TIP3    H152156   2.016   3.018  14.831  0.1668  0.0668  0.3380
10247TIP3    H252157   1.975   2.882  14.883  1.5202 -0.8709 -0.9926
10248TIP3   OH252158   2.745   4.433   1.420 -0.2662 -0.3803  0.5004
10248TIP3    H152159   2.803   4.388   1.483  1.1617  1.1508  0.3050
10248TIP3    H252160   2.792   4.513   1.397 -2.3014  0.7098  0.0197
10249TIP3   OH252161   0.268   6.466   1.015 -0.2002  0.3277 -0.0441
10249TIP3    H152162   0.287   6.430   0.928 -0.4158 -0.2772  0.1566
10249TIP3    H252163   0.179   6.438   1.034 -0.0123  0.1183  0.5463
10250TIP3   OH252164   6.840   6.893   4.124 -0.7412 -0.0032 -0.2683
10250TIP3    H152165   6.868   6.984   4.117 -1.6748  0.2696 -0.5754
10250TIP3    H252166   6.838   6.875   4.217 -1.4840  0.5881 -0.1686
10251TIP3   OH252167   0.879   5.990   1.176 -0.0379 -0.1527  0.2387
10251TIP3    H152168   0.866   5.904   1.135 -1.3400 -0.2245  0.7492
10251TIP3    H252169   0.815   6.047   1.134  0.2362  0.3582  0.5090
10252TIP3   OH252170   1.681   6.114   3.378  0.6148  0.7996  0.4872
10252TIP3    H152171   1.625   6.102   3.454 -2.0454  0.2148 -1.5015
10252TIP3    H252172   1.634   6.176   3.322  1.7181 -0.0177 -1.4071
10253TIP3   OH252173   2.555   1.858   1.276  0.2473  0.0160 -0.4860
10253TIP3    H152174   2.589   1.947   1.291 -0.5677  0.2315  0.1038
10253TIP3    H252175   2.467   1.860   1.312  0.3730 -1.1651 -0.1076
10254TIP3   OH252176   6.314   0.699   2.422 -0.6097 -0.5748  0.3631
10254TIP3    H152177   6.263   0.719   2.344  0.3035 -0.8494 -0.3088
10254TIP3    H252178   6.349   0.611   2.406  0.2832 -0.2873  0.7062
10255TIP3   OH252179   5.678   4.755   0.456  0.0527  0.4151  0.1036
10255TIP3    H152180   5.701   4.777   0.365 -0.3129  0.7559  0.0901
10255TIP3    H252181   5.684   4.660   0.460 -1.4543  0.2670 -0.7025
10256TIP3   OH252182   0.066   3.085   0.630 -0.2855 -0.2243  0.0972
10256TIP3    H152183   0.091   3.100   0.721  1.0007  2.1292 -0.6055
10256TIP3    H252184  -0.024   3.052   0.636 -0.4759  0.5426  2.1956
10257TIP3   OH252185   1.811   4.700   1.312 -0.2565 -0.0155  0.1616
10257TIP3    H152186   1.734   4.754   1.294 -0.5949 -0.7699 -0.7594
10257TIP3    H252187   1.785   4.645   1.386 -0.3127  0.3093  0.3807
10258TIP3   OH252188   2.864   2.776  11.711  0.5568  0.1425  0.2598
10258TIP3    H152189   2.910   2.735  11.637 -0.8516  1.1776 -1.2292
10258TIP3    H252190   2.792   2.823  11.670  2.2487  4.3074  1.8594
10259TIP3   OH252191   6.016   3.407  15.965 -0.0860 -0.1633  0.3623
10259TIP3    H152192   5.998   3.486  15.914 -0.1111  0.2423  0.9869
10259TIP3    H252193   6.072   3.354  15.909  3.4139  2.1637  1.4784
10260TIP3   OH252194   0.707   4.747  15.775  0.2231  0.3022  0.3900
10260TIP3    H152195   0.773   4.697  15.727 -1.1296 -0.6033 -0.5705
10260TIP3    H252196   0.686   4.692  15.850 -0.2953  0.0299  0.0509
10261TIP3   OH252197   0.868   1.923   0.609 -0.2089  0.2616 -0.3735
10261TIP3    H152198   0.963   1.917   0.616  0.2165  1.7550 -3.8601
10261TIP3    H252199   0.842   1.982   0.680  1.6645  1.0078 -0.2922
10262TIP3   OH252200   5.198   1.723  15.400  0.1424  0.4202 -0.0758
10262TIP3    H152201   5.208   1.714  15.495 -0.7725  4.4153  0.4785
10262TIP3    H252202   5.237   1.808  15.380 -2.0417  0.8116 -2.8942
10263TIP3   OH252203   1.207   6.650   0.800 -0.4828  0.3835 -0.3057
10263TIP3    H152204   1.158   6.656   0.718 -0.9258  0.1797 -0.0529
10263TIP3    H252205   1.168   6.577   0.847  0.9351 -0.6390 -0.6825
10264TIP3   OH252206   0.514   4.233  14.403 -0.4068  0.3693  0.4766
10264TIP3    H152207   0.465   4.273  14.475 -0.7865  1.1326 -0.1923
10264TIP3    H252208   0.482   4.278  14.325  3.0293  2.5094  0.2347
10265TIP3   OH252209   3.637   0.173   1.862 -0.0908  0.1511  0.1264
10265TIP3    H152210   3.578   0.235   1.818  0.2040 -0.8931 -1.8304
10265TIP3    H252211   3.714   0.169   1.804 -0.1638 -2.1027  0.1460
10266TIP3   OH252212   2.615   1.296   3.063  0.2324  0.2521 -0.3564
10266TIP3    H152213   2.626   1.386   3.094  0.4763  0.3626 -0.7557
10266TIP3    H252214   2.602   1.304   2.968 -2.4837  0.0465 -0.0314
10267TIP3   OH252215   6.888   0.661   4.229  0.1097  0.7790 -0.1430
10267TIP3    H152216   6.825   0.608   4.278 -0.7013  0.6045 -1.3422
10267TIP3    H252217   6.855   0.660   4.139 -0.0092  3.4208 -0.1825
10268TIP3   OH252218   0.415   3.112  14.439 -0.2580  0.3390  0.2977
10268TIP3    H152219   0.481   3.155  14.493 -0.6118  0.1820  0.8534
10268TIP3    H252220   0.382   3.041  14.493 -2.5048  1.7913  0.9168
10269TIP3   OH252221   5.438   1.633  15.093 -0.1431 -0.2289 -0.0970
10269TIP3    H152222   5.480   1.625  15.008  0.0534  0.0144 -0.0238
10269TIP3    H252223   5.430   1.544  15.125 -0.0834 -0.3087 -0.3073
10270TIP3   OH252224   1.469   7.113   3.377 -0.3872  0.0683 -0.2298
10270TIP3    H152225   1.532   7.087   3.444  0.5555 -0.4042 -1.2688
10270TIP3    H252226   1.519   7.170   3.318 -1.0068 -0.0540 -0.8859
10271TIP3   OH252227   6.907   1.735   2.510 -0.6461 -0.3192 -0.2168
10271TIP3    H152228   6.950   1.651   2.527  0.0287 -0.3303 -1.8931
10271TIP3    H252229   6.871   1.761   2.595  3.1264 -0.0497  1.4300
10272TIP3   OH252230   7.001   1.008   1.340 -0.0290 -0.2272  0.0866
10272TIP3    H152231   7.087   1.038   1.368  0.0245 -0.5863  0.3055
10272TIP3    H252232   7.018   0.941   1.275 -0.1182 -1.2278  1.0735
10273TIP3   OH252233   1.114   1.821   1.900  0.5730 -0.5048 -0.5547
10273TIP3    H152234   1.096   1.755   1.966  0.3214 -0.3897 -0.5071
10273TIP3    H252235   1.179   1.879   1.940  0.3933 -0.4138 -0.3956
10274TIP3   OH252236   5.714   1.960   2.705  0.5176 -0.5314 -0.0625
10274TIP3    H152237   5.639   1.912   2.670  1.6403 -1.0455 -1.8338
10274TIP3    H252238   5.700   2.050   2.679  0.2007 -0.5116  0.1693
10275TIP3   OH252239   2.018   6.233  15.235 -0.2420  0.4900  0.3322
10275TIP3    H152240   1.967   6.226  15.316 -1.4850 -1.7132 -0.6032
10275TIP3    H252241   2.045   6.143  15.216  2.3048  1.3467 -0.2958
10276TIP3   OH252242   6.516   0.425   0.039  0.2879  0.4250  0.0777
10276TIP3    H152243   6.563   0.452   0.117  0.8012  0.8066 -0.3608
10276TIP3    H252244   6.537   0.332   0.029  1.6044  0.7861 -0.5726
10277TIP3   OH252245   0.236   5.011  13.535  0.6318 -0.5436  0.0819
10277TIP3    H152246   0.141   5.015  13.529  0.6302 -0.0076  0.3649
10277TIP3    H252247   0.254   4.953  13.608  0.4925  0.4365  0.9116
10278TIP3   OH252248   4.761   7.241   2.009  0.1789  0.1417 -0.0130
10278TIP3    H152249   4.800   7.278   1.929  1.0829 -2.6300 -0.9158
10278TIP3    H252250   4.815   7.276   2.080 -0.6353  2.6376 -0.5704
10279TIP3   OH252251   1.715   0.497   1.436  0.5507 -0.2341  0.1557
10279TIP3    H152252   1.711   0.416   1.385  1.3414 -0.7225  0.8553
10279TIP3    H252253   1.801   0.534   1.415  0.0809  0.5823 -0.3777
10280TIP3   OH252254   6.291   7.108  15.916 -0.2959  0.7270  0.2456
10280TIP3    H152255   6.295   7.043  15.987 -2.2013 -0.0005 -0.2808
10280TIP3    H252256   6.288   7.056  15.836  0.0862  1.5066 -0.2731
10281TIP3   OH252257   4.377   2.934  15.828 -0.0024  0.2095 -0.1988
10281TIP3    H152258   4.465   2.972  15.828 -0.0712  0.3643 -0.4275
10281TIP3    H252259   4.350   2.934  15.737 -0.7498  1.3132  0.0213
10282TIP3   OH252260   3.970   5.117   1.273 -0.6290  0.2059 -0.3070
10282TIP3    H152261   3.910   5.191   1.268 -0.6129  0.1513 -1.4465
10282TIP3    H252262   3.916   5.040   1.255 -0.4546  0.0437 -0.1412
10283TIP3   OH252263   1.116   4.144   1.466  0.0836  0.4165  0.2779
10283TIP3    H152264   1.102   4.094   1.547  1.6971  0.1812  0.4226
10283TIP3    H252265   1.150   4.228   1.496 -0.8350  0.9235 -0.0805
10284TIP3   OH252266   1.934   2.373   1.369 -0.4720  0.1475 -0.2219
10284TIP3    H152267   1.882   2.441   1.413  0.0105  0.3113  0.1042
10284TIP3    H252268   1.967   2.319   1.441 -0.4758 -0.1598 -0.4512
10285TIP3   OH252269   0.309   0.892  15.259  0.0325 -0.4224 -0.1890
10285TIP3    H152270   0.274   0.808  15.229 -0.0607 -0.0812 -1.0601
10285TIP3    H252271   0.403   0.878  15.265 -0.0174 -0.6850 -0.0189
10286TIP3   OH252272   0.897   6.307   2.272  0.1022  0.5421  0.0440
10286TIP3    H152273   0.952   6.240   2.231  1.4305  1.0772  0.9125
10286TIP3    H252274   0.885   6.373   2.204  0.6101  0.4671 -0.1221
10287TIP3   OH252275   2.097   4.305   0.734  0.1187  0.4385 -0.3841
10287TIP3    H152276   2.150   4.368   0.685 -0.0896 -0.0237 -1.2117
10287TIP3    H252277   2.145   4.293   0.817 -0.4560  2.5770  0.2956
10288TIP3   OH252278   3.020   2.238   0.657 -0.2350  0.0230 -0.0464
10288TIP3    H152279   3.073   2.309   0.693  0.3921 -0.5330  0.1365
10288TIP3    H252280   3.083   2.182   0.611 -0.5972 -0.8827  0.5527
10289TIP3   OH252281   1.361   3.160   3.403 -0.4594 -0.4036 -0.2511
10289TIP3    H152282   1.303   3.086   3.422 -1.1513  0.4050  0.7690
10289TIP3    H252283   1.304   3.227   3.365 -0.1422  0.2917  0.5024
10290TIP3   OH252284   6.499   3.491  14.438  0.2862 -0.1818 -0.3650
10290TIP3    H152285   6.435   3.494  14.367  0.1625 -1.5611 -0.3196
10290TIP3    H252286   6.571   3.438  14.402  1.2958  1.1514 -0.3340
10291TIP3   OH252287   1.947   6.633   3.745  0.4332 -0.7195  0.1654
10291TIP3    H152288   1.924   6.725   3.753  0.2277 -0.7012 -0.6167
10291TIP3    H252289   2.041   6.630   3.761  0.7599 -0.1290 -1.6428
10292TIP3   OH252290   2.071   5.824  14.156  0.0729  0.5392  0.4509
10292TIP3    H152291   2.014   5.748  14.146  1.2475  0.0218 -2.8256
10292TIP3    H252292   2.017   5.898  14.125  0.2680  0.4341 -0.1512
10293TIP3   OH252293   1.803   1.217   2.191 -0.0673 -0.4397  0.6890
10293TIP3    H152294   1.844   1.303   2.189 -1.5941  0.2666 -2.5651
10293TIP3    H252295   1.750   1.217   2.271  0.2445  1.4549  0.9044
10294TIP3   OH252296   1.278   0.146   0.747 -0.6896 -0.5159  0.3109
10294TIP3    H152297   1.240   0.071   0.702  0.5836 -0.9584 -0.0395
10294TIP3    H252298   1.292   0.116   0.837 -1.6881 -0.1680  0.5870
10295TIP3   OH252299   4.886   6.288   3.632  0.2801 -0.3345 -0.0929
10295TIP3    H152300   4.908   6.381   3.641 -0.0919 -0.5220  3.5502
10295TIP3    H252301   4.971   6.244   3.626  0.5269  0.0784  0.3076
10296TIP3   OH252302   4.182   4.032  15.408 -0.3754 -0.1244 -0.1952
10296TIP3    H152303   4.260   4.016  15.354 -0.6095 -2.7903  0.2030
10296TIP3    H252304   4.216   4.074  15.487  0.3851  0.5703 -0.8717
10297TIP3   OH252305   0.700   3.002   0.356  0.5692 -0.1240  0.4205
10297TIP3    H152306   0.724   3.068   0.421  1.0044  0.0195  0.1201
10297TIP3    H252307   0.621   3.037   0.315  1.4365  0.7940 -0.5353
10298TIP3   OH252308   4.418   2.216   1.171  0.0820 -0.7434  0.1978
10298TIP3    H152309   4.461   2.131   1.183 -0.9858 -1.2934  0.2935
10298TIP3    H252310   4.332   2.204   1.211 -0.8809 -0.3021 -1.6518
10299TIP3   OH252311   1.774   2.476  13.952  0.4547  0.4318  0.5230
10299TIP3    H152312   1.806   2.534  14.022 -0.2840  1.1550  0.2605
10299TIP3    H252313   1.804   2.518  13.871 -1.6144  1.4105  0.2416
10300TIP3   OH252314   1.945   1.972  15.045  1.0408  0.1400  0.1487
10300TIP3    H152315   1.930   1.881  15.022 -1.3734  0.5703 -0.0488
10300TIP3    H252316   1.914   1.980  15.136  0.5043  0.9393 -0.0984
10301TIP3   OH252317   2.468   1.875   0.286 -0.2600  0.2215 -0.2492
10301TIP3    H152318   2.431   1.841   0.367 -3.2712  1.6042 -0.9505
10301TIP3    H252319   2.446   1.968   0.286  1.1076  0.5836 -1.8987
10302TIP3   OH252320   1.265   3.470  14.008 -0.1822 -0.2354  0.1008
10302TIP3    H152321   1.233   3.458  13.919 -0.1576 -0.9706  0.1876
10302TIP3    H252322   1.359   3.452  14.003 -0.1007  0.1733  0.1845
10303TIP3   OH252323   0.354   7.168   2.587 -0.2570  0.0285  0.0213
10303TIP3    H152324   0.364   7.078   2.557 -2.7922  0.4235 -2.1625
10303TIP3    H252325   0.264   7.173   2.619  0.3681  1.3732  1.6760
10304TIP3   OH252326   5.508   5.537   0.398 -0.2598  0.1305  0.4623
10304TIP3    H152327   5.420   5.510   0.425 -0.7620 -0.4713 -1.6848
10304TIP3    H252328   5.551   5.563   0.479 -1.6620 -1.7594  1.8663
10305TIP3   OH252329   1.053   1.379   4.133 -0.2009  0.2852 -0.5978
10305TIP3    H152330   1.056   1.285   4.153 -0.9394  0.4244  0.2390
10305TIP3    H252331   1.129   1.415   4.178  0.4523  0.0024 -1.4568
10306TIP3   OH252332   5.870   1.368   0.647  0.1787 -0.0646  0.3742
10306TIP3    H152333   5.896   1.448   0.691 -0.5204  0.0304  0.6112
10306TIP3    H252334   5.906   1.297   0.701 -2.1039  0.0046  2.0218
10307TIP3   OH252335   2.899   1.606   0.241  0.6389  0.2705  0.3879
10307TIP3    H152336   2.911   1.513   0.225 -3.4485 -0.1236 -0.8770
10307TIP3    H252337   2.880   1.613   0.334 -1.0382 -0.4062  0.0994
10308TIP3   OH252338   3.362   0.597   2.464  0.1390 -0.0030  0.0369
10308TIP3    H152339   3.356   0.631   2.554  0.7133 -0.8707  0.4100
10308TIP3    H252340   3.379   0.674   2.410  1.6482  0.2797  0.8944
10309TIP3   OH252341   1.757   3.751  15.953 -0.5685 -0.0822  0.2552
10309TIP3    H152342   1.766   3.738  16.047 -0.8922 -1.7543  0.0593
10309TIP3    H252343   1.664   3.739  15.935 -0.6351  0.9834 -0.1788
10310TIP3   OH252344   2.846   0.810  15.882 -0.6548  0.3026 -0.2466
10310TIP3    H152345   2.925   0.765  15.913 -0.0909  1.7899  0.5785
10310TIP3    H252346   2.787   0.807  15.957 -1.2865 -0.5847 -0.7796
10311TIP3   OH252347   2.362   4.385   1.491  0.5958 -0.2042  0.0026
10311TIP3    H152348   2.404   4.464   1.457 -0.2274  0.0932 -0.3532
10311TIP3    H252349   2.396   4.314   1.437  1.2070 -0.0724  0.2116
10312TIP3   OH252350   2.002   0.448  15.786  0.0289  0.5519  0.2130
10312TIP3    H152351   1.931   0.504  15.817  0.6053  0.6646  1.3519
10312TIP3    H252352   2.009   0.380  15.852  0.4527  0.0884 -0.3063
10313TIP3   OH252353   4.280   3.138  13.559  0.6066  0.1393  0.4668
10313TIP3    H152354   4.288   3.233  13.563  0.3465  0.2034 -0.4239
10313TIP3    H252355   4.289   3.117  13.466 -1.4592 -0.5308  0.4051
10314TIP3   OH252356   6.250   0.524   0.469 -0.1737 -0.5213  0.4904
10314TIP3    H152357   6.176   0.463   0.467 -0.6767  0.0597  1.1417
10314TIP3    H252358   6.233   0.579   0.545  1.4287 -1.0093  1.2272
10315TIP3   OH252359   6.190   2.738   3.628 -0.2429 -0.2541 -0.2322
10315TIP3    H152360   6.256   2.720   3.695 -0.3819  0.1625  0.0153
10315TIP3    H252361   6.139   2.656   3.622  0.1816 -0.5134 -0.2973
10316TIP3   OH252362   3.643   2.037  14.627  0.0172 -0.5205  0.0871
10316TIP3    H152363   3.671   2.125  14.652 -0.0587 -0.9340  1.6701
10316TIP3    H252364   3.725   1.989  14.612  0.0630 -0.3352 -0.2782
10317TIP3   OH252365   6.551   6.058   2.051 -0.5382  0.4707  0.0168
10317TIP3    H152366   6.614   6.129   2.042 -0.8939  0.6163 -1.4516
10317TIP3    H252367   6.577   6.013   2.131  0.7721  1.1795  0.0060
10318TIP3   OH252368   2.293   3.226  14.460 -0.1371  0.5540 -0.0038
10318TIP3    H152369   2.287   3.147  14.407 -1.2291 -0.5682  1.7352
10318TIP3    H252370   2.209   3.231  14.505  0.5304  1.7909  1.1492
10319TIP3   OH252371   0.493   3.108   0.569 -0.1948  0.3714  0.2115
10319TIP3    H152372   0.417   3.141   0.520 -0.5819 -1.3236 -0.3458
10319TIP3    H252373   0.508   3.175   0.636 -1.0218  1.6411 -0.8375
10320TIP3   OH252374   6.896   2.539   1.108 -0.0801 -0.1717  0.3767
10320TIP3    H152375   6.882   2.525   1.202 -0.1464 -0.2944  0.3485
10320TIP3    H252376   6.843   2.616   1.088 -0.3932 -0.3928  0.3543
10321TIP3   OH252377   2.056   6.843   2.100  0.0508  0.3422 -0.4037
10321TIP3    H152378   2.086   6.756   2.073  0.8010  1.2062 -2.4015
10321TIP3    H252379   2.002   6.826   2.178 -0.5606 -2.0036 -1.2980
10322TIP3   OH252380   6.775   4.353   2.617  0.2591 -0.0007  1.0174
10322TIP3    H152381   6.773   4.442   2.651 -0.6434  0.5357 -0.3788
10322TIP3    H252382   6.803   4.362   2.526  1.8827 -1.3328  1.3597
10323TIP3   OH252383   4.914   4.434   0.466 -0.1875 -0.3956  0.2401
10323TIP3    H152384   4.867   4.518   0.472  1.1971  0.1550  4.8903
10323TIP3    H252385   5.003   4.459   0.443 -1.0568 -1.1612 -4.4695
10324TIP3   OH252386   7.152   6.142   2.508  0.3805 -0.2713  0.4491
10324TIP3    H152387   7.240   6.177   2.497  0.2736 -0.0131  0.4221
10324TIP3    H252388   7.160   6.075   2.576  0.8013 -0.9832 -0.2865
10325TIP3   OH252389   0.907   0.538   2.335  0.4723  0.1509 -0.3736
10325TIP3    H152390   0.888   0.631   2.345  0.2282 -0.0252  0.9660
10325TIP3    H252391   0.944   0.530   2.247  0.3085  1.4789 -0.5733
10326TIP3   OH252392   2.032   6.928   0.223  0.2470  0.4217 -0.1149
10326TIP3    H152393   1.998   6.842   0.200  0.4589  0.1173  0.6795
10326TIP3    H252394   2.125   6.913   0.241  0.6093  1.0720 -1.3475
10327TIP3   OH252395   1.668   1.672   0.104 -0.1645  0.5861  0.0880
10327TIP3    H152396   1.725   1.748   0.109  0.0644  0.4565 -0.5186
10327TIP3    H252397   1.717   1.608   0.052 -0.2794 -0.0395  0.7415
10328TIP3   OH252398   6.464   0.251   3.197 -1.1098  0.3825 -0.7089
10328TIP3    H152399   6.513   0.269   3.117 -0.9789  0.3501 -0.6367
10328TIP3    H252400   6.372   0.263   3.173 -1.0703  0.3544 -0.8678
10329TIP3   OH252401   2.936   6.790   0.127  0.1882  0.3066  0.3001
10329TIP3    H152402   3.015   6.837   0.101  1.2487 -1.3903  0.3225
10329TIP3    H252403   2.915   6.736   0.051 -0.3172 -0.0600  0.6964
10330TIP3   OH252404   2.219   5.593  15.123  0.5258 -0.1680  0.6825
10330TIP3    H152405   2.237   5.540  15.045 -0.0170  1.1817 -0.3823
10330TIP3    H252406   2.305   5.610  15.161  0.9181  0.3513 -0.4189
10331TIP3   OH252407   2.998   4.960   0.711 -0.5650 -0.2676  0.4743
10331TIP3    H152408   3.017   4.879   0.663  1.0676 -0.0258  0.6979
10331TIP3    H252409   3.039   4.947   0.797  0.3209  1.0868  0.2618
10332TIP3   OH252410   1.203   3.706  13.709  0.0314 -0.0397  0.2944
10332TIP3    H152411   1.197   3.623  13.661  0.4444 -0.5906  1.1738
10332TIP3    H252412   1.115   3.721  13.742  0.1215 -0.5368  0.7808
10333TIP3   OH252413   1.475   1.673   2.291  0.2672 -0.0816  0.2881
10333TIP3    H152414   1.446   1.749   2.340 -0.2075  1.1274 -1.8180
10333TIP3    H252415   1.545   1.635   2.345  0.0530  1.4278  1.6615
10334TIP3   OH252416   7.166   3.130  13.629  0.3366  0.4200 -0.3241
10334TIP3    H152417   7.176   3.036  13.644  0.1832  0.1673 -1.8095
10334TIP3    H252418   7.255   3.165  13.634  0.2463  0.4419  1.7231
10335TIP3   OH252419   4.226   0.444   2.639  0.3842  0.7046 -0.7445
10335TIP3    H152420   4.158   0.434   2.573 -0.3809  0.5863  0.0482
10335TIP3    H252421   4.305   0.468   2.590  0.1231 -0.5753 -1.8069
10336TIP3   OH252422   1.484   1.996  15.641  0.3324  0.5854  0.1322
10336TIP3    H152423   1.458   1.974  15.552 -0.1691 -0.2328  0.4786
10336TIP3    H252424   1.533   2.078  15.632 -1.0190  1.3033 -0.7086
10337TIP3   OH252425   4.928   1.923  13.252  0.1641  0.5926  0.3950
10337TIP3    H152426   4.946   1.995  13.312 -1.2022  1.3689 -0.1001
10337TIP3    H252427   4.840   1.942  13.218 -0.3428 -1.4816  0.5057
10338TIP3   OH252428   1.670   2.727   0.177  0.0887  0.5767 -0.6245
10338TIP3    H152429   1.678   2.823   0.176  1.5356  0.4541 -0.9152
10338TIP3    H252430   1.745   2.697   0.228  0.1088 -0.4579 -1.2623
10339TIP3   OH252431   7.190   3.550  15.192 -0.5517  0.6554  0.1813
10339TIP3    H152432   7.097   3.533  15.205 -0.6041  0.5168 -0.3619
10339TIP3    H252433   7.229   3.545  15.280 -0.3168 -3.6117 -0.0849
10340TIP3   OH252434   3.101   1.595   2.062 -0.0747  0.3551 -0.0056
10340TIP3    H152435   3.165   1.666   2.060  0.7686 -0.3333  1.3588
10340TIP3    H252436   3.097   1.571   2.155  0.1700 -1.8405 -0.5502
10341TIP3   OH252437   6.076   2.951   1.942 -0.5016 -0.0179  0.5527
10341TIP3    H152438   6.123   2.926   1.862 -1.1533 -0.5504  0.3355
10341TIP3    H252439   6.037   3.036   1.920  2.4312  1.7020  1.5865
10342TIP3   OH252440   1.860   2.066   1.832 -0.4257  0.0850  0.6836
10342TIP3    H152441   1.795   2.040   1.767 -0.7341  0.9311  0.6474
10342TIP3    H252442   1.863   2.161   1.826  1.8454 -0.0326 -0.2973
10343TIP3   OH252443   0.573   5.782   0.981 -0.2334  0.0575 -0.1956
10343TIP3    H152444   0.659   5.818   0.964  0.1213 -0.5535  0.2802
10343TIP3    H252445   0.584   5.728   1.060 -1.0944  0.1675  0.0101
10344TIP3   OH252446   5.337   2.576   0.924 -0.4050  0.4025  0.0548
10344TIP3    H152447   5.254   2.562   0.878 -0.1043  0.7438 -0.5970
10344TIP3    H252448   5.401   2.592   0.854  0.0886  0.7607  0.5806
10345TIP3   OH252449   7.023   6.246   1.509 -0.1242 -0.2968 -0.0086
10345TIP3    H152450   7.029   6.186   1.583 -0.0359 -1.1250 -0.6834
10345TIP3    H252451   7.110   6.246   1.469 -0.7168 -1.4419 -1.3370
10346TIP3   OH252452   6.316   3.737  14.192  0.4869  0.2220  0.3729
10346TIP3    H152453   6.395   3.756  14.142  1.6594 -0.7277  1.8423
10346TIP3    H252454   6.331   3.777  14.277 -1.1140  1.0466  0.2827
10347TIP3   OH252455   5.211   5.743   1.161  0.5418  0.3167  0.2095
10347TIP3    H152456   5.154   5.808   1.203  1.6199  0.7855  0.9793
10347TIP3    H252457   5.299   5.775   1.179  1.1263 -2.0794  1.7830
10348TIP3   OH252458   2.528   0.249   2.394 -0.6134  0.0246  0.0792
10348TIP3    H152459   2.592   0.316   2.368 -1.8418  1.2145  0.0656
10348TIP3    H252460   2.545   0.234   2.487  2.1068 -2.3806 -0.7166
10349TIP3   OH252461   7.070   0.966   0.600  0.2271 -0.1119 -0.7742
10349TIP3    H152462   6.994   0.915   0.570  0.1930  0.2393 -1.2959
10349TIP3    H252463   7.045   1.000   0.686 -0.2296  0.0537 -0.9728
10350TIP3   OH252464   2.058   5.810  14.829 -0.0816 -0.3545  0.4234
10350TIP3    H152465   2.004   5.889  14.836 -0.3276 -0.5266  0.4788
10350TIP3    H252466   2.006   5.751  14.774  0.9544  0.2405 -1.2113
10351TIP3   OH252467   0.599   1.995   1.963 -0.1632  0.1937 -0.1311
10351TIP3    H152468   0.631   2.082   1.983 -1.0111  1.1221 -2.5260
10351TIP3    H252469   0.590   1.995   1.867 -0.3878 -2.4368 -0.1398
10352TIP3   OH252470   3.434   3.037   3.751 -0.2667  0.2717 -0.0655
10352TIP3    H152471   3.434   3.128   3.780  2.4232 -0.0010  0.9916
10352TIP3    H252472   3.464   2.988   3.827 -0.2470 -1.3196 -1.0728
10353TIP3   OH252473   6.454   1.665   3.605  0.3516  0.7894  0.1218
10353TIP3    H152474   6.535   1.702   3.568  0.7580 -0.6139 -0.4357
10353TIP3    H252475   6.479   1.577   3.635 -1.0975  0.1121 -0.5964
10354TIP3   OH252476   0.769   5.993   4.038  0.3969 -0.7503 -0.4898
10354TIP3    H152477   0.752   6.033   4.123 -1.4477 -0.8272 -0.7983
10354TIP3    H252478   0.760   6.064   3.975 -1.9764 -1.4206 -0.9536
10355TIP3   OH252479   5.228   7.033   4.394  0.1433 -0.1462  0.2258
10355TIP3    H152480   5.202   6.975   4.322  1.0804  0.0965 -0.3246
10355TIP3    H252481   5.182   6.999   4.471 -0.3469 -0.8117 -0.3555
10356TIP3   OH252482   2.159   5.115   3.895  0.6233 -0.1991 -0.5295
10356TIP3    H152483   2.082   5.116   3.953  0.9138  0.8730 -0.1388
10356TIP3    H252484   2.134   5.170   3.821  0.1653 -1.7682 -1.5617
10357TIP3   OH252485   1.274   6.022   1.036 -0.6362  0.2380  0.2558
10357TIP3    H152486   1.200   6.076   1.008 -0.5310  0.1875 -0.1293
10357TIP3    H252487   1.351   6.075   1.016 -0.5898  0.5193  1.1736
10358TIP3   OH252488   1.164   5.821  13.659  0.1780  0.1058 -0.3894
10358TIP3    H152489   1.170   5.729  13.684 -0.3303  0.5644  1.5113
10358TIP3    H252490   1.208   5.826  13.574 -0.5377 -2.0308 -0.9118
10359TIP3   OH252491   1.423   6.170   2.003 -0.4455  0.0837  0.0131
10359TIP3    H152492   1.360   6.113   2.046 -0.0594  0.2037  0.7542
10359TIP3    H252493   1.483   6.111   1.957 -1.0230 -0.0343 -0.5925
10360TIP3   OH252494   6.493   1.663   1.563  0.8314  0.0731 -0.3706
10360TIP3    H152495   6.559   1.660   1.632  0.1628 -1.7324  0.2316
10360TIP3    H252496   6.505   1.581   1.515 -0.8093 -0.1803 -0.3935
10361TIP3   OH252497   5.357   0.885   1.811  0.7496  0.5162  0.7619
10361TIP3    H152498   5.372   0.805   1.760 -0.2049  1.2491 -0.7294
10361TIP3    H252499   5.272   0.917   1.779  1.3177  2.3420  1.0553
10362TIP3   OH252500   0.026   2.434   2.121  0.0176  0.0888 -0.1238
10362TIP3    H152501  -0.069   2.432   2.128  0.1623 -0.9184  2.0786
10362TIP3    H252502   0.050   2.346   2.091  0.3573 -0.3138  1.2876
10363TIP3   OH252503   5.524   6.640   2.370 -0.2645 -0.3074 -0.2499
10363TIP3    H152504   5.513   6.612   2.279  1.8337  0.5600 -0.8166
10363TIP3    H252505   5.479   6.724   2.374 -2.5052 -1.4971  0.2011
10364TIP3   OH252506   0.832   1.810   0.929  0.0830  0.4201  0.5266
10364TIP3    H152507   0.853   1.749   0.999 -1.0361  0.5989  1.0364
10364TIP3    H252508   0.917   1.846   0.901  0.7961 -1.7237 -0.1344
10365TIP3   OH252509   0.620   1.763  14.028 -0.1961  0.2061 -0.6557
10365TIP3    H152510   0.643   1.700  14.097 -0.1297 -0.2615 -1.1043
10365TIP3    H252511   0.559   1.824  14.070  1.3098  1.0529  0.3703
10366TIP3   OH252512   1.727   2.654   2.389 -0.2005  0.4332  0.6542
10366TIP3    H152513   1.754   2.566   2.415  2.1964  0.6292 -0.9750
10366TIP3    H252514   1.713   2.701   2.471 -4.5124 -2.2688  1.6099
10367TIP3   OH252515   2.318   2.138   1.555 -0.2208  0.0506  0.2004
10367TIP3    H152516   2.333   2.225   1.518  0.4661 -0.4387 -0.7233
10367TIP3    H252517   2.339   2.078   1.483 -0.2087 -0.8873  0.9714
10368TIP3   OH252518   2.891   2.432   1.122 -0.4543  0.0023  0.6298
10368TIP3    H152519   2.986   2.425   1.132 -0.1190  0.2792 -1.9629
10368TIP3    H252520   2.857   2.348   1.152  0.8452 -1.0501 -0.7536
10369TIP3   OH252521   2.433   1.947   1.772 -0.3876 -0.2604  0.1942
10369TIP3    H152522   2.518   1.947   1.727  0.6137 -0.8784  2.0303
10369TIP3    H252523   2.391   2.028   1.744  0.0087 -0.8451 -2.1974
10370TIP3   OH252524   5.762   1.986   1.290 -0.2697  0.1365 -0.2323
10370TIP3    H152525   5.736   2.017   1.377  0.4551 -2.2358  0.8891
10370TIP3    H252526   5.857   1.991   1.290 -0.1323 -1.8342 -0.0573
10371TIP3   OH252527   1.981   1.133  15.122  0.2523  0.2773  0.9613
10371TIP3    H152528   2.023   1.173  15.198  0.9390 -2.9119  2.3232
10371TIP3    H252529   2.030   1.053  15.106  0.9076  1.4459 -3.6603
10372TIP3   OH252530   1.718   0.401   1.083  0.2860 -0.4337 -0.0204
10372TIP3    H152531   1.784   0.469   1.069 -1.0371  0.6695 -1.0779
10372TIP3    H252532   1.713   0.392   1.178  0.9625  0.4493  0.1130
10373TIP3   OH252533   0.085   2.275  14.618 -0.0507  0.5810  0.6960
10373TIP3    H152534   0.080   2.217  14.694  0.7305  0.0878  0.3700
10373TIP3    H252535   0.018   2.342  14.635  0.2550  0.5853  1.9133
10374TIP3   OH252536   6.983   6.515  14.973  0.2303 -0.4160  0.6636
10374TIP3    H152537   6.898   6.478  14.995  0.8516 -1.7817  0.8087
10374TIP3    H252538   7.041   6.485  15.042  1.3281 -1.4357 -0.6762
10375TIP3   OH252539   1.218   2.048   2.530 -0.4037  0.3177 -0.1932
10375TIP3    H152540   1.246   1.973   2.583 -0.6214  1.8219  2.1047
10375TIP3    H252541   1.156   2.095   2.585  0.6700  2.8832 -1.0820
10376TIP3   OH252542   5.961   0.145   3.316 -0.2412  0.2041 -1.0172
10376TIP3    H152543   5.908   0.097   3.252 -1.3746  0.3384 -0.1954
10376TIP3    H252544   5.976   0.230   3.276  1.2682 -0.6030 -2.2234
10377TIP3   OH252545   0.166   0.450   1.016 -0.6018  0.3183  0.2015
10377TIP3    H152546   0.070   0.442   1.009 -0.5574  0.0866 -0.1267
10377TIP3    H252547   0.193   0.485   0.931 -0.5368  1.6623  0.7593
10378TIP3   OH252548   2.934   0.743   0.877  0.1562 -0.9927 -0.6861
10378TIP3    H152549   2.961   0.833   0.896 -0.3581 -1.0842  0.4967
10378TIP3    H252550   3.011   0.691   0.898  0.6532 -0.7796 -1.9360
10379TIP3   OH252551   0.058   1.822   1.347  0.3446  0.6159  0.4434
10379TIP3    H152552  -0.023   1.824   1.398 -0.4921 -1.6450 -0.7504
10379TIP3    H252553   0.030   1.806   1.257  2.2808 -3.3205  0.4589
10380TIP3   OH252554   0.234   1.881   2.828  0.1273 -0.1741 -0.2645
10380TIP3    H152555   0.261   1.943   2.896  2.3327  0.4411 -1.6325
10380TIP3    H252556   0.142   1.901   2.813  0.0542  0.8341  1.3384
10381TIP3   OH252557   4.200   1.784   1.283 -0.3637  0.0234 -0.7103
10381TIP3    H152558   4.142   1.842   1.235  0.0732 -0.1835 -1.4902
10381TIP3    H252559   4.186   1.698   1.245  0.1853 -0.0934 -0.6581
10382TIP3   OH252560   2.040   6.340  13.699  0.1649 -0.4756  0.4480
10382TIP3    H152561   1.958   6.329  13.651  0.1349 -0.8072  0.5803
10382TIP3    H252562   2.038   6.431  13.728  0.1802 -0.2720 -0.1746
10383TIP3   OH252563   0.934   4.209  15.971  0.0985 -0.1665 -0.1523
10383TIP3    H152564   0.965   4.206  16.062  1.9292 -2.4125 -0.8278
10383TIP3    H252565   0.845   4.176  15.975  0.1871 -0.2999  0.8134
10384TIP3   OH252566   6.302   2.440   0.569  0.0115 -0.3669  0.3703
10384TIP3    H152567   6.225   2.435   0.625  1.4588  1.3507  2.6313
10384TIP3    H252568   6.366   2.382   0.610  1.0149  0.7421  0.4422
10385TIP3   OH252569   6.397   5.685   2.462  0.3816  0.4952 -0.1464
10385TIP3    H152570   6.395   5.610   2.522 -1.1494  1.9751  1.6975
10385TIP3    H252571   6.306   5.713   2.456  0.6775  1.0804 -2.3159
10386TIP3   OH252572   1.015   6.191   0.262 -0.0401 -0.0445  0.4621
10386TIP3    H152573   1.032   6.262   0.200 -0.1232  0.7496  1.3393
10386TIP3    H252574   1.077   6.122   0.236 -1.7859 -0.7431 -2.0836
10387TIP3   OH252575   6.387   6.600   1.999  0.1494 -0.3548  0.1246
10387TIP3    H152576   6.376   6.556   2.084 -2.8593 -0.0847 -0.0741
10387TIP3    H252577   6.433   6.535   1.945  0.6929 -1.1197  1.4612
10388TIP3   OH252578   6.523   6.369   1.033  0.1892 -0.2402 -0.1392
10388TIP3    H152579   6.567   6.439   1.081 -0.3009  0.4443 -0.6908
10388TIP3    H252580   6.522   6.398   0.942  0.3330 -1.1394 -0.4388
10389TIP3   OH252581   0.386   6.178   1.595 -0.0401  0.3547  0.2888
10389TIP3    H152582   0.444   6.102   1.591  0.8720  1.1273 -1.7744
10389TIP3    H252583   0.363   6.186   1.688  1.3836 -1.2893  0.8012
10390TIP3   OH252584   0.604   4.476  12.740  0.3908 -0.0031 -0.1748
10390TIP3    H152585   0.594   4.556  12.792  1.2794 -0.1206  0.1884
10390TIP3    H252586   0.561   4.408  12.791  2.8628 -0.4845  1.3167
10391TIP3   OH252587   1.760   4.987   5.101 -0.2787 -0.7103  0.0345
10391TIP3    H152588   1.666   4.974   5.089 -0.2090 -0.0632 -1.3867
10391TIP3    H252589   1.797   4.980   5.013  1.0805 -1.4853  0.6438
10392TIP3   OH252590   5.091   1.452   2.435  1.0346 -0.0525  0.1631
10392TIP3    H152591   5.106   1.389   2.366  1.9127 -0.0709  0.3683
10392TIP3    H252592   5.146   1.423   2.508  2.3718  1.5915 -0.1467
10393TIP3   OH252593   1.201   1.899   5.556 -0.5784  0.0147  0.5622
10393TIP3    H152594   1.249   1.957   5.615 -0.0957 -2.0037  2.1792
10393TIP3    H252595   1.114   1.940   5.549  0.4487  2.1372 -0.1301
10394TIP3   OH252596   6.487   5.209   0.968  0.1432 -0.4948  0.0413
10394TIP3    H152597   6.561   5.177   1.020  0.7850 -1.4788 -1.4366
10394TIP3    H252598   6.525   5.274   0.909 -0.1374 -1.1279 -0.8441
10395TIP3   OH252599   5.140   4.644   2.479  0.3386 -0.1797  0.7448
10395TIP3    H152600   5.087   4.594   2.541  0.1397  1.2153  1.7188
10395TIP3    H252601   5.230   4.628   2.505  0.3273 -1.0128  0.2845
10396TIP3   OH252602   5.063   1.775   1.241 -1.1550  0.3561 -0.2005
10396TIP3    H152603   5.145   1.742   1.276 -1.0414 -1.0816 -1.7821
10396TIP3    H252604   5.012   1.696   1.221 -2.9144  1.2247  0.7246
10397TIP3   OH252605   1.426   0.609   3.351  0.2863  0.3797  0.3717
10397TIP3    H152606   1.487   0.660   3.298 -1.7559  2.2618 -0.2809
10397TIP3    H252607   1.440   0.518   3.323  2.9338  0.7405  0.4513
10398TIP3   OH252608   1.169   4.224   0.197  0.1445  0.1505 -0.4706
10398TIP3    H152609   1.197   4.221   0.289  1.0114 -1.1726 -0.7764
10398TIP3    H252610   1.246   4.200   0.147 -0.7168 -0.5440 -1.4816
10399TIP3   OH252611   0.798   2.197   0.540  0.1639  0.0831 -0.1065
10399TIP3    H152612   0.847   2.171   0.618  1.0712 -0.1983 -0.7650
10399TIP3    H252613   0.855   2.174   0.466 -0.1323  1.5491 -0.8082
10400TIP3   OH252614   1.352   2.066  14.228  0.0172  0.5808  0.0494
10400TIP3    H152615   1.414   2.105  14.166  0.1572  0.5120  0.1448
10400TIP3    H252616   1.266   2.078  14.187  0.0123  1.3907  0.2893
10401TIP3   OH252617   0.722   2.890   2.772 -0.6185 -0.0508  0.0626
10401TIP3    H152618   0.653   2.826   2.792  0.3530 -1.5152 -1.0723
10401TIP3    H252619   0.776   2.846   2.706  0.6135  1.6109 -0.0711
10402TIP3   OH252620   4.217   2.812   1.829  0.0560  0.2699 -0.6982
10402TIP3    H152621   4.146   2.845   1.774 -0.3435  1.0624  0.2660
10402TIP3    H252622   4.253   2.738   1.781 -0.0086  1.2062 -2.2143
10403TIP3   OH252623   2.291   5.501   2.005  0.0502  0.1044 -0.2893
10403TIP3    H152624   2.283   5.557   2.082 -0.2355 -0.6222  0.2228
10403TIP3    H252625   2.255   5.417   2.034 -0.3585 -0.0770 -1.3154
10404TIP3   OH252626   2.751   3.928   1.268  0.6554 -0.3863 -0.0412
10404TIP3    H152627   2.768   3.837   1.246  2.8033  0.0053 -0.1576
10404TIP3    H252628   2.781   3.977   1.192 -2.2019  0.3398 -0.7602
10405TIP3   OH252629   1.877   2.638   4.876 -0.3541  0.0367  0.4658
10405TIP3    H152630   1.924   2.571   4.926  1.5305 -0.1949 -1.5231
10405TIP3    H252631   1.907   2.721   4.914  2.0026 -0.0950 -0.9798
10406TIP3   OH252632   0.928   1.078   3.657  0.1645 -0.0597 -0.0328
10406TIP3    H152633   0.970   1.042   3.735  0.6142  0.3729 -0.0760
10406TIP3    H252634   0.999   1.118   3.607 -0.5722  2.5209  0.9048
10407TIP3   OH252635   6.772   3.506   1.081  0.1971  0.0162  1.0993
10407TIP3    H152636   6.768   3.422   1.126  2.9819 -1.6270 -1.6326
10407TIP3    H252637   6.862   3.535   1.092  0.0876  1.1001 -0.7568
10408TIP3   OH252638   1.510   3.616   0.634 -0.3324  0.5788 -0.3534
10408TIP3    H152639   1.448   3.550   0.666  0.8643 -0.5972 -0.4673
10408TIP3    H252640   1.570   3.630   0.708 -0.0113  0.8452 -0.6641
10409TIP3   OH252641   6.038   7.278   1.024  0.4316  0.0532  0.1516
10409TIP3    H152642   6.008   7.255   1.112  0.5955 -1.6432 -0.2314
10409TIP3    H252643   6.130   7.301   1.036  0.3196  0.3282  0.4982
10410TIP3   OH252644   2.645   1.966   2.269  0.3897 -0.2297 -0.2641
10410TIP3    H152645   2.559   1.927   2.287  0.2877  0.7589  1.5055
10410TIP3    H252646   2.632   2.016   2.189 -0.9904  0.7670  0.5510
10411TIP3   OH252647   7.229   3.794   0.198 -0.3144  0.7426  0.3402
10411TIP3    H152648   7.138   3.817   0.180 -0.1129  1.0641 -0.2748
10411TIP3    H252649   7.243   3.823   0.288 -0.9511  0.2896  0.5868
10412TIP3   OH252650   0.818   6.022  14.115 -0.0772  0.3366  0.1983
10412TIP3    H152651   0.869   6.015  14.034  0.0449  0.8502  0.2252
10412TIP3    H252652   0.749   5.956  14.106 -0.1268  0.4648 -0.3749
10413TIP3   OH252653   3.000   1.723   1.037  0.2043 -0.7816 -0.1011
10413TIP3    H152654   2.930   1.721   1.102 -1.0529 -0.1828 -1.3979
10413TIP3    H252655   2.957   1.754   0.957  1.5297 -2.3643 -1.4531
10414TIP3   OH252656   2.116   3.324  15.741  0.3091 -0.1592  0.0328
10414TIP3    H152657   2.051   3.366  15.684 -1.0028 -2.4316 -0.1900
10414TIP3    H252658   2.182   3.289  15.681  0.0627 -0.6498  0.0472
10415TIP3   OH252659   2.637   1.488   0.122  0.5993 -0.3801 -0.8007
10415TIP3    H152660   2.710   1.541   0.153  0.7489 -0.3163 -1.2588
10415TIP3    H252661   2.654   1.476   0.029 -0.0024 -0.3256 -0.9191
10416TIP3   OH252662   1.326   6.395   3.338 -0.4544 -0.3246 -0.7142
10416TIP3    H152663   1.253   6.430   3.390  0.4054  1.2395 -0.5113
10416TIP3    H252664   1.401   6.402   3.397  0.8169  2.7772 -2.5581
10417TIP3   OH252665   3.396   5.112   0.576  0.9447 -0.1643 -0.3685
10417TIP3    H152666   3.402   5.018   0.562  1.1714  0.0217 -1.5759
10417TIP3    H252667   3.305   5.128   0.599  0.3419 -0.3640 -2.5833
10418TIP3   OH252668   5.168   7.193   1.292  0.8205  0.0593  0.1767
10418TIP3    H152669   5.205   7.213   1.378  1.8536  0.1512 -0.2792
10418TIP3    H252670   5.135   7.104   1.300  1.2514 -0.0692  0.5529
10419TIP3   OH252671   2.628   6.157   3.417 -0.0501  0.4385 -0.7092
10419TIP3    H152672   2.652   6.103   3.493 -0.0929  0.4629 -0.6779
10419TIP3    H252673   2.542   6.192   3.440 -1.2078 -1.5631 -1.8221
10420TIP3   OH252674   6.741   7.001  14.666  0.0852  0.1721 -0.3997
10420TIP3    H152675   6.787   7.083  14.644  1.0369  0.0364  1.0426
10420TIP3    H252676   6.775   6.938  14.602  1.8641  0.0963  0.5730
10421TIP3   OH252677   2.226   2.116   5.152  0.0381 -0.2764  0.6941
10421TIP3    H152678   2.243   2.210   5.151 -2.4407  0.1988  0.6005
10421TIP3    H252679   2.262   2.084   5.069 -0.4330  0.8395  0.0557
10422TIP3   OH252680   3.207   0.790   1.202 -0.1461 -0.3316  0.3393
10422TIP3    H152681   3.153   0.837   1.265  0.3329  1.5141 -0.5870
10422TIP3    H252682   3.297   0.811   1.226  0.0237  1.9942 -2.0681
10423TIP3   OH252683   0.872   1.270   3.301 -0.2068 -0.2733 -0.2023
10423TIP3    H152684   0.869   1.177   3.277  0.1392 -0.0857 -0.9883
10423TIP3    H252685   0.816   1.313   3.237 -1.6009 -0.1313  1.1076
10424TIP3   OH252686   2.696   4.951  15.848  0.0763  0.2342 -0.3797
10424TIP3    H152687   2.780   4.988  15.822  0.3194  0.7213  1.0627
10424TIP3    H252688   2.632   5.015  15.818  0.3084  0.4745 -0.3690
10425TIP3   OH252689   2.499   1.712   0.912 -0.7329  0.0321  0.5524
10425TIP3    H152690   2.533   1.791   0.954 -1.6161  0.6088  0.1996
10425TIP3    H252691   2.577   1.660   0.892 -0.1807  0.5576  1.2898
10426TIP3   OH252692   1.432   1.947  12.242  0.0897 -0.1546 -0.4142
10426TIP3    H152693   1.408   1.855  12.250  0.8785 -0.2766  0.6752
10426TIP3    H252694   1.358   1.988  12.198 -1.1243 -0.9547  0.8424
10427TIP3   OH252695   1.124   4.709   0.267 -0.0221  0.3493 -0.1427
10427TIP3    H152696   1.034   4.740   0.260  0.1812  0.7273 -1.3477
10427TIP3    H252697   1.118   4.615   0.248 -0.2007  0.3077  0.1103
10428TIP3   OH252698   1.892   6.777  14.484  0.1446  0.8552  0.5989
10428TIP3    H152699   1.975   6.809  14.451  0.3457 -0.7068 -0.4302
10428TIP3    H252700   1.826   6.829  14.438  0.4324 -0.9346 -1.9434
10429TIP3   OH252701   3.081   4.743   1.802  0.0167 -0.0712 -0.0082
10429TIP3    H152702   2.997   4.761   1.844 -1.4754 -0.5092 -2.6537
10429TIP3    H252703   3.147   4.763   1.868 -2.0845  2.3242  1.4266
10430TIP3   OH252704   0.942   1.922   4.000  0.0721  0.1360 -0.5992
10430TIP3    H152705   0.969   2.014   3.998  0.7008 -0.0347 -0.2940
10430TIP3    H252706   0.909   1.904   3.912  1.8288  0.1175 -1.2820
10431TIP3   OH252707   6.013   2.638   4.356  0.0238 -0.0548 -0.9260
10431TIP3    H152708   6.058   2.596   4.283  0.8211  0.0269 -0.4844
10431TIP3    H252709   5.985   2.566   4.412  0.7047 -0.0451 -0.5677
10432TIP3   OH252710   1.395   5.542   3.044 -0.1549  0.0907 -0.5677
10432TIP3    H152711   1.442   5.561   2.963  2.5752  0.8630  1.1422
10432TIP3    H252712   1.316   5.496   3.016  1.0091 -0.1395 -3.6041
10433TIP3   OH252713   4.330   0.333   0.462  0.7681 -0.0740  0.2006
10433TIP3    H152714   4.314   0.254   0.514  2.9745 -0.7849 -0.1623
10433TIP3    H252715   4.246   0.352   0.420 -0.1254 -1.4566  1.3387
10434TIP3   OH252716   4.072   6.994  15.786  0.1101 -0.1975 -0.1723
10434TIP3    H152717   4.039   7.040  15.709 -0.9966 -1.7608 -0.6720
10434TIP3    H252718   4.029   7.037  15.860  0.9226  1.0971 -0.4402
10435TIP3   OH252719   4.213   3.203  15.830  0.0031 -0.3841 -0.1846
10435TIP3    H152720   4.260   3.287  15.829 -0.0168 -0.3658  0.6010
10435TIP3    H252721   4.238   3.162  15.913 -0.8966 -0.6422 -0.0358
10436TIP3   OH252722   3.928   0.350   0.022  0.3622  0.1455 -0.7172
10436TIP3    H152723   3.858   0.287   0.043  1.2495 -0.0850  1.7422
10436TIP3    H252724   3.884   0.435   0.022 -0.2803 -0.1769 -1.0898
10437TIP3   OH252725   3.108   4.477   1.775  0.1546  0.9437  0.1647
10437TIP3    H152726   3.069   4.564   1.786 -0.1884  0.5766  1.8754
10437TIP3    H252727   3.070   4.424   1.845  0.7319 -0.4739 -0.5697
10438TIP3   OH252728   2.474   0.969   0.104  0.2298 -0.0293  0.3026
10438TIP3    H152729   2.503   1.046   0.152  0.3344 -0.3262  0.7216
10438TIP3    H252730   2.553   0.918   0.090  0.4117  0.6695 -1.3265
10439TIP3   OH252731   0.994   0.534   2.091 -0.0640 -0.9879  0.0021
10439TIP3    H152732   0.951   0.469   2.035  2.0057 -0.7850 -1.8909
10439TIP3    H252733   1.037   0.594   2.030  1.6470 -0.3366  1.7829
10440TIP3   OH252734   3.835   0.825   0.640  0.0275  0.3036  0.2222
10440TIP3    H152735   3.860   0.884   0.569 -0.5101  0.4157  0.1269
10440TIP3    H252736   3.883   0.744   0.621  2.5701  1.4143  1.5943
10441TIP3   OH252737   3.360   2.152   3.265  0.6036 -0.9270  0.2333
10441TIP3    H152738   3.421   2.209   3.218  0.1926 -0.1326  0.6329
10441TIP3    H252739   3.396   2.064   3.257  1.0758 -0.6481 -0.6799
10442TIP3   OH252740   1.560   0.349   3.282 -0.9310  0.6704 -0.1338
10442TIP3    H152741   1.609   0.355   3.199  1.2198  1.5362  1.1456
10442TIP3    H252742   1.486   0.292   3.262 -0.4257  0.8209 -2.6430
10443TIP3   OH252743   0.513   2.879   1.090  0.3783  0.7600 -0.4217
10443TIP3    H152744   0.581   2.926   1.043  0.4661  0.1425 -0.9212
10443TIP3    H252745   0.441   2.872   1.027  0.5897 -0.2864 -0.5593
10444TIP3   OH252746   4.026   1.296   3.868  0.0205  0.1741 -0.2463
10444TIP3    H152747   4.074   1.376   3.886 -0.3274  0.4387 -0.4820
10444TIP3    H252748   3.964   1.288   3.940  1.1407 -0.7404  0.6335
10445TIP3   OH252749   1.798   1.097   0.475 -0.8360  0.6303 -0.9554
10445TIP3    H152750   1.743   1.021   0.452  0.8036 -0.3872 -1.5929
10445TIP3    H252751   1.874   1.089   0.418 -0.6425  2.7911 -1.0245
10446TIP3   OH252752   1.127   6.926   2.976  0.2750 -0.1438 -0.2467
10446TIP3    H152753   1.134   7.022   2.972 -0.5919 -0.0929 -0.6757
10446TIP3    H252754   1.147   6.905   3.067  3.9221  0.1160 -0.9320
10447TIP3   OH252755   0.889   6.990   3.568  0.1562 -0.0703  0.0036
10447TIP3    H152756   0.923   7.059   3.510  1.3842 -0.8186 -0.1819
10447TIP3    H252757   0.897   7.027   3.656 -0.4527  0.5444 -0.1934
10448TIP3   OH252758   4.899   6.748   1.586  0.3105  0.2934  0.4640
10448TIP3    H152759   4.860   6.662   1.571  0.1372  0.5341 -0.5137
10448TIP3    H252760   4.971   6.732   1.647 -1.6197 -0.0831  2.7212
10449TIP3   OH252761   2.737   1.098  15.964  0.0679 -0.0742 -0.1194
10449TIP3    H152762   2.766   1.024  16.017 -1.0429 -0.0764  0.5083
10449TIP3    H252763   2.692   1.156  16.025  0.5352  0.9145 -0.6910
10450TIP3   OH252764   1.584   1.050   1.411 -0.5407  0.0908 -0.3892
10450TIP3    H152765   1.587   0.955   1.410  0.3287  0.0990  0.2995
10450TIP3    H252766   1.676   1.077   1.407 -0.8159  0.9227 -1.6402
10451TIP3   OH252767   3.067   7.156  14.765 -0.4627  0.1657 -0.3406
10451TIP3    H152768   3.085   7.078  14.818  3.9661  3.2388  3.0246
10451TIP3    H252769   3.138   7.157  14.700 -0.2582  1.5418 -0.1113
10452TIP3   OH252770   1.845   1.758   1.682  0.2486 -0.6881 -0.2473
10452TIP3    H152771   1.832   1.741   1.775 -0.7600  0.4875 -0.1638
10452TIP3    H252772   1.795   1.838   1.665  0.3340 -0.9567 -1.8186
10453TIP3   OH252773   2.369   6.824   0.957 -0.5191 -0.1227 -0.4038
10453TIP3    H152774   2.417   6.818   0.874  0.3767 -2.3107  0.2330
10453TIP3    H252775   2.422   6.883   1.011 -0.0525 -0.2586 -0.7101
10454TIP3   OH252776   3.659   7.085   1.666  0.6962  0.0788  0.2262
10454TIP3    H152777   3.567   7.100   1.646  0.6016 -1.5004 -0.5835
10454TIP3    H252778   3.704   7.159   1.624  0.1239 -1.1183 -2.5808
10455TIP3   OH252779   0.962   5.837  14.837 -0.2429  0.2261 -0.0576
10455TIP3    H152780   1.037   5.868  14.887  1.4818 -2.1189 -1.0812
10455TIP3    H252781   0.971   5.881  14.752 -0.9010  1.0940  0.3111
10456TIP3   OH252782   2.597   4.295   4.926  0.0217  0.0426  0.7123
10456TIP3    H152783   2.507   4.266   4.914 -0.3978  0.8192  1.8890
10456TIP3    H252784   2.592   4.362   4.995  1.5182 -0.0482  0.9274
10457TIP3   OH252785   1.696   6.348   2.460  0.7985 -0.2716 -0.1139
10457TIP3    H152786   1.690   6.385   2.548  1.6084  1.2161 -0.6531
10457TIP3    H252787   1.616   6.297   2.449 -0.5420  1.6449  0.5451
10458TIP3   OH252788   0.671   1.939   0.434 -0.2955 -0.0622 -0.2579
10458TIP3    H152789   0.734   1.914   0.501 -2.1486 -1.6804  0.9550
10458TIP3    H252790   0.676   2.034   0.429  2.5121 -0.1847 -0.5033
10459TIP3   OH252791   2.676   7.223  13.523 -0.1913 -0.1792  0.2577
10459TIP3    H152792   2.720   7.226  13.608 -1.2458 -1.3257  0.8662
10459TIP3    H252793   2.583   7.235  13.544 -0.5645 -1.3794 -0.6306
10460TIP3   OH252794   4.454   7.148   1.488  0.5971  0.1607  0.4548
10460TIP3    H152795   4.411   7.222   1.532 -2.0539 -1.4505  0.6462
10460TIP3    H252796   4.511   7.190   1.423 -1.9536  2.3933 -0.4643
10461TIP3   OH252797   1.569   0.464   0.864 -0.0105 -0.2856  0.0584
10461TIP3    H152798   1.641   0.513   0.823 -1.3636  3.3256  1.7976
10461TIP3    H252799   1.607   0.431   0.946  0.2089 -0.0244  0.0631
10462TIP3   OH252800   5.604   2.174  15.771  0.3220 -0.2015  0.7506
10462TIP3    H152801   5.542   2.159  15.842  1.4798 -2.1027  1.3653
10462TIP3    H252802   5.610   2.090  15.726  0.6425  0.6243 -0.7800
10463TIP3   OH252803   0.093   1.226   1.311 -0.3333  0.8154 -0.0620
10463TIP3    H152804   0.029   1.162   1.344 -0.4655  1.1735  0.3853
10463TIP3    H252805   0.049   1.311   1.321 -0.4979  0.9001 -1.4895
10464TIP3   OH252806   0.203   6.934   1.872  0.4857 -0.0993 -0.4135
10464TIP3    H152807   0.185   7.016   1.826  0.0278 -0.1123 -0.2668
10464TIP3    H252808   0.251   6.881   1.809 -1.3493 -0.6575 -1.3863
10465TIP3   OH252809   1.622   5.970  15.667 -0.5849 -0.2243  0.3163
10465TIP3    H152810   1.655   6.031  15.733  0.2723 -0.1947 -0.1370
10465TIP3    H252811   1.528   5.962  15.687 -0.6621  1.0779  0.4943
10466TIP3   OH252812   2.304   7.170   0.611 -0.1973 -0.4271  0.5609
10466TIP3    H152813   2.285   7.079   0.634  0.1733 -0.3908  1.0202
10466TIP3    H252814   2.223   7.217   0.630 -0.5598 -0.7428 -0.1630
10467TIP3   OH252815   6.270   2.279   1.991 -0.4105  0.1279 -0.1389
10467TIP3    H152816   6.235   2.247   2.074  0.6808  1.4823  0.8584
10467TIP3    H252817   6.202   2.259   1.927 -1.5460 -0.3074  1.1899
10468TIP3   OH252818   4.862   2.993  15.422  0.1540 -0.5910  0.3024
10468TIP3    H152819   4.770   2.998  15.393  0.9239 -0.2193 -2.2579
10468TIP3    H252820   4.883   2.900  15.418 -0.0545 -0.6550  0.6894
10469TIP3   OH252821   7.130   1.967   2.003  0.0823 -0.5039 -0.0119
10469TIP3    H152822   7.180   1.978   2.085 -0.6607  2.1044  0.1287
10469TIP3    H252823   7.059   1.908   2.027  0.9230 -1.2507  0.7360
10470TIP3   OH252824   2.854   1.806   3.646  0.0548 -0.0302  0.0916
10470TIP3    H152825   2.781   1.849   3.691 -0.9857 -0.3342 -1.2902
10470TIP3    H252826   2.871   1.861   3.570  0.6175 -0.5113 -0.1322
10471TIP3   OH252827   1.969   1.766   0.178  0.2432 -0.4103 -0.0787
10471TIP3    H152828   2.056   1.764   0.139  0.9259  3.3611  1.0866
10471TIP3    H252829   1.977   1.715   0.258  1.4722  0.2386  0.2074
10472TIP3   OH252830   3.047   1.093   0.067  0.2652  0.6729 -0.0631
10472TIP3    H152831   3.139   1.072   0.076 -0.3173 -2.1363 -0.1626
10472TIP3    H252832   3.037   1.117  -0.025  0.5756 -0.9618 -0.5480
10473TIP3   OH252833   2.642   3.268   2.639  0.3126  0.0087 -0.1504
10473TIP3    H152834   2.691   3.321   2.702  0.9332 -0.2868 -0.3844
10473TIP3    H252835   2.551   3.297   2.649  0.2713 -0.6129  1.4768
10474TIP3   OH252836   2.005   3.612  15.032 -0.1399  0.7738 -0.1711
10474TIP3    H152837   2.022   3.675  15.102  1.4273 -1.2266  1.3271
10474TIP3    H252838   1.913   3.587  15.043  0.4920 -0.7296  2.2782
10475TIP3   OH252839   4.008   2.798   0.174  0.4433  0.7000  0.5257
10475TIP3    H152840   3.981   2.870   0.231 -1.2098  1.0764 -0.6969
10475TIP3    H252841   4.084   2.832   0.127  0.9117  0.9019  1.4047
10476TIP3   OH252842   6.978   1.456   2.119  0.0701 -0.0822 -0.3911
10476TIP3    H152843   7.023   1.523   2.171  0.4390 -0.6418  0.0242
10476TIP3    H252844   7.029   1.376   2.135 -1.0172 -0.7097  0.0023
10477TIP3   OH252845   4.411   1.384  13.970  0.5797  0.2742 -0.8643
10477TIP3    H152846   4.483   1.447  13.976  0.3577  0.5755 -1.3984
10477TIP3    H252847   4.335   1.430  14.004 -0.0862  1.0744 -3.3646
10478TIP3   OH252848   4.535   1.283   1.667 -0.9197 -0.4730  0.5959
10478TIP3    H152849   4.466   1.276   1.600 -0.8560 -0.8128  0.5651
10478TIP3    H252850   4.581   1.199   1.662 -1.4457 -0.8282  1.6416
10479TIP3   OH252851   5.447   0.747  15.883  0.4889 -0.1045  0.4622
10479TIP3    H152852   5.453   0.732  15.977 -1.1319 -0.7726  0.4729
10479TIP3    H252853   5.527   0.707  15.847  0.5317 -0.8885  1.4288
10480TIP3   OH252854   3.086   0.962   0.888  0.8841 -0.5439  0.1827
10480TIP3    H152855   3.147   0.991   0.956  1.2951  1.4470 -0.9695
10480TIP3    H252856   3.142   0.924   0.821  0.8450  0.6859 -0.5785
10481TIP3   OH252857   6.738   0.310  15.576 -0.4354  0.2419 -0.0516
10481TIP3    H152858   6.814   0.286  15.522 -0.5828 -0.0406 -0.1336
10481TIP3    H252859   6.748   0.404  15.591  0.2076  0.1062  0.3756
10482TIP3   OH252860   6.621   2.049   3.412  0.0096 -0.3939 -0.0009
10482TIP3    H152861   6.588   2.138   3.427  0.2100 -0.1341 -1.0195
10482TIP3    H252862   6.584   2.024   3.327  0.7788 -0.8842 -0.1995
10483TIP3   OH252863   1.327   6.461  13.756 -0.0109 -0.6621 -0.5776
10483TIP3    H152864   1.330   6.554  13.777 -0.8077 -1.0048  1.1565
10483TIP3    H252865   1.419   6.433  13.756  0.3209  0.3645 -2.3491
10484TIP3   OH252866   5.199   2.653   3.833  0.1977  0.8308  0.1866
10484TIP3    H152867   5.117   2.695   3.856  0.1407  0.8326 -0.0221
10484TIP3    H252868   5.211   2.586   3.900 -0.6667 -0.0980 -0.5705
10485TIP3   OH252869   4.275   4.976   2.046 -0.0203 -0.1502  0.2484
10485TIP3    H152870   4.248   5.044   1.984 -0.4778  2.0419  2.7802
10485TIP3    H252871   4.208   4.908   2.038 -1.4265  1.2319  0.1075
10486TIP3   OH252872   4.259   4.766   5.247  0.2588 -0.1439  0.0148
10486TIP3    H152873   4.169   4.787   5.225 -0.7927 -3.4506  0.9539
10486TIP3    H252874   4.309   4.791   5.169 -1.5425  0.9647 -0.8144
10487TIP3   OH252875   0.426   3.017   0.282 -0.0433  0.4659  0.1920
10487TIP3    H152876   0.357   2.961   0.318 -0.0654 -0.1887 -0.8531
10487TIP3    H252877   0.386   3.057   0.204  0.5643  0.5322 -0.0835
10488TIP3   OH252878   6.383   0.936  15.828 -0.1368  0.0048  0.0101
10488TIP3    H152879   6.287   0.940  15.826 -0.1192  0.2205 -2.4872
10488TIP3    H252880   6.404   0.848  15.796  0.5158  0.4823 -0.8792
10489TIP3   OH252881   2.235   3.840  13.595 -0.2300  0.5152  0.5255
10489TIP3    H152882   2.295   3.901  13.637  2.3277 -1.8521  0.3997
10489TIP3    H252883   2.233   3.867  13.504 -1.6223  2.3249  1.0417
10490TIP3   OH252884   0.546   1.797   1.225 -0.4888  0.0614  0.2447
10490TIP3    H152885   0.577   1.878   1.266  0.6899  0.0044 -0.5376
10490TIP3    H252886   0.595   1.727   1.269  0.3028 -0.0489 -0.8186
10491TIP3   OH252887   2.169   1.584   3.594  0.5844  0.0323  0.8342
10491TIP3    H152888   2.220   1.579   3.675 -1.4890  0.3699  2.2046
10491TIP3    H252889   2.179   1.674   3.565 -1.0301  0.7129  2.3253
10492TIP3   OH252890   0.428   1.212   0.076  0.1636 -0.2207  0.6227
10492TIP3    H152891   0.362   1.258   0.024  1.1793  0.6303  0.0712
10492TIP3    H252892   0.484   1.169   0.012  1.8745  1.4475  0.9503
10493TIP3   OH252893   1.298   0.235   3.253 -0.3782 -0.1737  0.4032
10493TIP3    H152894   1.274   0.269   3.166  0.4576  0.3834  0.3886
10493TIP3    H252895   1.215   0.232   3.301 -0.7687 -0.0118 -0.2540
10494TIP3   OH252896   2.663   1.224   1.697 -0.4244  0.8591 -0.1912
10494TIP3    H152897   2.584   1.275   1.714 -0.8619  0.9408 -2.3149
10494TIP3    H252898   2.664   1.212   1.602  2.0708  0.7727 -0.1892
10495TIP3   OH252899   5.204   5.533   4.657  0.1262 -0.2013 -0.6428
10495TIP3    H152900   5.274   5.468   4.654  0.8693  0.6041 -0.8774
10495TIP3    H252901   5.249   5.617   4.660 -0.8105  0.2506  1.5746
10496TIP3   OH252902   0.939   1.678   1.131  0.4720 -0.2586 -0.2333
10496TIP3    H152903   1.031   1.690   1.110  0.3457 -0.0567 -0.6651
10496TIP3    H252904   0.937   1.672   1.227  1.1435 -2.0693 -0.3078
10497TIP3   OH252905   3.144   5.213   4.198 -0.1158  0.2910 -0.6318
10497TIP3    H152906   3.158   5.156   4.274 -0.1554  0.7399 -0.2873
10497TIP3    H252907   3.201   5.288   4.214 -2.3318  1.7996  0.4196
10498TIP3   OH252908   0.727   0.713  14.822  0.1758 -0.2044  0.4945
10498TIP3    H152909   0.762   0.775  14.758  1.5435 -0.3006  1.1323
10498TIP3    H252910   0.803   0.685  14.873 -0.8890 -0.0194  2.2591
10499TIP3   OH252911   1.748   3.114   1.570 -0.9090 -0.2955 -0.8196
10499TIP3    H152912   1.745   3.201   1.610  1.0040 -0.8803  0.6739
10499TIP3    H252913   1.832   3.112   1.524 -1.0272 -1.3091 -1.0065
10500TIP3   OH252914   1.793   1.697  15.505  0.0571  0.1899  0.3876
10500TIP3    H152915   1.825   1.767  15.448 -1.9553  0.7717 -0.0696
10500TIP3    H252916   1.809   1.616  15.456  0.4321  0.5070 -0.0095
10501TIP3   OH252917   3.616   0.021  13.937  0.0557 -0.5519  0.4097
10501TIP3    H152918   3.687  -0.039  13.960  1.8952  1.1553 -0.6927
10501TIP3    H252919   3.644   0.062  13.855 -3.8208 -2.4639 -2.0552
10502TIP3   OH252920   2.490   2.867   3.087 -0.4013  0.3078  0.2852
10502TIP3    H152921   2.538   2.831   3.013 -4.3327 -1.2074 -1.6788
10502TIP3    H252922   2.492   2.797   3.153  1.4770  0.9166  0.8981
10503TIP3   OH252923   1.028   2.659   2.731  0.2763  0.2413 -0.7101
10503TIP3    H152924   1.070   2.716   2.667  0.3741  0.2761 -0.6159
10503TIP3    H252925   1.015   2.576   2.685  1.5102 -0.1508 -0.3889
10504TIP3   OH252926   5.030   1.827  12.692 -0.8630 -0.4442 -0.3216
10504TIP3    H152927   5.029   1.904  12.749 -0.7595 -0.7193  0.0485
10504TIP3    H252928   5.063   1.756  12.747 -2.6127 -1.1481 -0.1550
10505TIP3   OH252929   3.980   1.293   4.724 -0.3227  0.2193 -0.0985
10505TIP3    H152930   3.915   1.364   4.725 -1.1208 -0.5044  0.0818
10505TIP3    H252931   3.964   1.249   4.640  1.0232  1.0237 -0.7914
10506TIP3   OH252932   0.985   6.433   1.179  0.2663  0.4896  0.2464
10506TIP3    H152933   0.957   6.385   1.256  1.4216 -2.9225 -1.3826
10506TIP3    H252934   0.909   6.434   1.121 -0.1589  1.8194  0.8030
10507TIP3   OH252935   1.689   1.175  14.472 -0.4000 -0.0950  0.0777
10507TIP3    H152936   1.782   1.163  14.487 -0.3122  0.4419 -0.0303
10507TIP3    H252937   1.672   1.128  14.390 -0.0669  0.4701 -0.3189
10508TIP3   OH252938   5.827   0.949  15.072  0.3131  0.3712 -0.1853
10508TIP3    H152939   5.913   0.929  15.034 -0.1771 -0.7624 -0.7199
10508TIP3    H252940   5.847   0.988  15.157  1.3617  0.1124 -0.2987
10509TIP3   OH252941   5.846   2.747   1.664  0.0756 -0.3641  0.0420
10509TIP3    H152942   5.922   2.752   1.606  0.4055 -1.8353  0.3380
10509TIP3    H252943   5.873   2.794   1.743  0.5371 -0.5587 -0.0012
10510TIP3   OH252944   1.507   1.955   4.497 -0.3079 -0.2486  0.1413
10510TIP3    H152945   1.573   1.895   4.533  0.0825  0.4884  0.6717
10510TIP3    H252946   1.451   1.975   4.572 -0.4802 -0.0135 -0.0525
10511TIP3   OH252947   4.463   1.976   5.311 -0.0992 -0.2570  0.6170
10511TIP3    H152948   4.559   1.984   5.311 -0.0758 -0.5422  0.4072
10511TIP3    H252949   4.436   2.015   5.395  0.1082  0.8883  0.1585
10512TIP3   OH252950   3.248   3.206   1.828  0.3576  0.9847  0.3643
10512TIP3    H152951   3.235   3.301   1.826 -0.4981  0.8899 -3.5501
10512TIP3    H252952   3.336   3.194   1.793  0.0932  0.2944 -0.0671
10513TIP3   OH252953   3.311   0.716   0.165 -0.6431  0.5915 -0.2763
10513TIP3    H152954   3.305   0.715   0.261  0.3823  1.1046 -0.1977
10513TIP3    H252955   3.372   0.645   0.146 -2.6644 -1.0757 -0.7074
10514TIP3   OH252956   2.318   7.215   0.973 -0.3388  0.6694  0.0661
10514TIP3    H152957   2.235   7.204   0.927 -0.5140 -0.6860  0.6909
10514TIP3    H252958   2.304   7.292   1.028 -0.9742  0.8021 -0.2706
10515TIP3   OH252959   3.890   3.195  15.129  0.1734 -0.0877  0.2279
10515TIP3    H152960   3.921   3.273  15.083 -0.5936 -0.2818 -0.6359
10515TIP3    H252961   3.955   3.128  15.110  0.4636  0.1472  0.3894
10516TIP3   OH252962   6.892   7.079   1.190 -0.3104 -0.1333  0.0749
10516TIP3    H152963   6.800   7.090   1.216 -0.4461  1.8073 -1.1262
10516TIP3    H252964   6.905   7.143   1.120  1.3892 -1.8454 -1.2378
10517TIP3   OH252965   5.608   6.167  13.033 -0.4516  0.3845 -0.2796
10517TIP3    H152966   5.646   6.141  12.950 -0.1749  0.1165 -0.0689
10517TIP3    H252967   5.577   6.257  13.018 -2.2671 -0.3678 -1.2873
10518TIP3   OH252968   2.399   2.449  11.891 -0.0227  0.1216  0.4069
10518TIP3    H152969   2.404   2.451  11.987 -1.2068  1.3958  0.4514
10518TIP3    H252970   2.396   2.356  11.869  0.6059 -0.1880  1.5775
10519TIP3   OH252971   1.885   5.611   0.546 -0.0117  0.2899 -0.3595
10519TIP3    H152972   1.859   5.691   0.593  2.9525  0.2854  1.4181
10519TIP3    H252973   1.861   5.628   0.455 -2.2623  1.9386  0.5011
10520TIP3   OH252974   1.214   1.632  13.771  0.0974  0.0372 -0.1967
10520TIP3    H152975   1.209   1.540  13.747 -0.3562 -0.3034  1.1358
10520TIP3    H252976   1.132   1.670  13.738  0.0744 -0.1329 -0.3362
10521TIP3   OH252977   4.654   2.706   5.092  0.0691 -0.6476  0.1807
10521TIP3    H152978   4.607   2.696   5.175 -0.5775  0.5927 -0.0263
10521TIP3    H252979   4.585   2.714   5.026  0.5847 -0.2555 -0.3091
10522TIP3   OH252980   5.237   0.675   1.607  0.5952 -0.1373  0.5059
10522TIP3    H152981   5.176   0.744   1.634 -0.1182 -1.6228  2.7935
10522TIP3    H252982   5.181   0.600   1.590  1.5113 -0.5821 -0.5788
10523TIP3   OH252983   1.325   6.370   2.499  0.0424  0.3055  0.5278
10523TIP3    H152984   1.362   6.355   2.586  0.4048  0.3226  0.3798
10523TIP3    H252985   1.331   6.285   2.455  0.6356  0.4890  0.2355
10524TIP3   OH252986   1.274   4.901  14.839 -0.2715 -0.7131  0.0029
10524TIP3    H152987   1.357   4.889  14.793  0.2802  0.2120  0.7494
10524TIP3    H252988   1.267   4.995  14.852 -1.0880 -0.8507  0.5967
10525TIP3   OH252989   1.109   1.856   3.383 -0.3536 -0.3082 -0.2887
10525TIP3    H152990   1.055   1.824   3.456  0.2539  0.4474  0.5082
10525TIP3    H252991   1.184   1.898   3.426 -0.0822  0.3054 -1.3535
10526TIP3   OH252992   3.290   1.431   0.343  0.2824  0.7849 -0.5558
10526TIP3    H152993   3.384   1.437   0.323  0.3489  1.0359 -0.1615
10526TIP3    H252994   3.286   1.414   0.437 -0.0388 -0.3522 -0.7727
10527TIP3   OH252995   4.913   0.597   2.399  0.3583  0.0422  0.0819
10527TIP3    H152996   4.861   0.647   2.462  1.4774  0.9120  0.3331
10527TIP3    H252997   4.926   0.512   2.441  0.4999  0.3780  0.7249
10528TIP3   OH252998   2.410   0.148  15.005  0.8819  0.4348  0.1461
10528TIP3    H152999   2.480   0.188  14.953  0.5965 -0.9782 -1.3677
10528TIP3    H253000   2.369   0.085  14.945 -1.0398  0.5287  1.3243
10529TIP3   OH253001   5.893   1.831   2.156  0.5471  0.0304  0.4112
10529TIP3    H153002   5.867   1.788   2.238 -1.4927  0.9909  0.2833
10529TIP3    H253003   5.812   1.840   2.107  1.6066  0.3683 -1.3182
10530TIP3   OH253004   0.962   1.384   2.099 -0.4582  0.7327  0.1752
10530TIP3    H153005   1.004   1.321   2.158 -0.1503  1.0878  0.3345
10530TIP3    H253006   0.873   1.391   2.132 -1.1528 -1.2693 -1.1450
10531TIP3   OH253007   0.951   1.337   2.732  0.1965 -0.1005 -0.2362
10531TIP3    H153008   0.865   1.363   2.765  0.8342  1.1340  0.5037
10531TIP3    H253009   0.948   1.354   2.638 -0.1840  0.4332 -0.1238
10532TIP3   OH253010   1.644   2.162   0.451  0.0318 -0.4158 -0.5841
10532TIP3    H153011   1.606   2.232   0.398 -0.6608 -1.2149 -1.1579
10532TIP3    H253012   1.735   2.188   0.464 -1.3118  2.9409  3.1753
10533TIP3   OH253013   1.437   0.366   3.633  0.1132 -0.0089  0.3906
10533TIP3    H153014   1.410   0.349   3.723  0.0880  1.8193  0.7412
10533TIP3    H253015   1.366   0.331   3.579  0.1824 -1.2155  1.0608
10534TIP3   OH253016   3.632   6.938   2.266  0.3761  0.2877  0.6306
10534TIP3    H153017   3.595   7.024   2.283 -1.0264 -0.2623  0.4454
10534TIP3    H253018   3.569   6.876   2.304  0.2907 -0.7230 -1.0948
10535TIP3   OH253019   1.293   6.220  15.952  0.3095 -0.2657  0.0693
10535TIP3    H153020   1.198   6.208  15.952  0.3553 -0.6864 -1.4432
10535TIP3    H253021   1.328   6.132  15.964  0.5253 -0.5662 -2.4255
10536TIP3   OH253022   2.229   3.080   1.193 -0.3007  0.3109 -0.6838
10536TIP3    H153023   2.234   3.084   1.289 -0.7458  2.2626 -0.7145
10536TIP3    H253024   2.317   3.060   1.165 -0.2922 -0.8729  0.1721
10537TIP3   OH253025   2.971   6.839   1.521  0.0303  0.5835 -0.4947
10537TIP3    H153026   2.925   6.839   1.605 -0.4267  0.9816 -0.7442
10537TIP3    H253027   2.950   6.923   1.481  1.3578  0.9688 -0.4093
10538TIP3   OH253028   3.674   6.739  15.496  0.6860 -0.2803  0.2362
10538TIP3    H153029   3.699   6.778  15.412  2.3372 -0.3633  0.6710
10538TIP3    H253030   3.591   6.782  15.519  0.0324 -0.5363 -1.6157
10539TIP3   OH253031   4.990   1.643  14.490 -0.0613  0.1313 -0.2544
10539TIP3    H153032   4.979   1.564  14.438  2.7521 -0.1866 -0.4130
10539TIP3    H253033   5.048   1.617  14.562 -2.6466  0.9507  2.2273
10540TIP3   OH253034   0.989   1.304   1.808  0.2491 -0.3580  0.7945
10540TIP3    H153035   0.937   1.320   1.886 -0.8360  0.5944 -0.1046
10540TIP3    H253036   1.029   1.389   1.787 -0.4865 -0.2911 -0.4053
10541TIP3   OH253037   4.283   6.997  13.658  0.2039 -0.4827 -0.1133
10541TIP3    H153038   4.201   7.026  13.617  0.7834  0.9256 -0.3235
10541TIP3    H253039   4.351   7.022  13.595  0.9793  0.3877  1.0472
10542TIP3   OH253040   7.162   3.717   1.290  0.2414 -0.5571  0.4908
10542TIP3    H153041   7.103   3.654   1.332 -0.0697 -0.7568 -0.2400
10542TIP3    H253042   7.250   3.684   1.310  0.1329  0.4758  2.7088
10543TIP3   OH253043   3.690   1.748   3.158 -0.0598  0.0074 -0.1756
10543TIP3    H153044   3.686   1.702   3.242  1.7481 -0.5077 -0.3491
10543TIP3    H253045   3.734   1.686   3.100  1.6970  1.6391 -0.6233
10544TIP3   OH253046   0.802   6.275  15.906  0.1142 -0.2313 -0.2139
10544TIP3    H153047   0.740   6.202  15.894 -0.6361  0.3579  0.0001
10544TIP3    H253048   0.885   6.232  15.927 -0.1257 -1.0513 -0.8759
10545TIP3   OH253049   6.104   5.588   5.307 -0.4124  0.7020  0.6752
10545TIP3    H153050   6.138   5.538   5.233 -0.6302  0.6162  0.6322
10545TIP3    H253051   6.014   5.610   5.283  0.1655  2.4275  0.0448
10546TIP3   OH253052   2.159   4.572   2.565  0.5934  0.0638 -0.6240
10546TIP3    H153053   2.172   4.609   2.653  0.8525  0.4670 -0.8291
10546TIP3    H253054   2.171   4.647   2.506  0.7014 -0.2669 -1.0191
10547TIP3   OH253055   0.458   0.201  13.529  0.4268 -0.0024  0.0122
10547TIP3    H153056   0.483   0.222  13.438 -0.5991 -0.0150 -0.2767
10547TIP3    H253057   0.373   0.159  13.521  0.2386  0.1822  1.0108
10548TIP3   OH253058   5.620   6.287   4.168  0.2772 -0.2161 -0.4676
10548TIP3    H153059   5.674   6.334   4.231 -0.5917 -0.6043  0.5899
10548TIP3    H253060   5.682   6.239   4.114  1.1195  1.3512 -0.9241
10549TIP3   OH253061   0.850   2.278   1.575 -0.0817  0.7881 -0.4341
10549TIP3    H153062   0.775   2.326   1.612 -1.0623 -1.1772  0.2233
10549TIP3    H253063   0.859   2.312   1.486 -0.0458  2.9653  0.3780
10550TIP3   OH253064   3.211   5.168   1.691 -0.4534 -0.1542  0.1670
10550TIP3    H153065   3.229   5.258   1.721 -0.4503 -0.0901 -0.0260
10550TIP3    H253066   3.264   5.113   1.749 -0.5076 -0.0355  0.3323
10551TIP3   OH253067   0.578   0.824  15.569  0.4231  0.1371  0.5640
10551TIP3    H153068   0.628   0.752  15.529 -0.2515 -1.0260  1.7855
10551TIP3    H253069   0.603   0.901  15.518  0.7669 -1.0473 -1.1019
10552TIP3   OH253070   0.551   1.736   0.304  0.4784  0.0100  0.3499
10552TIP3    H153071   0.584   1.819   0.339 -0.0100  0.8534 -1.1394
10552TIP3    H253072   0.508   1.694   0.378 -0.2031  1.5874  0.8786
10553TIP3   OH253073   3.106   0.529   4.298  0.0913 -0.0272 -0.0707
10553TIP3    H153074   3.125   0.527   4.392 -0.2169  1.3698  0.0312
10553TIP3    H253075   3.014   0.554   4.293  0.6903  2.1731 -0.7791
10554TIP3   OH253076   3.236   3.544   3.288 -0.1211 -0.0125  0.2038
10554TIP3    H153077   3.325   3.556   3.320 -0.2663 -1.7219  1.3392
10554TIP3    H253078   3.222   3.450   3.293 -2.3101  0.3266  0.9327
10555TIP3   OH253079   6.233   2.069   0.905 -0.0112 -0.0113 -0.2419
10555TIP3    H153080   6.196   2.022   0.979 -0.0036  0.4857  0.0801
10555TIP3    H253081   6.259   2.001   0.843 -0.7830 -0.3894 -0.1477
10556TIP3   OH253082   4.292   0.779   2.252  0.1331  0.3392 -0.4892
10556TIP3    H153083   4.334   0.859   2.283 -0.1258  0.0739  0.5708
10556TIP3    H253084   4.359   0.712   2.259 -0.0235  0.2117 -0.1761
10557TIP3   OH253085   6.095   2.049  14.836  0.2947  0.3488 -0.5907
10557TIP3    H153086   6.098   2.144  14.851  0.1305  0.2364  0.1872
10557TIP3    H253087   6.182   2.018  14.862  0.1937  0.2264 -0.3962
10558TIP3   OH253088   1.899   0.438   2.749  0.2800 -0.0516 -0.4901
10558TIP3    H153089   1.898   0.473   2.660  0.9993  0.1625 -0.4184
10558TIP3    H253090   1.988   0.454   2.781 -0.5488  1.7203  1.0153
10559TIP3   OH253091   4.006   6.371  13.687  0.0781 -0.2028  0.5927
10559TIP3    H153092   3.928   6.389  13.739  0.5082  2.0268  0.5079
10559TIP3    H253093   4.038   6.287  13.719 -0.3407  0.5595  3.1068
10560TIP3   OH253094   1.387   4.414   2.836  0.4909 -0.5954  0.1980
10560TIP3    H153095   1.442   4.365   2.897 -1.1342 -2.7676 -0.0218
10560TIP3    H253096   1.406   4.506   2.855  1.7267 -1.2624  2.3491
10561TIP3   OH253097   1.029   1.203  15.305  0.1582  0.0090  0.0878
10561TIP3    H153098   0.954   1.259  15.321  0.3998  0.1652  0.6709
10561TIP3    H253099   1.105   1.255  15.331  0.4056 -0.4564  0.3164
10562TIP3   OH253100   0.189   0.321   1.544 -0.1691  0.2107  0.5060
10562TIP3    H153101   0.263   0.279   1.501 -1.5870 -1.4756 -0.3610
10562TIP3    H253102   0.123   0.330   1.475 -0.8244  1.5828  1.2902
10563TIP3   OH253103   1.743   0.486   4.024 -0.6870 -0.0490  0.1216
10563TIP3    H153104   1.674   0.490   3.958 -0.8452  0.7665  0.3282
10563TIP3    H253105   1.773   0.577   4.032 -0.0443 -0.2941  0.5106
10564TIP3   OH253106   1.831   6.337   1.950 -0.0689 -0.3201  0.7102
10564TIP3    H153107   1.786   6.421   1.957  1.9421  0.8313  0.1817
10564TIP3    H253108   1.881   6.343   1.869  2.2102 -0.9906  2.0354
10565TIP3   OH253109   0.651   7.007   2.856  0.0286  0.1539  0.1413
10565TIP3    H153110   0.577   7.051   2.897 -2.0403 -1.2283 -2.0118
10565TIP3    H253111   0.691   7.073   2.800  0.0511  0.7313  0.8377
10566TIP3   OH253112   1.616   0.790   1.409  0.0296 -0.2658 -0.2029
10566TIP3    H153113   1.672   0.715   1.429 -2.0685 -1.3732  1.8666
10566TIP3    H253114   1.527   0.756   1.419 -0.9734  2.4159  0.4616
10567TIP3   OH253115   0.282   7.219   4.702  0.0610 -0.2049 -0.4633
10567TIP3    H153116   0.310   7.163   4.775 -0.4541 -0.0079 -0.1076
10567TIP3    H253117   0.196   7.186   4.678  0.0196  0.0446 -0.6619
10568TIP3   OH253118   3.866   5.093  14.892  0.2554 -0.0754 -0.3142
10568TIP3    H153119   3.801   5.163  14.891  0.0542 -0.2606 -0.2856
10568TIP3    H253120   3.835   5.033  14.961  0.8887  0.2439  0.2533
10569TIP3   OH253121   4.522   1.643  15.598 -0.0250 -0.1466  0.6551
10569TIP3    H153122   4.452   1.596  15.552  0.1561  1.5919 -1.4652
10569TIP3    H253123   4.601   1.594  15.577 -0.1070 -0.0123  0.0063
10570TIP3   OH253124   0.493   7.161   1.153 -0.1081 -0.9034  0.2576
10570TIP3    H153125   0.582   7.181   1.124  0.0023 -1.6604  0.0478
10570TIP3    H253126   0.473   7.077   1.111 -1.7091  0.2718 -1.3660
10571TIP3   OH253127   1.039   6.446   0.890  0.4689 -0.4209  0.1524
10571TIP3    H153128   1.063   6.357   0.863  3.1463 -0.2569  1.7071
10571TIP3    H253129   1.027   6.440   0.985 -0.7769  0.5804  0.0684
10572TIP3   OH253130   4.301   6.261   3.709  0.2099  0.0547 -0.1185
10572TIP3    H153131   4.378   6.224   3.752  0.1735  1.2335  0.9979
10572TIP3    H253132   4.227   6.229   3.761 -0.1349 -1.7406 -1.6671
10573TIP3   OH253133   6.903   3.771   1.839 -0.1194 -0.3025  0.1408
10573TIP3    H153134   6.841   3.765   1.912  0.9188  0.7684  1.1144
10573TIP3    H253135   6.988   3.781   1.881  0.3355  1.7204 -1.2185
10574TIP3   OH253136   0.162   0.332  15.878 -0.2657 -0.0563  0.1797
10574TIP3    H153137   0.114   0.397  15.929 -0.8187 -2.4367  2.8916
10574TIP3    H253138   0.099   0.299  15.814 -0.8870  0.0143  0.7517
10575TIP3   OH253139   3.205   1.890   2.688 -0.3669 -0.1420  0.5506
10575TIP3    H153140   3.186   1.982   2.671 -0.7167 -0.1849  0.7098
10575TIP3    H253141   3.295   1.878   2.657  0.4061  0.7326  2.4223
10576TIP3   OH253142   0.175   6.366   1.942 -0.2669  0.4886 -0.4816
10576TIP3    H153143   0.113   6.324   1.881  1.4083 -2.3377 -0.3321
10576TIP3    H253144   0.151   6.331   2.028  1.0765 -0.0977 -0.3343
10577TIP3   OH253145   5.700   1.994   0.003 -0.0234 -0.2680 -0.3374
10577TIP3    H153146   5.778   1.946  -0.026  1.2687  1.6892 -0.1889
10577TIP3    H253147   5.721   2.021   0.093 -0.1969  1.6781 -0.8606
10578TIP3   OH253148   2.839   2.773   0.647  0.3711 -0.0304 -0.5027
10578TIP3    H153149   2.780   2.699   0.633 -0.1021  0.3510 -0.5539
10578TIP3    H253150   2.920   2.734   0.680 -0.4080 -0.4329  0.9958
10579TIP3   OH253151   0.709   0.511   3.606  0.2475 -0.1175  0.7944
10579TIP3    H153152   0.718   0.593   3.654  1.9582 -1.8813  3.7114
10579TIP3    H253153   0.778   0.514   3.540 -0.5765  1.3415 -0.0101
10580TIP3   OH253154   5.503   3.366   0.975  0.4136  0.7144 -0.1729
10580TIP3    H153155   5.591   3.398   0.956 -0.1172  1.6133 -1.2259
10580TIP3    H253156   5.474   3.324   0.893 -0.7098  1.8199 -0.3670
10581TIP3   OH253157   4.076   4.532  14.060 -0.0371 -0.2590 -0.1128
10581TIP3    H153158   4.164   4.540  14.024 -0.2922 -0.2322 -0.7404
10581TIP3    H253159   4.021   4.512  13.984 -0.5994 -0.0740  0.2434
10582TIP3   OH253160   1.807   2.241  15.231 -0.5179  0.4047  0.1437
10582TIP3    H153161   1.724   2.216  15.189  0.0558 -1.4867  0.0650
10582TIP3    H253162   1.827   2.168  15.290  1.5032  0.4285 -0.4695
10583TIP3   OH253163   4.513   6.771   4.078  0.5589 -0.1982  0.6101
10583TIP3    H153164   4.529   6.715   4.154  1.1854 -2.2089 -0.9603
10583TIP3    H253165   4.552   6.724   4.005 -2.2603  0.4593 -1.4099
10584TIP3   OH253166   4.586   1.946  13.087  0.6545  0.2971  0.0120
10584TIP3    H153167   4.578   1.921  13.180  0.7939 -1.8041 -0.5102
10584TIP3    H253168   4.618   1.867  13.044  1.4081  1.5149 -1.7149
10585TIP3   OH253169   0.282   0.653  15.928 -0.2554 -0.5882  0.2677
10585TIP3    H153170   0.280   0.688  15.839  0.8279 -0.5838  0.2334
10585TIP3    H253171   0.239   0.719  15.981 -0.6672 -0.4677 -0.2166
10586TIP3   OH253172   4.600   1.096  14.625 -0.3060 -0.2680 -0.0522
10586TIP3    H153173   4.511   1.093  14.590 -1.5987 -2.0802  3.1790
10586TIP3    H253174   4.656   1.063  14.554 -2.3108 -0.2199 -1.6937
10587TIP3   OH253175   6.355   1.033   1.506 -0.1129 -0.3111 -0.4280
10587TIP3    H153176   6.406   1.053   1.428 -3.1986 -1.4851 -2.8435
10587TIP3    H253177   6.414   0.982   1.561  2.7725  2.2885 -1.0253
10588TIP3   OH253178   2.076   0.367   1.652 -0.5550  0.0861 -0.7238
10588TIP3    H153179   1.996   0.413   1.677 -0.5327  0.1626 -0.7957
10588TIP3    H253180   2.084   0.298   1.718 -1.1608 -0.4813 -1.2357
10589TIP3   OH253181   1.709   6.613   1.870  0.1910  0.0682 -0.1218
10589TIP3    H153182   1.754   6.697   1.861 -1.3976  0.9287 -0.3503
10589TIP3    H253183   1.682   6.610   1.962  0.2547 -0.1814 -0.1125
10590TIP3   OH253184   5.053   4.016   0.059 -0.3870 -0.2257  0.3664
10590TIP3    H153185   5.142   3.988   0.039 -0.1345  0.0386  1.0992
10590TIP3    H253186   5.062   4.067   0.139 -1.1379  0.1753  0.1943
10591TIP3   OH253187   4.554   6.066  14.830 -0.0626  0.1193 -0.5748
10591TIP3    H153188   4.573   6.148  14.785 -0.0011  0.3202 -0.1843
10591TIP3    H253189   4.479   6.086  14.886  1.6876  0.6985  1.6661
10592TIP3   OH253190   1.543   1.328  15.964 -0.0719  0.1456  0.2104
10592TIP3    H153191   1.500   1.260  15.913 -0.3235 -0.1895  0.8552
10592TIP3    H253192   1.472   1.387  15.989  0.3781  1.4650 -1.6074
10593TIP3   OH253193   1.647   6.353   5.386 -0.6184 -0.7759 -1.0145
10593TIP3    H153194   1.678   6.314   5.304  0.0541  0.2665 -1.2660
10593TIP3    H253195   1.564   6.395   5.363  0.2526  0.7152 -1.4968
10594TIP3   OH253196   5.613   6.599   2.793  0.1137 -0.1305  0.4866
10594TIP3    H153197   5.574   6.570   2.711 -0.0448 -0.1585  0.5707
10594TIP3    H253198   5.673   6.669   2.767 -0.6654  0.5379  0.4416
10595TIP3   OH253199   5.764   6.708   3.029  0.1479  0.3934  0.7427
10595TIP3    H153200   5.767   6.618   2.995 -1.4324  0.7136 -0.3250
10595TIP3    H253201   5.799   6.761   2.957  0.5600  0.6957  1.1635
10596TIP3   OH253202   0.698   1.762   2.735  0.4474  0.3010 -0.4512
10596TIP3    H153203   0.754   1.832   2.765  2.4504 -0.6242 -1.9205
10596TIP3    H253204   0.640   1.803   2.670 -1.4015  1.4911  1.8723
10597TIP3   OH253205   0.887   1.151  13.966  0.2064 -0.5063  0.0222
10597TIP3    H153206   0.926   1.102  13.894  1.5531  0.4502  0.0880
10597TIP3    H253207   0.869   1.238  13.929 -0.0137 -0.3214  0.5534
10598TIP3   OH253208   4.318   1.371   1.453  0.0432 -0.0291 -0.3183
10598TIP3    H153209   4.278   1.450   1.490 -0.6318  0.2730 -1.6569
10598TIP3    H253210   4.243   1.315   1.430  0.5574 -2.3021  3.2128
10599TIP3   OH253211   3.473   1.120  14.812  0.0796  0.0166  0.8320
10599TIP3    H153212   3.421   1.105  14.891  0.1213 -0.4214  0.7770
10599TIP3    H253213   3.561   1.139  14.845 -0.0023  0.2728  0.9070
10600TIP3   OH253214   7.064   0.853   2.639 -0.1959 -0.5211  0.0811
10600TIP3    H153215   7.108   0.936   2.659 -2.4537  0.0007  3.0895
10600TIP3    H253216   6.984   0.878   2.593 -0.9080 -1.0363  1.0319
10601TIP3   OH253217   2.241   0.853   2.715 -0.3605 -0.0338  0.6904
10601TIP3    H153218   2.169   0.855   2.652  0.2325  1.4648  0.0426
10601TIP3    H253219   2.203   0.886   2.796 -0.6297 -0.0773  0.5834
10602TIP3   OH253220   6.136   0.346  14.192 -0.2411 -0.0664  0.0320
10602TIP3    H153221   6.211   0.290  14.211  0.4234  1.0719  0.7967
10602TIP3    H253222   6.112   0.324  14.102 -0.1361 -1.7441  0.3865
10603TIP3   OH253223   0.511   1.736   0.043  0.2144  0.5830 -0.1500
10603TIP3    H153224   0.443   1.670   0.056  0.6399  0.1488 -0.0866
10603TIP3    H253225   0.559   1.737   0.126 -0.6316  1.9560  0.3398
10604TIP3   OH253226   3.262   1.826   2.053 -0.4126 -0.6880  0.3302
10604TIP3    H153227   3.228   1.877   1.980 -0.4800  0.8508  1.4188
10604TIP3    H253228   3.353   1.852   2.061 -0.5015 -0.5612  1.0302
10605TIP3   OH253229   1.082   0.960   0.921  0.1455 -0.3392 -0.1849
10605TIP3    H153230   0.999   0.917   0.901 -0.9656  1.6087  0.1189
10605TIP3    H253231   1.097   0.942   1.014  0.6844 -1.6976 -0.5243
10606TIP3   OH253232   1.575   6.759   3.786  0.0102 -0.0401 -0.2678
10606TIP3    H153233   1.495   6.777   3.736 -0.4731  0.5042  0.6950
10606TIP3    H253234   1.642   6.743   3.719 -0.7052  0.3873 -1.0883
10607TIP3   OH253235   3.087   7.290   0.176  0.6059  0.0610  0.4081
10607TIP3    H153236   3.149   7.294   0.103  0.8857  0.4826  0.6690
10607TIP3    H253237   3.013   7.344   0.148  0.5410 -0.0921  0.2783
10608TIP3   OH253238   1.265   3.706   0.091 -0.0045 -0.1640 -0.0091
10608TIP3    H153239   1.228   3.670   0.172 -1.6732 -1.6499 -1.4135
10608TIP3    H253240   1.348   3.658   0.080  0.1535 -0.0707  0.7111
10609TIP3   OH253241   2.602   2.205   2.459  0.4978 -0.1461 -0.3165
10609TIP3    H153242   2.691   2.216   2.491  0.6242 -0.7375 -0.4486
10609TIP3    H253243   2.612   2.189   2.365  0.2911 -0.7410 -0.2385
10610TIP3   OH253244   2.280   4.793   2.490 -0.4488 -0.1385  0.1494
10610TIP3    H153245   2.252   4.826   2.575  0.0912 -0.1296  0.3243
10610TIP3    H253246   2.320   4.869   2.447  1.1494 -0.6610  0.7060
10611TIP3   OH253247   2.570   0.351   1.522  0.4923  0.4539 -0.1082
10611TIP3    H153248   2.589   0.267   1.563  0.7908  0.4604 -0.2331
10611TIP3    H253249   2.652   0.376   1.479 -0.3750 -0.4680 -2.3492
10612TIP3   OH253250   4.369   1.167  15.408  0.1148  0.4244 -0.4810
10612TIP3    H153251   4.284   1.201  15.379  0.2635  1.4909  0.2875
10612TIP3    H253252   4.361   1.072  15.403 -1.6774  0.4833  1.1674
10613TIP3   OH253253   0.328   3.568  14.789 -0.0050  0.2392  0.3270
10613TIP3    H153254   0.309   3.571  14.883  0.7712 -0.6272  0.5209
10613TIP3    H253255   0.363   3.480  14.775  1.3273  0.8879 -0.5085
10614TIP3   OH253256   3.983   0.652  15.753  0.4291  0.2991 -0.3545
10614TIP3    H153257   3.971   0.735  15.708 -2.3537 -0.4947 -1.2134
10614TIP3    H253258   3.899   0.606  15.741  1.7086 -2.3968  0.5295
10615TIP3   OH253259   2.036   0.923  15.407  0.3427  0.9062  0.3143
10615TIP3    H153260   2.066   0.895  15.493  0.6220 -1.2683 -0.4713
10615TIP3    H253261   2.100   0.888  15.345 -0.4008  1.5721 -0.8694
10616TIP3   OH253262   1.318   2.232   0.803  0.2875 -0.5015  0.3344
10616TIP3    H153263   1.233   2.261   0.836  1.0082  1.4223  0.5355
10616TIP3    H253264   1.312   2.243   0.708 -0.2039 -1.7741  0.2139
10617TIP3   OH253265   2.394   4.805   4.061 -0.4060  0.3359  0.5119
10617TIP3    H153266   2.401   4.894   4.025  2.1117 -0.5136 -1.2224
10617TIP3    H253267   2.386   4.819   4.156 -1.9071  2.4453  0.1207
10618TIP3   OH253268   3.631   3.703   2.257 -0.4397 -0.2423 -0.1656
10618TIP3    H153269   3.657   3.747   2.338 -1.4462 -0.8780  0.5260
10618TIP3    H253270   3.689   3.627   2.251 -0.6565 -0.4433  0.2151
10619TIP3   OH253271   1.585   0.620   0.519 -0.5487  0.2771  0.5226
10619TIP3    H153272   1.548   0.557   0.582  1.4901 -0.9546  0.5214
10619TIP3    H253273   1.568   0.581   0.433 -0.5434  0.4382  0.4479
10620TIP3   OH253274   5.272   4.648  12.453  0.5701  0.1330 -0.4061
10620TIP3    H153275   5.303   4.628  12.364  0.8120  1.7302 -0.6868
10620TIP3    H253276   5.345   4.626  12.510  0.8375  0.2105 -0.7165
10621TIP3   OH253277   2.781   0.020  13.290  0.0203 -0.3387  0.3040
10621TIP3    H153278   2.752   0.009  13.381 -1.8461  2.1026  0.0548
10621TIP3    H253279   2.731  -0.046  13.241 -1.9052  0.8989  0.5372
10622TIP3   OH253280   0.494   3.653   4.072 -0.0429 -0.0916 -0.2906
10622TIP3    H153281   0.585   3.632   4.052  0.0100 -0.7174  0.5897
10622TIP3    H253282   0.444   3.578   4.042 -0.2899  0.2956 -0.8665
10623TIP3   OH253283   5.743   2.435  14.000  0.3460  0.4103 -0.0358
10623TIP3    H153284   5.796   2.359  13.974 -2.1579 -0.9357 -1.4802
10623TIP3    H253285   5.735   2.486  13.919 -1.4344  0.0148 -0.1207
10624TIP3   OH253286   1.634   3.328  15.699  0.1279 -0.6192  0.1093
10624TIP3    H153287   1.690   3.405  15.711 -1.1803  0.5043 -0.7707
10624TIP3    H253288   1.590   3.317  15.783  0.3383 -0.4104  0.2477
10625TIP3   OH253289   2.942   1.327   0.221 -0.0399 -0.5573 -0.5225
10625TIP3    H153290   2.918   1.283   0.303  0.1693  0.0747 -0.1225
10625TIP3    H253291   2.977   1.256   0.166  1.4614 -0.7029  0.5789
10626TIP3   OH253292   2.031   1.624   1.057  0.1076  0.1472 -0.0566
10626TIP3    H153293   2.102   1.617   0.993 -0.8829 -0.7582 -1.0871
10626TIP3    H253294   2.075   1.642   1.140  1.4113  1.4714 -1.0058
10627TIP3   OH253295   2.024   7.293  13.961 -0.3651  0.9282  0.0327
10627TIP3    H153296   1.935   7.302  13.995 -0.9804  2.2299 -1.8108
10627TIP3    H253297   2.012   7.265  13.870  1.1208  0.5890 -0.0705
10628TIP3   OH253298   5.414   3.977  13.524 -1.0398  0.0115  0.6421
10628TIP3    H153299   5.445   3.888  13.542  0.0226  0.3493  0.5533
10628TIP3    H253300   5.349   3.966  13.454 -1.3581 -0.7545  1.0542
10629TIP3   OH253301   0.125   0.532   2.344 -0.1155 -0.5900  0.1593
10629TIP3    H153302   0.089   0.472   2.278 -2.4431  1.7583 -0.7519
10629TIP3    H253303   0.051   0.586   2.370  1.0304 -0.7569  3.9697
10630TIP3   OH253304   0.511   2.747   2.735  0.1541 -0.2741 -0.6382
10630TIP3    H153305   0.432   2.722   2.687 -0.0358 -0.6848 -0.1192
10630TIP3    H253306   0.480   2.803   2.806  0.4235  0.2478 -0.9261
10631TIP3   OH253307   2.157   2.750  14.691 -0.0702 -0.2854  0.4034
10631TIP3    H153308   2.134   2.833  14.733 -1.3876 -1.3428  1.8150
10631TIP3    H253309   2.136   2.764  14.598 -1.1018  0.6574  0.7696
10632TIP3   OH253310   1.496   1.098   3.162 -0.6264  0.6369  0.2863
10632TIP3    H153311   1.464   1.126   3.248  2.7952 -0.2003  1.9285
10632TIP3    H253312   1.549   1.172   3.132 -0.3616  0.2068 -0.3061
10633TIP3   OH253313   3.983   1.917   1.809  0.0772  0.0166 -0.3803
10633TIP3    H153314   3.988   1.859   1.733 -0.3442  0.8496 -1.0540
10633TIP3    H253315   4.058   1.893   1.862  0.1669 -0.8317 -0.8797
10634TIP3   OH253316   6.545   1.543  15.848  0.5996  0.4905 -0.6228
10634TIP3    H153317   6.487   1.611  15.880 -1.2790 -2.6566  3.0486
10634TIP3    H253318   6.627   1.555  15.897  0.5099  0.5268 -0.4836
10635TIP3   OH253319   7.021   0.176   1.084  0.1036  0.3844 -0.2946
10635TIP3    H153320   7.021   0.110   1.154 -0.4362 -0.1604 -0.7934
10635TIP3    H253321   7.000   0.258   1.128 -3.0176 -0.3979 -0.1931
10636TIP3   OH253322   3.868   3.006   0.009 -0.5645 -0.0522  0.3001
10636TIP3    H153323   3.817   3.062   0.068 -1.0190 -0.3110  0.1574
10636TIP3    H253324   3.889   2.929   0.062 -2.2099 -0.9463 -0.2922
10637TIP3   OH253325   5.371   0.458   0.225 -0.0268 -0.3241  0.3539
10637TIP3    H153326   5.321   0.377   0.239  0.5189 -0.9709 -1.2703
10637TIP3    H253327   5.455   0.428   0.192  0.1314  0.9181 -0.3830
10638TIP3   OH253328   0.208   1.282   3.638 -0.6670 -0.4220 -0.5767
10638TIP3    H153329   0.163   1.203   3.669  0.6848 -1.6141 -1.6080
10638TIP3    H253330   0.220   1.268   3.544  3.1971 -0.8640 -0.1161
10639TIP3   OH253331   4.638   2.573   1.774  0.1263  0.0088  0.2244
10639TIP3    H153332   4.667   2.482   1.781  3.2746  0.8803 -0.4979
10639TIP3    H253333   4.654   2.609   1.861 -1.6104 -0.2271  0.6600
10640TIP3   OH253334   4.310   1.688   2.751 -0.2504  0.1476  0.3265
10640TIP3    H153335   4.270   1.602   2.763 -0.2668  0.3024  1.4091
10640TIP3    H253336   4.236   1.749   2.743 -0.2412  0.3898  2.0062
10641TIP3   OH253337   4.997   0.874   3.615 -0.0843 -0.4308 -0.0377
10641TIP3    H153338   4.997   0.954   3.562 -1.0484  0.3134  1.0437
10641TIP3    H253339   4.958   0.902   3.698 -0.5141 -2.0527  0.3097
10642TIP3   OH253340   6.365   1.201   1.923 -0.2861 -0.2002  0.2539
10642TIP3    H153341   6.286   1.176   1.875 -2.1035  0.4210  2.7888
10642TIP3    H253342   6.379   1.129   1.985 -0.7280  1.1280  1.9458
10643TIP3   OH253343   2.252   4.940   2.153 -0.5080 -0.2409 -0.2317
10643TIP3    H153344   2.307   4.929   2.230 -1.2558 -1.1014  0.1941
10643TIP3    H253345   2.229   5.033   2.152 -0.0544 -0.1245  0.2756
10644TIP3   OH253346   0.880   0.538   0.489 -0.5409 -0.4094 -0.2994
10644TIP3    H153347   0.812   0.604   0.481 -1.3836 -1.1968  0.3622
10644TIP3    H253348   0.853   0.484   0.562  2.9491  1.8238  2.8626
10645TIP3   OH253349   3.366   1.666   2.875  0.4305 -0.5080 -0.5733
10645TIP3    H153350   3.407   1.752   2.861 -1.7058  0.9759  1.9623
10645TIP3    H253351   3.289   1.667   2.817  0.0203 -0.4257 -0.0269
10646TIP3   OH253352   4.106   1.206   1.374 -0.3395  0.4556 -0.1999
10646TIP3    H153353   4.153   1.173   1.297 -0.4312  1.4339 -0.6845
10646TIP3    H253354   4.059   1.130   1.408 -0.9714  0.2039 -1.6017
10647TIP3   OH253355   4.099   3.713  13.704 -0.1338 -0.3935  0.1736
10647TIP3    H153356   4.088   3.806  13.723  2.1213 -0.0025 -0.2738
10647TIP3    H253357   4.026   3.691  13.647 -0.5844  1.1413  0.1404
10648TIP3   OH253358   2.821   3.127  12.764 -0.3619 -0.2294 -0.0171
10648TIP3    H153359   2.840   3.079  12.845  1.0706  0.1824 -0.0958
10648TIP3    H253360   2.800   3.216  12.792  3.0779  0.7261 -0.2453
10649TIP3   OH253361   0.487   6.581   0.898  0.4508  0.3246 -0.1925
10649TIP3    H153362   0.414   6.577   0.960 -1.5153 -0.1648 -2.4858
10649TIP3    H253363   0.509   6.489   0.882 -1.4000  0.2937 -2.8655
10650TIP3   OH253364   2.694   1.772   4.640 -0.1889 -0.6421  0.1366
10650TIP3    H153365   2.669   1.813   4.557 -0.9400 -0.7649  0.2973
10650TIP3    H253366   2.625   1.707   4.655  0.8815 -1.8451 -0.0340
10651TIP3   OH253367   3.064   0.522  14.962 -0.6260  0.0842 -0.3776
10651TIP3    H153368   3.055   0.559  15.050  3.3789 -1.0605  0.6305
10651TIP3    H253369   3.027   0.434  14.969 -0.6569  0.1337  0.0979
10652TIP3   OH253370   4.583   4.147   1.623 -0.3377 -0.6483 -0.8159
10652TIP3    H153371   4.559   4.193   1.542 -2.9743 -0.6793 -0.0928
10652TIP3    H253372   4.577   4.215   1.690  1.8588 -0.6212 -0.6285
10653TIP3   OH253373   0.047   3.317  15.495 -0.3520 -0.7374 -0.2582
10653TIP3    H153374   0.092   3.278  15.421 -1.9194  0.9001 -2.1358
10653TIP3    H253375  -0.013   3.249  15.526 -0.6171 -0.9939 -1.3301
10654TIP3   OH253376   4.240   0.598  13.716 -0.4278  0.5262 -0.7792
10654TIP3    H153377   4.267   0.640  13.634 -1.1953  2.2052 -0.1912
10654TIP3    H253378   4.146   0.612  13.720 -0.1879  1.8098  1.1091
10655TIP3   OH253379   4.631   1.015   3.087  0.0103 -0.2294  0.0939
10655TIP3    H153380   4.552   1.069   3.075  0.1708  0.2836  1.2302
10655TIP3    H253381   4.625   0.949   3.019 -0.0240  1.4349 -1.5664
10656TIP3   OH253382   2.902   2.152  14.947 -0.1269 -0.2778 -0.4864
10656TIP3    H153383   2.848   2.118  15.018 -2.3517  1.1213 -1.4441
10656TIP3    H253384   2.991   2.121  14.967 -0.8188 -0.4806  2.5112
10657TIP3   OH253385   6.069   0.047   1.854 -0.0674  0.2231 -0.2472
10657TIP3    H153386   6.113  -0.037   1.865 -1.7734 -0.6949 -0.2227
10657TIP3    H253387   6.053   0.054   1.760 -0.0106  0.4802 -0.2390
10658TIP3   OH253388   2.816   6.326   3.150  0.7015  0.1724 -0.6438
10658TIP3    H153389   2.890   6.313   3.210  0.8879  1.6913 -0.5299
10658TIP3    H253390   2.847   6.293   3.066  1.0151 -0.4628 -0.2855
10659TIP3   OH253391   6.504   1.147   1.295  0.1448  0.5247  0.1194
10659TIP3    H153392   6.564   1.127   1.223 -2.3360 -0.6889 -1.7076
10659TIP3    H253393   6.458   1.226   1.266 -0.7144  0.1528  0.4597
10660TIP3   OH253394   3.727   5.468   1.498 -0.2348 -0.2451  0.1644
10660TIP3    H153395   3.719   5.416   1.578  0.6326 -0.6121  0.0255
10660TIP3    H253396   3.797   5.424   1.449 -0.4212  0.2702 -0.5635
10661TIP3   OH253397   4.578   3.589   0.971  0.6760 -0.1121 -0.5841
10661TIP3    H153398   4.605   3.546   0.890  1.0637 -0.3115 -0.3546
10661TIP3    H253399   4.487   3.564   0.983  1.3847 -2.2741  0.4425
10662TIP3   OH253400   3.288   5.538   2.400 -0.5885 -0.2300  0.3751
10662TIP3    H153401   3.366   5.555   2.348 -1.6033 -2.6733 -2.1002
10662TIP3    H253402   3.262   5.623   2.435  1.1381  1.1891 -1.7225
10663TIP3   OH253403   3.063   2.703   1.258 -0.3775 -0.5774  0.1745
10663TIP3    H153404   3.013   2.733   1.182  1.1520 -1.0092 -1.0307
10663TIP3    H253405   3.143   2.665   1.220  0.6923 -0.2117  2.0378
10664TIP3   OH253406   0.081   0.118  15.696 -0.2383 -0.2494 -0.3130
10664TIP3    H153407   0.048   0.074  15.617 -0.3240  1.9950 -1.5628
10664TIP3    H253408   0.173   0.091  15.701 -0.3377 -0.7343 -0.9497
10665TIP3   OH253409   1.228   2.404   2.251 -0.2697  0.4008 -0.0578
10665TIP3    H153410   1.299   2.374   2.308  1.1153  2.2933 -0.7536
10665TIP3    H253411   1.158   2.340   2.264  2.1795 -2.4982 -0.6714
10666TIP3   OH253412   4.802   1.179   2.610  0.4629  0.1524 -0.9907
10666TIP3    H153413   4.845   1.230   2.678  0.1685  0.1296 -0.7820
10666TIP3    H253414   4.757   1.109   2.658  0.5260 -0.0573 -1.2371
10667TIP3   OH253415   5.589   4.007   3.287  0.4825 -0.1013  0.2970
10667TIP3    H153416   5.648   4.057   3.231  0.6406 -1.7144 -1.0241
10667TIP3    H253417   5.587   4.055   3.370  2.7177  0.6175 -0.0431
10668TIP3   OH253418   4.529   1.971   1.168  0.1171  0.2914  0.1281
10668TIP3    H153419   4.537   1.914   1.244 -1.4827 -0.0759  0.0328
10668TIP3    H253420   4.616   1.967   1.126  0.6879 -0.3092  1.3445
10669TIP3   OH253421   7.043   5.417   1.510  0.2928  0.1142  0.0531
10669TIP3    H153422   7.009   5.335   1.474  0.6445  0.0877 -0.2110
10669TIP3    H253423   7.017   5.483   1.446  2.5932 -0.1896 -1.2215
10670TIP3   OH253424   6.804   0.321   3.283 -0.2417  0.1603  0.2672
10670TIP3    H153425   6.749   0.279   3.217 -0.9164 -0.0558  0.9569
10670TIP3    H253426   6.893   0.292   3.263 -0.3957  0.3939 -0.7679
10671TIP3   OH253427   3.793   2.266   4.748 -0.0182 -1.1378 -0.8542
10671TIP3    H153428   3.723   2.317   4.708 -0.3466 -0.6753  0.3032
10671TIP3    H253429   3.765   2.175   4.737 -0.8391 -0.9534 -0.3485
10672TIP3   OH253430   5.072   1.157   2.577 -0.2824  0.4725  0.1449
10672TIP3    H153431   5.083   1.095   2.505  0.2062  0.7447 -0.0121
10672TIP3    H253432   4.977   1.163   2.588 -0.3856  0.9249 -0.9014
10673TIP3   OH253433   0.273   1.062   1.227  0.4952 -0.3233 -0.5286
10673TIP3    H153434   0.209   1.121   1.266  0.4388 -0.2896 -0.6687
10673TIP3    H253435   0.332   1.120   1.178  0.2210 -0.4132 -0.9713
10674TIP3   OH253436   4.324   0.916  15.597  0.2160 -0.2616 -0.3470
10674TIP3    H153437   4.296   0.826  15.582  0.8155 -1.3252  4.0406
10674TIP3    H253438   4.418   0.915  15.579  0.3433 -0.7039  0.3091
10675TIP3   OH253439   2.986   3.246   2.739 -0.2600  0.4210 -0.0668
10675TIP3    H153440   3.015   3.158   2.715  0.6409  0.8851 -0.7190
10675TIP3    H253441   2.990   3.247   2.835  0.4630 -0.0133 -0.0867
10676TIP3   OH253442   0.393   3.249   4.230  0.1768  0.5415 -0.0229
10676TIP3    H153443   0.344   3.302   4.168  0.3172  0.3400 -0.3051
10676TIP3    H253444   0.413   3.308   4.302  1.0544  1.0872 -0.7110
10677TIP3   OH253445   3.855   5.686   4.785 -0.0785  0.1318 -0.0816
10677TIP3    H153446   3.809   5.752   4.733 -2.2991  0.8363  2.6256
10677TIP3    H253447   3.808   5.605   4.767 -0.4059  0.2452  0.2361
10678TIP3   OH253448   5.295   0.556   3.382 -0.2282 -0.4780  0.0832
10678TIP3    H153449   5.287   0.472   3.337  0.0429 -0.2182 -0.4520
10678TIP3    H253450   5.351   0.537   3.457 -2.4806 -1.4022  1.5835
10679TIP3   OH253451   6.299   2.170  14.537 -0.1473 -0.0663 -0.0643
10679TIP3    H153452   6.288   2.077  14.516  2.4753 -1.3122  3.5687
10679TIP3    H253453   6.372   2.198  14.483 -0.6371 -0.2314 -0.8193
10680TIP3   OH253454   7.029   4.299   0.900 -0.2243 -0.4283  0.0750
10680TIP3    H153455   7.041   4.382   0.944 -0.0392 -0.3968 -0.0329
10680TIP3    H253456   7.033   4.321   0.806 -0.6415 -0.4891  0.0415
10681TIP3   OH253457   2.132   2.319  14.787 -0.2508  0.1577 -0.0002
10681TIP3    H153458   2.074   2.290  14.857  1.4225  1.5161  1.9936
10681TIP3    H253459   2.160   2.238  14.744 -3.3846 -0.5256 -0.8758
10682TIP3   OH253460   4.403   1.506   3.934 -0.1387  0.6420  0.0167
10682TIP3    H153461   4.452   1.436   3.976 -1.9777 -0.9524 -0.3967
10682TIP3    H253462   4.431   1.504   3.842 -0.3301  0.3014 -0.0352
10683TIP3   OH253463   4.966   4.119   0.804 -0.2595 -0.3851 -0.1879
10683TIP3    H153464   5.042   4.177   0.813 -0.0452 -0.7829  0.5938
10683TIP3    H253465   4.891   4.179   0.804  0.0286 -0.0181 -0.5896
10684TIP3   OH253466   3.855   3.830  14.196 -0.5854  0.2030  0.2984
10684TIP3    H153467   3.813   3.896  14.250  1.4829  3.1439 -1.5526
10684TIP3    H253468   3.872   3.874  14.113  3.4292 -1.7012 -0.0213
10685TIP3   OH253469   4.513   2.518   2.454 -0.2080 -0.3391 -0.1455
10685TIP3    H153470   4.472   2.604   2.445 -1.7658 -1.2475 -1.9312
10685TIP3    H253471   4.446   2.463   2.494 -0.2229 -1.4595 -1.6913
10686TIP3   OH253472   5.049   0.866   1.704 -0.7263 -0.6990  0.4551
10686TIP3    H153473   4.966   0.913   1.703 -0.8562 -0.8662  1.9120
10686TIP3    H253474   5.042   0.807   1.779  1.0050 -0.1797  1.0518
10687TIP3   OH253475   6.947   3.589   1.394 -0.1379  0.9444 -0.6135
10687TIP3    H153476   6.943   3.541   1.476 -0.8349  0.2434 -1.0489
10687TIP3    H253477   6.881   3.658   1.402  0.2536  1.2893 -0.3324
10688TIP3   OH253478   6.778   7.176   3.595  0.3343 -0.0692  1.0194
10688TIP3    H153479   6.858   7.137   3.629  0.3346 -0.3919  0.6513
10688TIP3    H253480   6.804   7.217   3.512 -0.1240 -1.2287  0.2807
10689TIP3   OH253481   3.913   0.728   3.402 -0.3287  0.3867 -0.8302
10689TIP3    H153482   3.983   0.701   3.342  0.4471 -0.5764  0.4690
10689TIP3    H253483   3.920   0.667   3.475 -2.2413  0.5847 -0.4610
10690TIP3   OH253484   4.674   0.227   0.313  0.1360  0.0135 -0.5698
10690TIP3    H153485   4.696   0.318   0.333 -0.8258 -0.2096  1.5667
10690TIP3    H253486   4.586   0.215   0.347  0.4416 -1.8522 -0.3850
10691TIP3   OH253487   3.027   1.593   3.323 -0.1609  0.2036 -0.3666
10691TIP3    H153488   3.093   1.662   3.318  1.6309 -1.3610  0.8743
10691TIP3    H253489   3.022   1.557   3.235 -0.7166  1.5191 -0.8929
10692TIP3   OH253490   4.394   2.451   2.099 -0.5388  0.3755  0.1104
10692TIP3    H153491   4.389   2.385   2.030 -5.5708  1.8312 -1.0861
10692TIP3    H253492   4.380   2.402   2.180  0.6378 -0.6605 -0.2951
10693TIP3   OH253493   6.937   7.270  14.566 -0.0875  0.5019  0.1925
10693TIP3    H153494   6.952   7.335  14.635  2.1132 -0.8837  1.0608
10693TIP3    H253495   7.024   7.252  14.530 -0.9463 -0.3683 -1.5228
10694TIP3   OH253496   5.527   4.153  14.199  0.2745  0.1241  0.5626
10694TIP3    H153497   5.437   4.177  14.223 -0.0096  0.7695 -1.1046
10694TIP3    H253498   5.578   4.170  14.278 -0.8522  0.9977  1.1133
10695TIP3   OH253499   4.915   7.137  14.512 -0.5620  0.4835  0.5346
10695TIP3    H153500   4.827   7.104  14.529 -0.5300  0.4860  0.7096
10695TIP3    H253501   4.909   7.177  14.425 -0.2893 -1.0823 -0.2252
10696TIP3   OH253502   3.041   0.097   1.516 -0.1308  0.4169 -0.6617
10696TIP3    H153503   3.128   0.062   1.498  0.0824  0.7540 -0.2905
10696TIP3    H253504   3.027   0.080   1.609 -1.3644 -1.6195 -1.1775
10697TIP3   OH253505   5.820   0.806   1.952  0.0214  0.3064  0.1293
10697TIP3    H153506   5.860   0.811   2.039  0.6453  0.0326 -0.1408
10697TIP3    H253507   5.727   0.820   1.968  0.2272  1.0250  0.7546
10698TIP3   OH253508   6.323   0.004   0.844 -0.2574 -0.1689 -0.1850
10698TIP3    H153509   6.271   0.081   0.869  0.6361 -0.1393  1.6465
10698TIP3    H253510   6.365  -0.024   0.926  1.9611 -0.6913 -1.4848
10699TIP3   OH253511   5.272   4.143   0.892 -0.1992 -0.1965  0.3147
10699TIP3    H153512   5.333   4.157   0.964  0.8250  0.5114 -0.6693
10699TIP3    H253513   5.328   4.145   0.813 -1.1169 -2.1574 -0.4041
10700TIP3   OH253514   5.111   1.971   3.251  0.8931 -0.2708 -0.1245
10700TIP3    H153515   5.041   2.035   3.264  1.9243  0.8459 -0.0054
10700TIP3    H253516   5.065   1.890   3.227 -0.6737 -0.4966  3.2720
10701TIP3   OH253517   1.725   3.528  15.071  0.1272  0.3548 -0.0924
10701TIP3    H153518   1.640   3.566  15.052 -0.5482 -0.5082  1.1222
10701TIP3    H253519   1.709   3.468  15.144  1.9202  0.7735  0.6881
10702TIP3   OH253520   1.024   2.044   4.350 -0.3693  0.9550 -0.5332
10702TIP3    H153521   1.118   2.033   4.336 -0.4775  0.4294 -0.8664
10702TIP3    H253522   1.006   2.000   4.433 -0.4067  0.6267 -0.7159
10703TIP3   OH253523   4.793   6.075  14.985 -0.0586  0.0916 -0.5695
10703TIP3    H153524   4.825   6.149  14.932 -0.9763  0.2880 -0.8603
10703TIP3    H253525   4.704   6.060  14.953 -0.5245  0.0323  0.7311
10704TIP3   OH253526   1.712   7.082   1.551 -0.2134 -0.6049  0.1777
10704TIP3    H153527   1.784   7.067   1.491 -0.9036  0.8578 -1.0662
10704TIP3    H253528   1.644   7.021   1.523 -0.9793  0.8914 -1.3476
10705TIP3   OH253529   4.236   6.642   0.179 -0.1906  0.6365 -0.2033
10705TIP3    H153530   4.283   6.643   0.263 -1.0689  1.1099  0.2856
10705TIP3    H253531   4.166   6.705   0.190 -1.2143 -0.3759 -0.7873
10706TIP3   OH253532   3.661   0.248   2.776 -0.6717 -0.6825  0.3583
10706TIP3    H153533   3.615   0.306   2.715 -1.2578 -0.0991  1.3486
10706TIP3    H253534   3.637   0.160   2.747 -2.9106 -0.4008  1.2003
10707TIP3   OH253535   1.653   2.004   1.144 -0.7119  0.1594  0.2840
10707TIP3    H153536   1.584   2.034   1.086 -0.5403 -2.6225 -1.4122
10707TIP3    H253537   1.726   1.983   1.087  0.7679  0.8143  1.8585
10708TIP3   OH253538   5.927   0.886   0.076  0.2109 -0.2231 -0.1365
10708TIP3    H153539   6.020   0.870   0.061  0.5682  0.1690  1.5107
10708TIP3    H253540   5.894   0.803   0.111  0.0459 -0.2101 -0.2609
10709TIP3   OH253541   2.023   2.122   2.161 -0.2727  0.3241  0.5369
10709TIP3    H153542   2.043   2.036   2.123  0.9627  0.8415  0.0031
10709TIP3    H253543   2.088   2.181   2.124 -0.5618  1.3264  1.5928
10710TIP3   OH253544   0.894   0.108   4.501  0.3880  0.3017  0.4057
10710TIP3    H153545   0.868   0.165   4.428  1.6900 -0.6615 -0.8578
10710TIP3    H253546   0.897   0.165   4.577 -0.3343  1.4834 -0.4425
10711TIP3   OH253547   3.583   2.225   4.326  0.9607 -0.0864 -0.5975
10711TIP3    H153548   3.490   2.204   4.324  0.6510  1.2976 -0.7356
10711TIP3    H253549   3.622   2.154   4.377 -0.2218 -0.4702 -0.2118
10712TIP3   OH253550   5.904   2.514   1.851  0.1211  0.3995 -0.1714
10712TIP3    H153551   5.952   2.456   1.792  1.1367  0.2991  0.7308
10712TIP3    H253552   5.865   2.580   1.794  0.6341 -0.0083 -1.0039
10713TIP3   OH253553   4.940   0.395   0.131 -0.0387 -0.1443  0.2400
10713TIP3    H153554   4.923   0.370   0.222 -1.8563 -0.1782 -0.0905
10713TIP3    H253555   4.890   0.476   0.118 -0.9396 -0.9100 -1.1466
10714TIP3   OH253556   1.127   0.228   2.115 -0.3076  0.0371 -0.7788
10714TIP3    H153557   1.077   0.284   2.056  0.5801  1.7813  0.0718
10714TIP3    H253558   1.196   0.285   2.149  0.4444 -1.5077  0.3463
10715TIP3   OH253559   5.028   6.971   1.844  0.6436  0.9144 -0.1122
10715TIP3    H153560   4.953   6.932   1.798  0.7020  0.1292  0.4453
10715TIP3    H253561   5.038   6.918   1.923 -0.2988  3.0954  1.5080
10716TIP3   OH253562   3.966   6.027   1.524  0.3721 -0.0700  0.7529
10716TIP3    H153563   3.907   6.087   1.478  0.5819 -0.1649  0.3550
10716TIP3    H253564   4.023   5.992   1.455  2.7706  2.1728  1.5253
10717TIP3   OH253565   3.648   2.611   3.086 -0.3061  0.1091  0.0055
10717TIP3    H153566   3.555   2.616   3.063 -0.6770 -0.5323  1.3218
10717TIP3    H253567   3.690   2.676   3.030 -1.4203 -0.2315 -1.2599
10718TIP3   OH253568   5.415   2.789   3.768 -0.1219 -0.0452 -0.0375
10718TIP3    H153569   5.342   2.731   3.786 -1.2015  0.9967 -0.9691
10718TIP3    H253570   5.383   2.849   3.701  1.1027  1.3512  0.5721
10719TIP3   OH253571   3.064   1.437   1.054  0.1281  0.1115 -0.2537
10719TIP3    H153572   2.989   1.379   1.050  0.5635 -0.5110  0.4965
10719TIP3    H253573   3.032   1.516   1.098  0.1625 -0.5509  0.9795
10720TIP3   OH253574   2.247   5.349   5.155  0.2417  0.7558 -0.6936
10720TIP3    H153575   2.208   5.271   5.194 -0.1578  1.4157  0.2754
10720TIP3    H253576   2.204   5.358   5.070 -0.7563  0.7118 -0.2091
10721TIP3   OH253577   1.784   0.617  15.735 -0.4844  0.0377  0.1331
10721TIP3    H153578   1.708   0.630  15.791 -1.1210 -2.7362 -0.0063
10721TIP3    H253579   1.760   0.544  15.678  1.9671 -0.3590 -0.4690
10722TIP3   OH253580   2.476   0.144  15.860  0.1511  0.2788  0.3226
10722TIP3    H153581   2.466   0.174  15.769 -1.9831 -2.1230 -0.2736
10722TIP3    H253582   2.562   0.176  15.886  0.9945  0.6204 -2.7122
10723TIP3   OH253583   2.833   0.514   1.677  0.1927  0.2322 -0.3264
10723TIP3    H153584   2.851   0.444   1.739 -0.9017  1.7128  1.7105
10723TIP3    H253585   2.784   0.472   1.606 -1.8433 -0.7850  1.6377
10724TIP3   OH253586   5.925   2.382   2.274 -0.2459  0.2657 -0.5840
10724TIP3    H153587   5.863   2.453   2.295 -0.9202 -0.3230 -0.5599
10724TIP3    H253588   5.872   2.318   2.226 -0.2673 -1.4220  1.6114
10725TIP3   OH253589   5.023   2.999   1.873  0.6563 -0.0809 -0.1294
10725TIP3    H153590   5.055   3.087   1.890  2.8021 -0.6756 -0.9481
10725TIP3    H253591   5.066   2.974   1.791 -0.1227 -1.8037 -0.0237
10726TIP3   OH253592   6.503   2.203   0.560 -0.1977 -0.5510  0.1961
10726TIP3    H153593   6.557   2.242   0.491 -2.3994 -0.1345 -1.3336
10726TIP3    H253594   6.556   2.212   0.639  0.3049  3.5265 -0.4993
10727TIP3   OH253595   4.573   3.049   4.547  0.1603 -0.0008 -0.3231
10727TIP3    H153596   4.564   3.027   4.454  1.6426 -1.2045 -0.1972
10727TIP3    H253597   4.510   2.991   4.591 -0.6830  0.7093 -0.5818
10728TIP3   OH253598   5.828   4.990   0.421 -0.2452 -0.0455 -0.5482
10728TIP3    H153599   5.790   4.907   0.448  0.6556 -0.2880  0.0146
10728TIP3    H253600   5.774   5.057   0.463 -0.6443 -0.3569 -0.5654
10729TIP3   OH253601   3.143   6.982   0.081 -0.1083  0.1453 -0.1531
10729TIP3    H153602   3.112   7.032   0.157 -1.6183  1.9357 -1.8705
10729TIP3    H253603   3.238   6.995   0.081  0.3676 -2.7870  3.3818
10730TIP3   OH253604   2.711   0.848   0.121  0.2481 -0.1390 -0.0125
10730TIP3    H153605   2.699   0.760   0.157  0.8570 -0.3382 -0.2896
10730TIP3    H253606   2.768   0.892   0.185  1.0504 -0.3833 -0.5575
10731TIP3   OH253607   3.310   2.230   1.005  0.1942 -0.0826  0.4001
10731TIP3    H153608   3.275   2.144   1.030 -1.9726  0.8098  0.5618
10731TIP3    H253609   3.401   2.213   0.981 -0.4998 -2.6046 -0.5842
10732TIP3   OH253610   1.872   2.932   2.148 -0.1678 -0.3315 -0.0156
10732TIP3    H153611   1.799   2.882   2.186 -0.0340 -0.3290  0.2465
10732TIP3    H253612   1.915   2.871   2.089 -0.8728 -0.0888 -0.7907
10733TIP3   OH253613   0.435   2.785  13.654 -0.2276  0.2090  0.3774
10733TIP3    H153614   0.358   2.736  13.681  0.3352 -1.0820 -0.3026
10733TIP3    H253615   0.503   2.719  13.640  1.5821  1.4778  2.8039
10734TIP3   OH253616   3.347   0.658   0.406 -0.4036  0.6482  0.3738
10734TIP3    H153617   3.280   0.630   0.468 -1.3874 -0.3327 -1.0888
10734TIP3    H253618   3.430   0.635   0.448 -1.0996 -1.3060  0.7063
10735TIP3   OH253619   4.094   0.014   1.576  0.1308 -0.9443  0.0869
10735TIP3    H153620   4.172   0.041   1.626 -1.0867 -0.8614  1.9876
10735TIP3    H253621   4.077  -0.076   1.605 -0.8825 -0.7138  0.2271
10736TIP3   OH253622   3.384   0.514   3.798 -0.2078  0.0002  0.0837
10736TIP3    H153623   3.439   0.537   3.723  1.0272 -1.4138  0.5337
10736TIP3    H253624   3.341   0.596   3.822  0.5679  0.8043 -1.1991
10737TIP3   OH253625   5.045   1.722   2.334 -0.1011 -0.2666 -0.4302
10737TIP3    H153626   4.988   1.648   2.354  2.0302 -1.2282  2.3782
10737TIP3    H253627   4.985   1.793   2.311 -2.2825 -2.0790 -0.4926
10738TIP3   OH253628   3.944   0.199  14.418  0.0686  0.5560  0.5155
10738TIP3    H153629   3.935   0.164  14.506 -1.7917 -0.1995  0.0342
10738TIP3    H253630   4.039   0.198  14.402  0.3239 -0.5790  1.9749
10739TIP3   OH253631   5.448   1.548   2.172 -0.5484 -0.0337  0.1184
10739TIP3    H153632   5.487   1.630   2.203  2.2489 -1.8670  1.6917
10739TIP3    H253633   5.354   1.558   2.188 -0.0994  2.3280  1.5003
10740TIP3   OH253634   0.644   2.025   1.661 -0.1491  0.3900  0.1743
10740TIP3    H153635   0.609   2.105   1.622 -0.2456 -0.2993 -1.1808
10740TIP3    H253636   0.734   2.047   1.685 -0.6578  1.3594  1.2244
10741TIP3   OH253637   5.299   2.685   5.860  0.0275  0.3625 -0.1508
10741TIP3    H153638   5.263   2.756   5.913  1.0191  0.4050  0.4727
10741TIP3    H253639   5.267   2.605   5.902  0.7543  0.3973  0.4785
10742TIP3   OH253640   5.263   6.656   4.097 -0.2812 -0.2616  0.0070
10742TIP3    H153641   5.336   6.620   4.046  1.4556  0.4839  1.8924
10742TIP3    H253642   5.203   6.582   4.107  0.8151 -1.2510 -0.4725
10743TIP3   OH253643   4.444   0.474   0.667  0.2100 -0.2767  0.3738
10743TIP3    H153644   4.379   0.540   0.688 -0.4861 -0.7396 -0.2954
10743TIP3    H253645   4.404   0.422   0.597 -0.0024 -2.4964  2.0753
10744TIP3   OH253646   6.537   4.982  11.727  0.0326 -0.3860  0.5178
10744TIP3    H153647   6.520   5.067  11.768 -1.5534  0.3626 -1.5947
10744TIP3    H253648   6.470   4.974  11.659  0.5440 -3.0689  0.2677
10745TIP3   OH253649   5.896   4.547  15.856  0.7218 -0.0019 -0.3366
10745TIP3    H153650   5.980   4.571  15.817  0.6593  2.4968  0.9653
10745TIP3    H253651   5.832   4.604  15.813  0.1128  0.1608  0.7579
10746TIP3   OH253652   2.157   0.242   0.905  0.0131 -0.7781  0.7276
10746TIP3    H153653   2.110   0.187   0.967 -0.8856  0.3175  1.0400
10746TIP3    H253654   2.246   0.246   0.938 -0.0375 -1.6425  0.9710
10747TIP3   OH253655   3.797   4.479   2.295  0.3859 -0.2681  0.2077
10747TIP3    H153656   3.765   4.389   2.305 -2.0238  0.5206 -0.0375
10747TIP3    H253657   3.847   4.477   2.213  1.5516 -1.6844  0.9285
10748TIP3   OH253658   3.536   2.642  15.279  0.2419  0.0051 -0.1333
10748TIP3    H153659   3.616   2.602  15.244  1.2002  0.5370  1.3787
10748TIP3    H253660   3.470   2.573  15.273  0.6390 -0.2437 -1.9737
10749TIP3   OH253661   3.741   3.156   1.665  0.3169  0.9611 -0.3627
10749TIP3    H153662   3.708   3.244   1.648 -1.4161  0.0982 -1.6068
10749TIP3    H253663   3.734   3.111   1.581  1.5011 -0.2721  0.1792
10750TIP3   OH253664   6.234   2.661   2.160 -0.4720  0.3523  0.2166
10750TIP3    H153665   6.238   2.637   2.253  0.6046  0.1953  0.1400
10750TIP3    H253666   6.234   2.757   2.160  0.7441  0.3607  0.3471
10751TIP3   OH253667   5.618   1.767   0.168  0.2559 -0.1127 -0.3942
10751TIP3    H153668   5.672   1.701   0.125  1.4154  1.8819 -2.1478
10751TIP3    H253669   5.631   1.846   0.115 -1.8349  1.2713  1.0681
10752TIP3   OH253670   5.656   6.998   2.081  0.0267 -0.0960  0.1000
10752TIP3    H153671   5.664   7.052   2.003 -2.4101 -0.7599 -0.6476
10752TIP3    H253672   5.615   6.917   2.050  0.7066 -1.1040  1.7533
10753TIP3   OH253673   6.470   0.386  15.495  0.4937  0.8441 -0.0690
10753TIP3    H153674   6.533   0.338  15.549 -0.1557  0.1542  0.0923
10753TIP3    H253675   6.384   0.363  15.532  0.0889  0.9925 -0.8927
10754TIP3   OH253676   6.587   3.843  13.910  0.1126  0.1465  0.4580
10754TIP3    H153677   6.509   3.794  13.882 -0.5823  0.9263  1.0331
10754TIP3    H253678   6.553   3.928  13.938  1.1468  0.3954  0.9480
10755TIP3   OH253679   4.238   3.185   0.472  0.1856  0.0470 -0.3177
10755TIP3    H153680   4.176   3.216   0.538 -0.9838 -0.4334 -1.1701
10755TIP3    H253681   4.188   3.186   0.390  1.1934 -0.6813 -0.9542
10756TIP3   OH253682   3.333   6.745   3.733 -0.4094  0.3237 -0.5067
10756TIP3    H153683   3.330   6.797   3.814  1.8955  0.5379 -0.4968
10756TIP3    H253684   3.297   6.802   3.666  1.7994  1.8753 -0.4299
10757TIP3   OH253685   4.831   4.712   0.384  0.3549  0.1287 -0.2566
10757TIP3    H153686   4.831   4.807   0.366  1.2958 -0.0587 -1.3147
10757TIP3    H253687   4.746   4.682   0.352 -0.1297  0.6818  0.4831
10758TIP3   OH253688   7.097   2.532   2.782  0.2318 -0.5695 -0.3823
10758TIP3    H153689   7.004   2.524   2.803  0.5458 -0.6529  0.9841
10758TIP3    H253690   7.120   2.446   2.747  0.5961 -1.6977  2.5003
10759TIP3   OH253691   2.834   2.883   2.403 -0.9180 -0.0358 -0.0210
10759TIP3    H153692   2.822   2.976   2.385 -0.0581  0.4371  1.7147
10759TIP3    H253693   2.928   2.872   2.415 -1.2272 -0.6282  2.1909
10760TIP3   OH253694   5.950   3.922   2.497 -0.5799  0.1408  0.2428
10760TIP3    H153695   5.854   3.928   2.502 -0.7089 -2.3133  1.4637
10760TIP3    H253696   5.980   3.942   2.585  0.0096  0.4591 -0.0292
10761TIP3   OH253697   5.072   6.922   2.304  0.7445 -0.2791  0.0671
10761TIP3    H153698   5.030   6.877   2.377  1.2029 -0.6571  0.0989
10761TIP3    H253699   5.017   6.999   2.289  1.3957  0.5146  1.6839
10762TIP3   OH253700   0.693   5.543   2.541 -0.0455  0.2796 -0.6009
10762TIP3    H153701   0.695   5.513   2.450 -0.3211  0.9243 -0.8198
10762TIP3    H253702   0.660   5.467   2.590 -0.7017  0.2059 -1.1456
10763TIP3   OH253703   3.912   0.530   3.583 -0.0709 -0.0743  0.6801
10763TIP3    H153704   3.969   0.454   3.571  1.1311  0.4838  2.6745
10763TIP3    H253705   3.891   0.530   3.676 -2.9458  0.0433  0.0704
10764TIP3   OH253706   2.523   1.292  14.932  0.3697  0.6539  0.3765
10764TIP3    H153707   2.582   1.217  14.922 -0.1342  0.3544 -0.3292
10764TIP3    H253708   2.575   1.356  14.982  0.9318 -0.0087  0.6570
10765TIP3   OH253709   1.545   7.030   3.051 -0.3049  0.1492  0.2120
10765TIP3    H153710   1.580   7.098   3.108  1.1681 -2.1596  2.1708
10765TIP3    H253711   1.484   6.981   3.106  0.2323 -1.3818 -0.5314
10766TIP3   OH253712   4.553   1.756   2.031 -0.5092 -0.1806 -0.0855
10766TIP3    H153713   4.504   1.677   2.009  1.9196 -1.2300 -1.9293
10766TIP3    H253714   4.630   1.724   2.077  0.9904  1.0092 -1.7166
10767TIP3   OH253715   4.208   6.789   4.064 -0.0452 -0.0756  0.2420
10767TIP3    H153716   4.216   6.703   4.105  0.2373 -1.1881 -2.0787
10767TIP3    H253717   4.284   6.838   4.095 -0.4371 -0.5080  1.9052
10768TIP3   OH253718   3.501   2.753   0.437  0.1929  0.3118 -0.2756
10768TIP3    H153719   3.591   2.719   0.430  0.3833  0.4885  1.1464
10768TIP3    H253720   3.506   2.819   0.506 -0.8195  1.0754 -0.9207
10769TIP3   OH253721   5.419   0.711   2.209  0.6629 -0.3521 -0.3390
10769TIP3    H153722   5.341   0.754   2.243  1.9667  1.9207 -0.1670
10769TIP3    H253723   5.475   0.698   2.286  1.0235 -0.7643 -0.6643
10770TIP3   OH253724   0.891   0.365   1.509 -0.4594 -0.1986  0.4104
10770TIP3    H153725   0.947   0.377   1.432 -0.3950  2.3645  0.8166
10770TIP3    H253726   0.886   0.452   1.548 -3.4007 -0.7384  1.3205
10771TIP3   OH253727   4.637   2.204   2.215  0.0554  0.8298 -0.0797
10771TIP3    H153728   4.690   2.270   2.170 -1.4444  1.1812 -1.3541
10771TIP3    H253729   4.660   2.122   2.171  1.5179  0.5556  1.1497
10772TIP3   OH253730   6.655   1.008   0.965 -0.0391 -0.2177  0.0749
10772TIP3    H153731   6.673   0.932   0.910 -1.5004  0.5666 -1.5632
10772TIP3    H253732   6.727   1.011   1.028  0.3865 -2.5397 -0.2810
10773TIP3   OH253733   1.287   2.059   0.331 -0.0512 -0.2473  0.4500
10773TIP3    H153734   1.378   2.053   0.303 -0.1512  0.2899  0.0213
10773TIP3    H253735   1.239   2.000   0.272 -0.0662 -0.1118  0.3282
10774TIP3   OH253736   3.417   3.549   4.510 -0.2530  0.5067  0.3645
10774TIP3    H153737   3.480   3.602   4.462 -0.7136  0.7270 -0.0049
10774TIP3    H253738   3.336   3.557   4.460 -0.3895 -0.3503  0.4420
10775TIP3   OH253739   5.412   3.305   0.670  0.6169 -0.5961 -0.3666
10775TIP3    H153740   5.409   3.356   0.589  3.1240  1.6353  0.8658
10775TIP3    H253741   5.449   3.221   0.644 -1.4481 -1.0275 -2.0344
10776TIP3   OH253742   3.467   4.459   1.289  0.4526 -0.1807 -0.1443
10776TIP3    H153743   3.429   4.526   1.233 -0.5355 -1.4929 -1.0572
10776TIP3    H253744   3.492   4.389   1.230 -0.0400 -1.3206  0.9878
10777TIP3   OH253745   5.265   1.809   3.447  0.2719 -0.8879 -0.5298
10777TIP3    H153746   5.236   1.774   3.363 -3.1501  0.0942  0.1669
10777TIP3    H253747   5.256   1.904   3.438  1.3138 -0.6837  0.4521
10778TIP3   OH253748   4.778   1.233   3.180 -0.0643  0.2887  0.1181
10778TIP3    H153749   4.738   1.166   3.125  1.0589  0.2627 -0.6869
10778TIP3    H253750   4.756   1.207   3.270  1.8205 -2.1599 -0.0848
10779TIP3   OH253751   4.682   0.074   0.873  0.1165  0.2213 -0.2368
10779TIP3    H153752   4.621   0.023   0.820 -0.3190  1.1635 -0.6456
10779TIP3    H253753   4.767   0.058   0.832 -0.3043  1.4430 -1.6255
10780TIP3   OH253754   1.871   6.471   2.307  0.4028 -0.1303 -0.3243
10780TIP3    H153755   1.821   6.404   2.354 -1.3025  0.1957 -1.6278
10780TIP3    H253756   1.931   6.421   2.252  0.1681 -0.5698 -0.1869
10781TIP3   OH253757   3.953   2.905   2.316 -0.3319  0.8985  0.0616
10781TIP3    H153758   3.914   2.991   2.336  0.9593  1.6833 -0.7109
10781TIP3    H253759   4.000   2.919   2.234 -2.3657 -1.2711 -1.5533
10782TIP3   OH253760   2.408   0.724   0.475  0.5806  0.3701  0.0231
10782TIP3    H153761   2.363   0.746   0.557 -0.0788 -2.3749  0.4592
10782TIP3    H253762   2.458   0.802   0.453 -0.8826  1.8939  1.9432
10783TIP3   OH253763   1.406   1.066   4.241 -0.0108  0.4235  0.3072
10783TIP3    H153764   1.395   1.135   4.175 -0.3995  0.6500  0.6009
10783TIP3    H253765   1.453   1.108   4.312  0.6762  0.0961  0.0501
10784TIP3   OH253766   1.784   0.592   0.710 -0.7799  0.0549  0.5114
10784TIP3    H153767   1.868   0.639   0.712  0.1727 -1.5941  0.4399
10784TIP3    H253768   1.742   0.622   0.630  0.3431 -0.1081 -0.1507
10785TIP3   OH253769   3.950   1.370   1.816  0.3577 -0.4358 -0.5978
10785TIP3    H153770   4.015   1.396   1.881  0.4819 -0.3611 -0.7500
10785TIP3    H253771   3.932   1.278   1.836 -0.5360 -0.0665  0.3161
10786TIP3   OH253772   1.811   7.068  15.193 -0.3286 -0.0509 -0.4883
10786TIP3    H153773   1.793   7.162  15.189 -3.2114 -0.5939 -0.7756
10786TIP3    H253774   1.855   7.049  15.110  2.5571  1.4413  0.6070
10787TIP3   OH253775   5.046   0.562  13.277  0.0655  0.0589 -0.5056
10787TIP3    H153776   5.061   0.471  13.253 -2.1333 -0.1132 -1.3239
10787TIP3    H253777   5.033   0.559  13.372 -0.8705 -0.5964 -0.6523
10788TIP3   OH253778   0.464   1.489   4.368 -0.2086 -0.2514 -0.3325
10788TIP3    H153779   0.433   1.468   4.456 -0.8651 -0.4808 -0.6057
10788TIP3    H253780   0.397   1.450   4.311  0.4015 -0.4173 -0.9322
10789TIP3   OH253781   1.617   3.442   2.918 -0.8073  0.4512  0.2929
10789TIP3    H153782   1.695   3.467   2.967  0.4876 -0.2655 -1.3515
10789TIP3    H253783   1.552   3.420   2.985  0.5034  0.7213  1.6784
10790TIP3   OH253784   5.789   2.676   1.240 -0.7539 -0.2536 -0.5279
10790TIP3    H153785   5.844   2.623   1.298 -1.3856  0.6231  0.9135
10790TIP3    H253786   5.769   2.619   1.166  1.2357 -0.9289 -0.5766
10791TIP3   OH253787   6.215   0.188   2.818  0.0721  0.4645  0.3912
10791TIP3    H153788   6.157   0.225   2.751  0.9965  0.4314 -0.4312
10791TIP3    H253789   6.228   0.097   2.790 -0.9854 -0.0712  1.5937
10792TIP3   OH253790   4.138   3.696  15.416  0.2041 -0.1424 -0.4596
10792TIP3    H153791   4.064   3.714  15.359  1.5412 -0.4131 -2.3313
10792TIP3    H253792   4.214   3.733  15.370  1.5816 -2.0020  0.2324
10793TIP3   OH253793   4.450   0.944   1.697 -0.0029  0.2143  0.4989
10793TIP3    H153794   4.417   0.855   1.687  0.2528  0.2357 -0.5393
10793TIP3    H253795   4.451   0.959   1.792  1.2544 -1.3865  0.7566
10794TIP3   OH253796   7.110   7.167   2.400 -0.1760 -0.2494  0.3363
10794TIP3    H153797   7.180   7.205   2.347 -0.1710 -0.5761  0.1060
10794TIP3    H253798   7.125   7.073   2.396  0.1146 -0.2511  1.3295
10795TIP3   OH253799   5.375   3.189   1.166 -0.4502  0.5640 -0.2313
10795TIP3    H153800   5.445   3.233   1.118  1.0305 -0.7070  0.7261
10795TIP3    H253801   5.371   3.101   1.128  0.3747 -0.2742  1.5965
10796TIP3   OH253802   3.208   2.693   4.195 -0.1083  0.1463  0.0453
10796TIP3    H153803   3.213   2.730   4.107 -2.5696  1.0548  0.2351
10796TIP3    H253804   3.157   2.757   4.245  0.6027 -0.7190  1.9516
10797TIP3   OH253805   4.809   3.726  14.251 -0.2753 -0.1278  0.0133
10797TIP3    H153806   4.840   3.776  14.176 -0.1227 -1.0759 -0.5713
10797TIP3    H253807   4.843   3.638  14.237 -0.4198 -0.3676  1.0955
10798TIP3   OH253808   5.151   4.799  13.705  0.1282  0.1094  0.2072
10798TIP3    H153809   5.175   4.846  13.625  0.5266 -0.2282  0.1266
10798TIP3    H253810   5.092   4.729  13.676  0.7816 -0.4119  0.1209
10799TIP3   OH253811   6.057   4.810  14.822 -0.0022  0.6116 -0.3030
10799TIP3    H153812   6.117   4.809  14.897  0.9622  0.6104 -1.0742
10799TIP3    H253813   6.109   4.845  14.750 -0.9296  0.6016 -0.9788
10800TIP3   OH253814   3.966   4.803   3.532  0.2898  0.3031  0.1387
10800TIP3    H153815   3.993   4.761   3.451 -0.1200  1.0047 -0.3623
10800TIP3    H253816   4.002   4.747   3.601  0.3658 -0.4639 -0.5219
10801TIP3   OH253817   2.678   0.924   2.567 -0.2273  0.0001 -0.2961
10801TIP3    H153818   2.748   0.904   2.630 -0.9014 -2.3313 -0.2285
10801TIP3    H253819   2.607   0.864   2.591 -2.6433  2.9967  0.2472
10802TIP3   OH253820   5.572   1.140   1.160 -0.0519 -0.9378  0.8434
10802TIP3    H153821   5.647   1.141   1.219  0.1195 -2.4042  0.6504
10802TIP3    H253822   5.496   1.139   1.219  0.0349  1.5488  1.0448
10803TIP3   OH253823   2.749   6.562   3.578 -0.0563  0.6828  0.4260
10803TIP3    H153824   2.772   6.607   3.659 -1.2805  0.9637  0.6253
10803TIP3    H253825   2.784   6.473   3.589  0.4024  0.9302  0.9545
10804TIP3   OH253826   7.068   1.986   4.168 -0.0768 -0.2789  0.0313
10804TIP3    H153827   7.075   1.893   4.191  2.5976  0.2405  1.4605
10804TIP3    H253828   7.056   1.986   4.073  0.8672 -2.0496 -0.1201
10805TIP3   OH253829   5.490   1.082   3.098 -0.0751 -0.3033 -0.1650
10805TIP3    H153830   5.554   1.021   3.063 -2.1394 -2.8419  0.3675
10805TIP3    H253831   5.470   1.049   3.186 -1.3646  1.0045  0.0592
10806TIP3   OH253832   3.238   2.156   0.501 -0.4513 -0.3635 -0.0992
10806TIP3    H153833   3.292   2.098   0.448 -2.7334 -0.9212 -1.8937
10806TIP3    H253834   3.249   2.242   0.462 -1.2773 -0.5774 -0.8123
10807TIP3   OH253835   1.101   6.913  14.699  0.0592 -0.2659  0.3026
10807TIP3    H153836   1.178   6.882  14.652  0.6483  0.7796  0.5699
10807TIP3    H253837   1.075   6.839  14.754  0.1623 -1.0233 -0.6704
10808TIP3   OH253838   6.110   6.090  12.476 -0.9892 -0.1581  0.8347
10808TIP3    H153839   6.183   6.048  12.431  0.1361  0.7532  1.7687
10808TIP3    H253840   6.113   6.181  12.447 -1.0031  0.1605  1.8098
10809TIP3   OH253841   4.777   6.638   2.345 -0.3116 -0.1289  0.7677
10809TIP3    H153842   4.707   6.583   2.379 -0.8261  0.3501  0.4895
10809TIP3    H253843   4.736   6.692   2.278  0.4250 -0.1735  0.2690
10810TIP3   OH253844   4.756   6.038  14.079 -0.3792 -0.0725 -0.1070
10810TIP3    H153845   4.782   6.122  14.041  1.7087 -2.0564 -3.3196
10810TIP3    H253846   4.668   6.023  14.046  0.2083 -0.2823 -1.6307
10811TIP3   OH253847   5.101   0.170   2.451 -0.0328  0.2696 -0.0196
10811TIP3    H153848   5.107   0.085   2.408 -0.0860  0.0993  0.3058
10811TIP3    H253849   5.010   0.198   2.436  0.0561  0.3892 -0.3474
10812TIP3   OH253850   0.097   7.001  14.927  0.2221 -0.1224  0.1874
10812TIP3    H153851   0.148   7.076  14.955 -0.9883  0.8675 -0.2068
10812TIP3    H253852   0.144   6.966  14.852  0.6286  0.4236  0.1861
10813TIP3   OH253853   3.627   7.013  13.068  0.1913  0.1501  0.0524
10813TIP3    H153854   3.633   7.079  12.999 -0.0545 -1.3237 -1.3957
10813TIP3    H253855   3.547   7.036  13.116  0.6624  1.5078  0.2131
10814TIP3   OH253856   4.702   1.642  14.291 -0.2805  0.4331  0.0989
10814TIP3    H153857   4.772   1.631  14.227 -0.0275  0.3302  0.3893
10814TIP3    H253858   4.685   1.553  14.323 -1.1614  0.3336 -0.6102
10815TIP3   OH253859   2.538   5.791   2.494 -0.0343  0.9572  0.3418
10815TIP3    H153860   2.446   5.818   2.493 -0.0449  0.9727  1.5189
10815TIP3    H253861   2.577   5.839   2.567  0.2391 -1.2495  1.6711
10816TIP3   OH253862   5.750   0.935   1.127  0.3892 -0.0069 -0.6079
10816TIP3    H153863   5.785   0.934   1.038 -1.1708 -0.0086 -1.2383
10816TIP3    H253864   5.671   0.989   1.122  0.4177  0.1985  0.8294
10817TIP3   OH253865   3.951   4.163   3.199 -0.8826  0.4030 -0.4479
10817TIP3    H153866   3.910   4.086   3.159 -0.8779  0.0402  0.2466
10817TIP3    H253867   3.913   4.168   3.286  0.8503 -0.1731  0.3676
10818TIP3   OH253868   2.274   2.388   5.140  0.0714  0.9140  0.1261
10818TIP3    H153869   2.263   2.476   5.102  1.0830  0.9357 -0.1239
10818TIP3    H253870   2.297   2.405   5.231  0.7978  0.9177 -0.0584
10819TIP3   OH253871   5.257   1.831   0.034  0.1363 -0.1915 -0.2852
10819TIP3    H153872   5.281   1.765   0.099 -0.5765  0.5652  0.7581
10819TIP3    H253873   5.237   1.781  -0.045 -0.2568 -1.2119  0.4539
10820TIP3   OH253874   2.056   1.446   1.801 -1.0270  0.0729  0.0973
10820TIP3    H153875   2.033   1.533   1.768 -1.0521  0.7651  1.8446
10820TIP3    H253876   2.011   1.385   1.743 -1.8202  1.2604 -0.5586
10821TIP3   OH253877   4.053   1.840   2.833  0.3396  0.5009  0.3597
10821TIP3    H153878   4.025   1.876   2.917  0.3654  0.6666  0.2983
10821TIP3    H253879   3.992   1.768   2.817  0.3934  0.4110  0.5637
10822TIP3   OH253880   1.488   4.114   2.010  0.1879 -0.1523 -0.0343
10822TIP3    H153881   1.578   4.145   2.006  0.8466 -2.0471 -0.2367
10822TIP3    H253882   1.479   4.074   2.096 -0.3657 -0.2165 -0.1176
10823TIP3   OH253883   3.678   2.149   3.684  0.1728 -0.1530  0.3719
10823TIP3    H153884   3.730   2.100   3.620 -0.6221 -0.3808 -0.0978
10823TIP3    H253885   3.646   2.225   3.637  1.5208  0.9210  1.1418
10824TIP3   OH253886   2.985   7.148   2.683  0.0838 -0.1899  0.1708
10824TIP3    H153887   2.902   7.103   2.670  1.2067 -2.3109  0.1904
10824TIP3    H253888   2.963   7.221   2.740 -1.7065 -0.9241  0.4679
10825TIP3   OH253889   2.312   2.414  15.554  0.1370  0.5867 -0.1335
10825TIP3    H153890   2.358   2.340  15.593  0.1968  0.0355 -1.2134
10825TIP3    H253891   2.381   2.475  15.527  0.1883  0.2317 -0.8184
10826TIP3   OH253892   1.877   6.301   0.205 -0.6144  0.4912 -0.1631
10826TIP3    H153893   1.942   6.371   0.199 -0.8854  0.8731  1.1839
10826TIP3    H253894   1.923   6.229   0.249 -0.6113  0.1436 -0.7225
10827TIP3   OH253895   4.773   2.434   3.238  0.0799  0.5501  0.2506
10827TIP3    H153896   4.868   2.435   3.246 -0.0559  0.9168  1.9329
10827TIP3    H253897   4.753   2.506   3.178  0.8890  0.0285 -0.6680
10828TIP3   OH253898   4.160   5.849   2.692  0.6064 -0.2587  0.1936
10828TIP3    H153899   4.206   5.898   2.760  0.2656  0.0587  0.1947
10828TIP3    H253900   4.076   5.894   2.682  0.4668 -0.5822 -0.1093
10829TIP3   OH253901   3.023   2.961   3.827 -0.5921 -0.4438 -0.3207
10829TIP3    H153902   2.996   2.907   3.752 -0.7960  1.0628 -1.3616
10829TIP3    H253903   2.995   2.912   3.904 -3.5647 -0.4002 -1.3123
10830TIP3   OH253904   6.188   1.450   1.802 -0.1312 -0.3569 -0.4740
10830TIP3    H153905   6.178   1.378   1.740 -0.6864  0.0155 -0.8258
10830TIP3    H253906   6.102   1.458   1.843  0.0058 -0.0697 -0.2430
10831TIP3   OH253907   5.411   4.544   2.554  0.0775 -0.4293 -0.1431
10831TIP3    H153908   5.496   4.526   2.593  0.4518  1.3653 -0.0702
10831TIP3    H253909   5.366   4.459   2.552  0.5351 -0.7989  2.9771
10832TIP3   OH253910   1.912   6.650   3.090  0.3847  0.4298 -0.1736
10832TIP3    H153911   1.932   6.609   3.006  0.1323 -1.1716  0.5303
10832TIP3    H253912   1.866   6.582   3.140  1.0805  1.1482  1.4899
10833TIP3   OH253913   0.982   6.178   1.580  0.4570  0.1042 -0.1873
10833TIP3    H153914   1.028   6.105   1.538  0.8059  0.8120 -1.0666
10833TIP3    H253915   0.975   6.152   1.672  1.2244 -0.7100 -0.3464
10834TIP3   OH253916   5.635   1.491   1.963  0.9861  0.1085 -0.8476
10834TIP3    H153917   5.596   1.514   1.879  2.5037 -1.3998 -2.0036
10834TIP3    H253918   5.568   1.513   2.027 -0.6399  0.2323 -2.5396
10835TIP3   OH253919   5.850   2.041   2.998  0.4148  0.0941  0.2175
10835TIP3    H153920   5.904   2.066   2.923 -0.4082  0.3510 -0.2933
10835TIP3    H253921   5.856   1.945   3.001 -1.1033 -0.0782 -1.3707
10836TIP3   OH253922   4.520   1.647   0.882 -0.0433  0.6041  0.8429
10836TIP3    H153923   4.469   1.728   0.887 -0.0274  0.6394  0.4655
10836TIP3    H253924   4.605   1.674   0.847 -0.7268  0.1305 -1.2245
10837TIP3   OH253925   3.807   2.226   4.148  0.0148 -0.2506 -0.1066
10837TIP3    H153926   3.728   2.244   4.198  0.4607 -0.2202  0.5981
10837TIP3    H253927   3.801   2.282   4.071 -0.0100  0.7360  0.6091
10838TIP3   OH253928   0.452   1.126   0.337  0.1200  0.4192 -0.3907
10838TIP3    H153929   0.448   1.030   0.335  0.8318  0.3988 -0.7878
10838TIP3    H253930   0.427   1.152   0.248 -2.7589  0.7034  0.4597
10839TIP3   OH253931   6.076   0.625   1.732  0.0865 -0.3832  0.4110
10839TIP3    H153932   6.095   0.619   1.638 -0.3197 -1.6219  0.4077
10839TIP3    H253933   6.046   0.715   1.744 -0.2547 -0.3370 -0.7226
10840TIP3   OH253934   5.644   0.401   3.351  0.1453  0.0560  0.0213
10840TIP3    H153935   5.584   0.474   3.358 -0.7791 -0.4700 -2.0690
10840TIP3    H253936   5.607   0.346   3.282  0.7957 -2.3996  1.5561
10841TIP3   OH253937   5.787   0.688   1.233  0.0250 -0.4916 -0.0125
10841TIP3    H153938   5.697   0.668   1.261  0.7100 -2.6164  0.7445
10841TIP3    H253939   5.780   0.775   1.192 -2.5200 -0.9786 -0.7236
10842TIP3   OH253940   2.734   5.724  14.569 -0.0731  0.1868 -0.0084
10842TIP3    H153941   2.721   5.636  14.604  0.7351  0.3042  0.5803
10842TIP3    H253942   2.805   5.715  14.506 -1.3185  0.0358 -1.4426
10843TIP3   OH253943   2.591   0.719   2.930  0.4980 -0.1022 -0.4426
10843TIP3    H153944   2.531   0.754   2.995 -1.2481 -1.0454 -1.4938
10843TIP3    H253945   2.546   0.733   2.846  1.9330 -0.4387 -1.2767
10844TIP3   OH253946   3.340   6.475   3.920 -0.3664 -0.1698  0.1810
10844TIP3    H153947   3.249   6.453   3.901 -1.5218  1.9078  2.8932
10844TIP3    H253948   3.355   6.556   3.872 -0.6754  0.6473  1.4318
10845TIP3   OH253949   2.713   0.118   4.304 -0.2584 -0.0298 -0.2963
10845TIP3    H153950   2.732   0.212   4.298 -0.8011 -0.0009 -1.6136
10845TIP3    H253951   2.618   0.114   4.313 -0.0821 -0.3847  1.6022
10846TIP3   OH253952   0.050   1.473   0.212  0.3336 -0.2341  0.2003
10846TIP3    H153953   0.068   1.522   0.292  0.6363 -1.9374  1.2093
10846TIP3    H253954  -0.031   1.425   0.231  0.0388 -0.1330 -0.7632
10847TIP3   OH253955   0.238   6.055   0.605  0.5882  0.1918 -0.4257
10847TIP3    H153956   0.236   6.148   0.628  0.4474 -0.4232  2.2300
10847TIP3    H253957   0.331   6.033   0.601  0.6162  0.2959 -0.3557
10848TIP3   OH253958   3.974   6.513   2.621 -0.6461  0.5062 -0.7522
10848TIP3    H153959   4.065   6.506   2.591 -0.9744  0.5432 -1.7752
10848TIP3    H253960   3.955   6.428   2.661 -0.2093  0.4485 -0.6654
10849TIP3   OH253961   3.432   1.082   1.697 -0.2345  0.2503  0.6433
10849TIP3    H153962   3.343   1.070   1.665 -0.3701  0.7521  0.8334
10849TIP3    H253963   3.480   1.119   1.623 -0.3851  0.7784  0.8154
10850TIP3   OH253964   1.204   1.377  15.426  0.8322 -0.2409  0.1544
10850TIP3    H153965   1.277   1.320  15.449  0.4142 -0.7007  0.3691
10850TIP3    H253966   1.217   1.456  15.478 -0.1009 -1.2711  2.0223
10851TIP3   OH253967   6.811   2.834  15.950 -0.0769  0.3817  0.5048
10851TIP3    H153968   6.837   2.926  15.949 -2.5255  1.1727  2.9718
10851TIP3    H253969   6.821   2.806  16.041 -1.3245 -1.1731  0.2025
10852TIP3   OH253970   4.258   5.631   3.216 -0.1136 -0.1603  0.1858
10852TIP3    H153971   4.350   5.622   3.188  0.0552  0.4013  0.5378
10852TIP3    H253972   4.226   5.541   3.222  0.0468 -0.3159 -1.1547
10853TIP3   OH253973   6.138   6.830  15.207  0.0132 -0.7564  0.1340
10853TIP3    H153974   6.125   6.877  15.124 -0.6854 -0.4741  0.3920
10853TIP3    H253975   6.232   6.835  15.224 -0.1072  0.9248  0.3695
10854TIP3   OH253976   3.429   5.917   0.337  0.1812 -0.4444 -0.3616
10854TIP3    H153977   3.368   5.989   0.357  0.4940 -0.0705 -0.7613
10854TIP3    H253978   3.501   5.929   0.399 -1.2166 -2.2316  1.6873
10855TIP3   OH253979   1.198   3.429  15.190 -0.1209 -0.6459  0.3193
10855TIP3    H153980   1.147   3.504  15.219  0.4817  0.4816 -1.4877
10855TIP3    H253981   1.279   3.433  15.240  0.2937  0.4502 -0.4255
10856TIP3   OH253982   3.663   5.616   0.170 -0.2766  0.6830  0.5469
10856TIP3    H153983   3.652   5.583   0.260 -0.1407  1.9470  1.0317
10856TIP3    H253984   3.721   5.691   0.179 -0.6951  1.1422 -0.5395
10857TIP3   OH253985   4.465   6.553  14.789  0.1001  0.2275 -0.6089
10857TIP3    H153986   4.483   6.598  14.707 -1.2727 -0.4717 -1.3300
10857TIP3    H253987   4.503   6.608  14.856 -1.5204  2.4822 -1.4656
10858TIP3   OH253988   4.403   4.713   2.210  1.0938  0.2451  0.6205
10858TIP3    H153989   4.350   4.643   2.247  1.2861 -0.2586 -0.0572
10858TIP3    H253990   4.346   4.790   2.212  0.8532  0.0530  1.2833
10859TIP3   OH253991   1.571   5.675   1.266 -0.0894  0.2425 -0.0296
10859TIP3    H153992   1.604   5.616   1.334  0.5950 -0.2774 -0.8076
10859TIP3    H253993   1.618   5.757   1.280 -0.1250  0.2102  0.2760
10860TIP3   OH253994   2.163   2.327   2.007  0.1868  0.3796  0.0905
10860TIP3    H153995   2.110   2.367   1.938  0.2159 -0.0090 -0.1632
10860TIP3    H253996   2.232   2.280   1.959 -0.2273 -0.5092  0.3583
10861TIP3   OH253997   2.398   5.559   3.608  0.9873 -0.0981 -0.3458
10861TIP3    H153998   2.470   5.555   3.545 -0.3442 -0.6531 -1.8651
10861TIP3    H253999   2.340   5.626   3.572  0.2815 -0.3326  0.3729
10862TIP3   OH254000   0.061   1.345   0.472  0.1114  0.1230 -0.1491
10862TIP3    H154001   0.103   1.268   0.434 -1.2725 -0.3539 -0.7817
10862TIP3    H254002  -0.024   1.349   0.427 -0.3511  1.2632  0.8172
10863TIP3   OH254003   3.661   0.826   2.389 -0.3268 -0.3242  0.2806
10863TIP3    H154004   3.615   0.908   2.406 -1.1336 -1.3813  3.5234
10863TIP3    H254005   3.747   0.839   2.430 -1.1673 -1.7588  2.6089
10864TIP3   OH254006   5.830   1.504   1.011  0.7034 -0.0148  0.1337
10864TIP3    H154007   5.911   1.539   0.973  0.7102  0.8485  0.9435
10864TIP3    H254008   5.761   1.563   0.979  0.4338 -0.5244 -0.2409
10865TIP3   OH254009   0.816   0.710  15.259 -0.1300  0.4147  0.1093
10865TIP3    H154010   0.873   0.775  15.302  0.5410 -1.0059  1.3996
10865TIP3    H254011   0.799   0.644  15.326 -1.7901 -0.1532 -0.8369
10866TIP3   OH254012   4.835   7.002   3.038 -0.0133  0.0562 -0.1918
10866TIP3    H154013   4.848   7.006   3.133 -0.7339 -0.3775 -0.0691
10866TIP3    H254014   4.741   6.984   3.028 -0.1497  1.1730 -1.0057
10867TIP3   OH254015   2.929   3.538   2.123  0.1297 -0.4005 -0.3797
10867TIP3    H154016   2.957   3.449   2.099  0.9521 -0.6296  1.3602
10867TIP3    H254017   2.882   3.526   2.206 -1.8457  0.4961 -1.3370
10868TIP3   OH254018   5.347   6.734   3.738  0.3425 -0.1826  0.2223
10868TIP3    H154019   5.253   6.745   3.749  0.4546  2.9656 -1.1793
10868TIP3    H254020   5.385   6.766   3.819  0.2661  0.7939 -0.1161
10869TIP3   OH254021   6.132   1.174  14.093  0.5522 -0.0545 -0.1017
10869TIP3    H154022   6.076   1.212  14.161  1.1531  2.5198 -0.9942
10869TIP3    H254023   6.083   1.186  14.012  0.3887 -1.9606 -0.2862
10870TIP3   OH254024   4.683   5.277   1.240  0.1530 -0.3062  0.2337
10870TIP3    H154025   4.668   5.216   1.167  0.7597 -0.9258  0.6199
10870TIP3    H254026   4.755   5.333   1.211  0.2261 -0.3881  0.2583
10871TIP3   OH254027   4.013   2.865   1.340 -0.7014  0.2989  0.0859
10871TIP3    H154028   4.058   2.809   1.276  2.5714 -0.4556  2.9200
10871TIP3    H254029   3.979   2.804   1.406  0.4474  1.3913  1.7386
10872TIP3   OH254030   7.099   3.032   2.225 -0.1674  0.0385 -0.1257
10872TIP3    H154031   7.067   3.072   2.306 -0.3998 -0.7167  0.1601
10872TIP3    H254032   7.133   2.947   2.252 -0.7507 -0.4466 -0.9056
10873TIP3   OH254033   5.009   6.654   1.820  0.3276 -0.1467 -0.3336
10873TIP3    H154034   5.021   6.707   1.898  0.1927 -0.1599 -0.3039
10873TIP3    H254035   5.058   6.574   1.838 -1.7321 -1.2028  0.7701
10874TIP3   OH254036   6.250   2.946   2.145  0.2767  0.2567  0.4531
10874TIP3    H154037   6.195   2.979   2.074  1.6418  1.4633 -0.0787
10874TIP3    H254038   6.189   2.928   2.216 -1.0603 -0.4891 -0.8479
10875TIP3   OH254039   2.189   1.538  15.506 -0.0927  0.0397  0.0428
10875TIP3    H154040   2.191   1.443  15.519  0.6259  0.0850  0.2629
10875TIP3    H254041   2.125   1.569  15.571  0.7181 -0.1407  0.9359
10876TIP3   OH254042   7.129   1.267   1.174  0.0077 -0.0273 -0.3077
10876TIP3    H154043   7.108   1.285   1.082  1.9489  0.8111 -0.6062
10876TIP3    H254044   7.166   1.349   1.207  0.4592 -0.6993  0.8896
10877TIP3   OH254045   3.415   3.273   2.661 -0.1061 -0.0467 -0.1584
10877TIP3    H154046   3.381   3.188   2.689 -0.3121  0.1926  0.3236
10877TIP3    H254047   3.341   3.333   2.673  0.4740  0.4735  0.8921
10878TIP3   OH254048   6.463   0.069   0.607  0.6987  0.2971 -0.5021
10878TIP3    H154049   6.412   0.031   0.679  0.5389 -0.4421 -1.0021
10878TIP3    H254050   6.531   0.005   0.590  1.6942  1.1940  0.0327
10879TIP3   OH254051   6.569   4.897   0.841 -0.1518 -0.5024  0.6951
10879TIP3    H154052   6.560   4.924   0.750  0.7011 -0.8778  0.4967
10879TIP3    H254053   6.498   4.942   0.886 -0.7264 -0.5030 -0.1974
10880TIP3   OH254054   2.950   1.106  15.419  0.3646 -0.4621  0.3222
10880TIP3    H154055   2.984   1.057  15.495  0.1913 -0.5444  0.3477
10880TIP3    H254056   2.935   1.194  15.452 -1.8235 -1.0540  0.9737
10881TIP3   OH254057   1.239   2.056  15.420 -0.1889 -0.3047 -0.0341
10881TIP3    H154058   1.233   2.152  15.415 -1.1884 -0.4507 -2.9818
10881TIP3    H254059   1.170   2.031  15.482  0.1186  0.8616  0.8038
10882TIP3   OH254060   6.836   1.285   1.234  0.0785 -0.4800  0.2920
10882TIP3    H154061   6.879   1.202   1.254 -0.6775 -1.3834 -1.7542
10882TIP3    H254062   6.907   1.341   1.201  1.3049  0.9542  4.8896
10883TIP3   OH254063   1.280   3.305   0.010  0.1813  0.0013 -0.0114
10883TIP3    H154064   1.226   3.337   0.082 -1.6607  1.2216 -1.8946
10883TIP3    H254065   1.243   3.219  -0.010 -1.6233  1.1759 -1.8300
10884TIP3   OH254066   2.739   6.463   0.339 -0.2843  0.5473  0.0472
10884TIP3    H154067   2.768   6.548   0.374  0.5945  0.4609 -0.4676
10884TIP3    H254068   2.812   6.404   0.358  0.1485  0.4713 -1.8191
10885TIP3   OH254069   5.776   2.961   2.892  0.3327 -0.6332  0.7800
10885TIP3    H154070   5.732   2.955   2.807 -0.0163 -1.0021  0.9861
10885TIP3    H254071   5.756   3.049   2.922 -1.8011 -1.4013  1.6985
10886TIP3   OH254072   5.214   0.346   1.018  0.0772  0.4203  0.6321
10886TIP3    H154073   5.164   0.338   1.099 -0.6520  0.7236  0.2210
10886TIP3    H254074   5.228   0.440   1.007  0.1179  0.3842  0.3690
10887TIP3   OH254075   6.881   1.570   0.983 -0.0057  0.2860 -0.1348
10887TIP3    H154076   6.806   1.585   0.926  0.5747  0.9241 -0.7548
10887TIP3    H254077   6.956   1.602   0.932  0.3596  2.3357  1.5904
10888TIP3   OH254078   0.452   2.045   0.819  0.5933  0.4950 -0.1078
10888TIP3    H154079   0.458   1.957   0.782 -0.7672 -0.3222  1.5317
10888TIP3    H254080   0.410   2.032   0.904 -0.2111  2.8138 -0.1211
10889TIP3   OH254081   5.051   1.813  14.062 -0.6684 -0.1363  0.3194
10889TIP3    H154082   4.967   1.845  14.028  0.9196  3.0858 -0.6926
10889TIP3    H254083   5.117   1.858  14.010  1.7558 -3.9055 -0.0295
10890TIP3   OH254084   0.510   2.273   1.559  0.4499  0.3133 -0.7149
10890TIP3    H154085   0.527   2.312   1.473  5.1227  0.0088 -0.0463
10890TIP3    H254086   0.493   2.348   1.616 -1.4278  0.5968 -1.6078
10891TIP3   OH254087   6.074   5.356   2.826 -0.1710  0.2588 -0.0937
10891TIP3    H154088   6.108   5.267   2.832  0.8717  0.7265  1.5518
10891TIP3    H254089   6.078   5.389   2.916  0.0950  2.1825 -0.7720
10892TIP3   OH254090   3.653   1.249  12.667  0.4444 -0.7379  0.2622
10892TIP3    H154091   3.716   1.206  12.725  1.1168 -1.0108 -0.6553
10892TIP3    H254092   3.666   1.206  12.582 -1.7170 -1.5301  0.3167
10893TIP3   OH254093   5.850   3.173  14.227 -0.2492 -0.4914 -0.2462
10893TIP3    H154094   5.835   3.094  14.278 -0.0623 -1.1202 -1.1515
10893TIP3    H254095   5.933   3.208  14.260 -0.8804 -0.0656  0.9115
10894TIP3   OH254096   3.207   0.860  15.140  0.1814 -0.3570 -0.1795
10894TIP3    H154097   3.151   0.784  15.155 -0.7857  0.3720 -0.0350
10894TIP3    H254098   3.279   0.850  15.202  0.9421 -2.0027 -1.2970
10895TIP3   OH254099   6.979   5.650   1.915  0.2198  0.3321 -0.0850
10895TIP3    H154100   6.919   5.722   1.933 -0.0856 -0.0593  0.4472
10895TIP3    H254101   6.974   5.638   1.820  0.0917  0.8490 -0.1475
10896TIP3   OH254102   0.206   2.434   2.339  0.4297 -0.0661 -0.2108
10896TIP3    H154103   0.140   2.418   2.272 -0.1851  0.8593  0.1750
10896TIP3    H254104   0.170   2.505   2.393  1.0248 -0.6220  0.9464
10897TIP3   OH254105   6.315   6.203   0.852  0.0450 -0.3781  0.3988
10897TIP3    H154106   6.285   6.289   0.880  0.1083 -0.8787  2.0665
10897TIP3    H254107   6.410   6.205   0.864  0.0861 -0.5499  0.1003
10898TIP3   OH254108   5.369   4.548   3.610  0.4879  0.2005  0.0083
10898TIP3    H154109   5.373   4.506   3.524 -1.9870  1.0829 -0.5621
10898TIP3    H254110   5.330   4.634   3.593  2.0134  1.2728  1.7107
10899TIP3   OH254111   3.451   3.688   0.408  0.1528  0.7013  0.0584
10899TIP3    H154112   3.468   3.672   0.501 -0.5391  0.6375  0.1720
10899TIP3    H254113   3.393   3.617   0.381 -1.2783  1.8418  0.0727
10900TIP3   OH254114   6.831   2.693  14.594 -0.1537 -0.1858  0.0677
10900TIP3    H154115   6.830   2.778  14.639  0.8988 -0.0638 -0.1122
10900TIP3    H254116   6.739   2.673  14.577 -0.4321  0.7352  0.4684
10901TIP3   OH254117   2.413   2.676   1.777 -0.3298 -0.1137 -0.1468
10901TIP3    H154118   2.453   2.725   1.850  0.8284 -0.2647 -0.6695
10901TIP3    H254119   2.320   2.697   1.783 -0.0457  1.0234  0.5060
10902TIP3   OH254120   2.546   2.398   1.066  0.2061  0.3968  0.3413
10902TIP3    H154121   2.611   2.398   1.137 -2.8318 -1.8744  3.2523
10902TIP3    H254122   2.563   2.317   1.019  0.5503  0.6374  0.0463
10903TIP3   OH254123   6.884   0.465   0.379  0.3681 -0.5485  1.0484
10903TIP3    H154124   6.944   0.406   0.334  1.0557 -0.5190  1.9108
10903TIP3    H254125   6.875   0.427   0.467  0.1245  0.1450  1.3220
10904TIP3   OH254126   2.536   7.017  14.760 -0.5199  0.1413 -0.1482
10904TIP3    H154127   2.526   6.922  14.761  0.5407  0.0246  0.2951
10904TIP3    H254128   2.495   7.046  14.842  1.0085 -0.1440  0.7350
10905TIP3   OH254129   5.108   0.551  15.637 -0.4263  0.5307 -0.4397
10905TIP3    H154130   5.141   0.640  15.646  1.3174 -0.1242 -0.2180
10905TIP3    H254131   5.071   0.530  15.723  0.0026  0.7066 -0.2125
10906TIP3   OH254132   5.377   0.917   1.064 -0.2715 -0.8429 -0.2890
10906TIP3    H154133   5.285   0.921   1.039 -0.5561 -1.6331  0.6448
10906TIP3    H254134   5.383   0.964   1.147  0.4952  0.8169 -1.2547
10907TIP3   OH254135   0.455   6.688   1.472 -0.4753 -0.1063 -0.0708
10907TIP3    H154136   0.375   6.704   1.420 -1.8360 -0.0565  1.9779
10907TIP3    H254137   0.450   6.595   1.495  1.4472 -0.7614 -2.1478
10908TIP3   OH254138   1.196   2.531  15.044  0.3824 -0.6078  0.0004
10908TIP3    H154139   1.235   2.513  15.130 -1.6796 -0.8359  0.9069
10908TIP3    H254140   1.262   2.584  14.999  0.5262  1.5137  2.5909
10909TIP3   OH254141   2.898   0.297  15.480 -0.1712  0.2329  0.6841
10909TIP3    H154142   2.839   0.272  15.409  0.4203 -1.0029  0.5972
10909TIP3    H254143   2.854   0.368  15.526 -1.6818 -0.6381  0.5863
10910TIP3   OH254144   3.532   0.845   0.682  0.1492  0.0717 -0.7230
10910TIP3    H154145   3.625   0.823   0.692  0.3898  2.0460  2.1525
10910TIP3    H254146   3.486   0.773   0.725  0.5057  0.5327  0.4547
10911TIP3   OH254147   0.698   3.867   0.638 -0.0530 -0.3539  0.0163
10911TIP3    H154148   0.603   3.855   0.647 -0.3218  0.2576 -1.8419
10911TIP3    H254149   0.719   3.937   0.700 -0.8899 -0.1447  0.0717
10912TIP3   OH254150   5.566   7.197   1.354 -0.5374 -0.0950 -0.5540
10912TIP3    H154151   5.622   7.206   1.277  0.0592  1.4815  0.0465
10912TIP3    H254152   5.611   7.132   1.408  1.2533  1.8759  0.3762
10913TIP3   OH254153   1.522   7.180  12.894  0.5193 -0.1924  0.9792
10913TIP3    H154154   1.434   7.145  12.907  0.3763  0.1611  0.9540
10913TIP3    H254155   1.515   7.273  12.915  0.8973 -0.1731  1.0241
10914TIP3   OH254156   3.835   6.783   0.504  0.3868  0.2305 -0.8538
10914TIP3    H154157   3.748   6.759   0.473  0.1312 -0.6723  0.4829
10914TIP3    H254158   3.891   6.778   0.427 -0.2620 -1.7517 -1.2213
10915TIP3   OH254159   5.666   6.228   0.135  0.7194  0.0508 -0.2068
10915TIP3    H154160   5.606   6.172   0.182  1.1636 -0.9934 -0.8559
10915TIP3    H254161   5.718   6.270   0.203  1.3952 -1.4788  0.2500
10916TIP3   OH254162   1.683   5.295   5.219  0.2501  0.0562  0.3183
10916TIP3    H154163   1.705   5.250   5.137 -1.6558 -0.1862 -0.0745
10916TIP3    H254164   1.744   5.259   5.283 -0.6804 -2.4895 -0.1768
10917TIP3   OH254165   6.694   2.311   2.083 -0.3385 -0.2345 -0.0039
10917TIP3    H154166   6.687   2.306   2.178  0.4963  0.5323  0.1055
10917TIP3    H254167   6.734   2.396   2.066  0.0167 -0.5955 -1.0191
10918TIP3   OH254168   0.628   1.402   0.904 -1.0559 -0.6144 -0.4691
10918TIP3    H154169   0.702   1.429   0.959  0.2039 -1.6204 -1.6671
10918TIP3    H254170   0.569   1.478   0.905 -0.1647  0.0777  0.7273
10919TIP3   OH254171   5.421   2.682   2.724 -0.0260  0.0765  0.2790
10919TIP3    H154172   5.331   2.692   2.754 -0.3508 -0.7570 -0.4259
10919TIP3    H254173   5.417   2.620   2.652  0.9570  0.9684 -0.5701
10920TIP3   OH254174   6.658   6.426   1.721 -0.1314 -0.0825 -0.1101
10920TIP3    H154175   6.726   6.418   1.788 -0.1919 -2.5278 -0.2900
10920TIP3    H254176   6.705   6.449   1.641  0.2728 -0.0808  0.1280
10921TIP3   OH254177   4.402   6.756  15.053 -0.2505 -0.1407  0.0233
10921TIP3    H154178   4.371   6.827  14.998  0.0336  0.9248  1.2141
10921TIP3    H254179   4.323   6.721  15.095 -0.2838  0.0538  0.1213
10922TIP3   OH254180   5.526   3.863  12.988 -0.2819 -0.5548 -0.2143
10922TIP3    H154181   5.552   3.864  13.080 -1.2014  0.5800  0.0570
10922TIP3    H254182   5.528   3.955  12.961 -2.2925 -0.5934 -0.6407
10923TIP3   OH254183   6.637   3.186   1.416  0.1199 -0.2384  0.2623
10923TIP3    H154184   6.724   3.216   1.390 -0.7327  2.5471  0.4750
10923TIP3    H254185   6.582   3.205   1.340 -1.0344  1.5662  1.5320
10924TIP3   OH254186   5.837   6.781   4.178  0.3370 -0.8944  0.0507
10924TIP3    H154187   5.749   6.743   4.188  0.0932 -1.0610 -2.3942
10924TIP3    H254188   5.821   6.874   4.166  0.5431 -0.8706 -0.0299
10925TIP3   OH254189   5.529   2.030   4.416  0.5530  0.3363  0.2559
10925TIP3    H154190   5.590   2.043   4.489 -0.0064 -1.5298  1.0775
10925TIP3    H254191   5.457   2.090   4.434  1.0551  0.8678  0.5156
10926TIP3   OH254192   6.108   0.045  15.869 -0.4272 -0.2609  0.3564
10926TIP3    H154193   6.164   0.024  15.943 -0.6413 -2.0769  0.0405
10926TIP3    H254194   6.141  -0.010  15.798 -1.1446  0.3670 -0.4723
10927TIP3   OH254195   6.815   1.912   0.935  0.3374 -0.4719 -0.0734
10927TIP3    H154196   6.751   1.947   0.997  0.0942  1.5409 -1.3860
10927TIP3    H254197   6.775   1.832   0.901 -0.1395 -0.8334  1.3244
10928TIP3   OH254198   6.117   2.701   2.897  0.0411  0.0773 -0.2601
10928TIP3    H154199   6.179   2.756   2.945 -0.8247  0.6077  0.2734
10928TIP3    H254200   6.063   2.661   2.965  0.2892 -0.9794 -0.6829
10929TIP3   OH254201   3.399   2.715   2.897  0.2413 -0.5602 -0.4365
10929TIP3    H154202   3.336   2.763   2.951  0.2564  0.5495 -1.3822
10929TIP3    H254203   3.468   2.779   2.879  2.7041 -2.3500  2.2981
10930TIP3   OH254204   5.786   7.051   4.197 -0.0234 -0.0067 -0.1906
10930TIP3    H154205   5.837   7.128   4.225  2.2722 -1.7930  0.6951
10930TIP3    H254206   5.750   7.017   4.279 -2.4192  1.0285 -0.7721
10931TIP3   OH254207   4.944   2.019   2.905 -0.5690 -0.1718  0.1975
10931TIP3    H154208   4.913   2.091   2.961 -0.2523 -0.0312  0.1949
10931TIP3    H254209   4.865   1.973   2.879 -0.7235 -0.1913  0.7028
10932TIP3   OH254210   4.134   5.552  14.044 -0.1802  0.0026  0.0743
10932TIP3    H154211   4.083   5.631  14.027 -0.7659 -0.2254  0.7817
10932TIP3    H254212   4.175   5.567  14.129  1.2114  0.3250 -0.6311
10933TIP3   OH254213   3.649   0.025   0.261  0.0833 -0.2505  0.2764
10933TIP3    H154214   3.684   0.010   0.173 -0.6140  0.2819 -0.0962
10933TIP3    H254215   3.650  -0.062   0.302  1.2610 -0.3443  0.0660
10934TIP3   OH254216   1.912   5.608   3.627  0.3887 -0.0000  0.3188
10934TIP3    H154217   1.996   5.564   3.640 -0.0928 -1.9879 -2.7126
10934TIP3    H254218   1.850   5.557   3.678  0.2424 -1.5427 -1.3290
10935TIP3   OH254219   6.263   2.564  13.213  0.0589 -0.2449 -0.0625
10935TIP3    H154220   6.199   2.538  13.147  0.9905 -1.2331 -0.5963
10935TIP3    H254221   6.329   2.494  13.212  1.1270  0.7271  0.4973
10936TIP3   OH254222   5.169   1.978  14.811 -0.0882 -0.4633  0.6959
10936TIP3    H154223   5.177   2.066  14.775 -1.8219 -1.2240 -1.7064
10936TIP3    H254224   5.247   1.932  14.781 -0.7614 -0.6403 -0.8221
10937TIP3   OH254225   1.163   3.338  13.768 -0.3990  0.2001  0.3711
10937TIP3    H154226   1.095   3.386  13.721 -0.5138  1.2320  1.5594
10937TIP3    H254227   1.114   3.278  13.825 -0.2514 -1.8592 -1.6046
10938TIP3   OH254228   4.480   7.108  14.759 -0.6037 -0.1453 -0.0828
10938TIP3    H154229   4.517   7.089  14.673  0.7861  1.9716 -0.0003
10938TIP3    H254230   4.549   7.086  14.820 -0.4450  1.2832  0.2648
10939TIP3   OH254231   0.297   6.319  14.692  0.0485 -0.1268 -0.3012
10939TIP3    H154232   0.370   6.273  14.733  0.2396 -0.2645 -0.7923
10939TIP3    H254233   0.319   6.321  14.599  0.0248  0.9211 -0.2923
10940TIP3   OH254234   5.745   7.082   1.172  0.5543 -0.6616  0.3087
10940TIP3    H154235   5.821   7.135   1.196  1.4152 -1.5443 -0.4285
10940TIP3    H254236   5.773   7.033   1.094 -1.1508 -0.1540 -0.6519
10941TIP3   OH254237   6.454   0.952   3.517 -0.3487  0.5676  0.5869
10941TIP3    H154238   6.428   1.023   3.575  1.4837  1.2164  0.6559
10941TIP3    H254239   6.541   0.925   3.548 -0.4504 -0.8123 -0.2504
10942TIP3   OH254240   0.128   0.565   2.024  0.4276  0.4439  0.1059
10942TIP3    H154241   0.066   0.633   1.997 -0.9776  0.1945  2.5493
10942TIP3    H254242   0.141   0.511   1.946 -2.5093  0.4514 -0.4355
10943TIP3   OH254243   3.406   1.353   2.335 -0.2649  0.5302 -0.0200
10943TIP3    H154244   3.457   1.300   2.397 -0.1416  1.0276  0.3104
10943TIP3    H254245   3.370   1.424   2.388 -2.9603 -0.8953  0.1467
10944TIP3   OH254246   5.432   1.115  15.035  0.2019  0.0871  0.4188
10944TIP3    H154247   5.489   1.123  14.959  0.2666  0.2442  0.4820
10944TIP3    H254248   5.454   1.030  15.074  1.1430  0.6056  1.0401
10945TIP3   OH254249   1.893   0.465  14.594  0.7241  0.0914  1.3265
10945TIP3    H154250   1.842   0.390  14.624 -0.8906  0.9518  0.8225
10945TIP3    H254251   1.983   0.433  14.588 -0.2890 -2.5137 -1.1938
10946TIP3   OH254252   6.106   5.448   4.179  0.0270  0.6522 -0.7081
10946TIP3    H154253   6.028   5.422   4.229  0.4765  1.9309  0.6677
10946TIP3    H254254   6.102   5.393   4.100 -0.4365 -1.7150  0.9172
10947TIP3   OH254255   6.836   5.951   0.329  0.5514  0.0033 -0.1250
10947TIP3    H154256   6.868   6.019   0.270  0.6130 -0.3307 -0.4777
10947TIP3    H254257   6.913   5.925   0.379  0.5952 -0.0158 -0.2013
10948TIP3   OH254258   6.539   2.115   0.083  0.1737 -0.0568  0.1492
10948TIP3    H154259   6.507   2.025   0.089 -0.4433  0.0900 -0.8590
10948TIP3    H254260   6.469   2.162   0.039  0.7406  0.8000  0.1572
10949TIP3   OH254261   1.288   5.887   1.760  0.3110 -0.3869  0.4498
10949TIP3    H154262   1.310   5.909   1.670  0.2685 -0.5800  0.3919
10949TIP3    H254263   1.211   5.941   1.779 -1.8481 -2.9330 -0.8080
10950TIP3   OH254264   5.552   6.173   1.063  0.2486 -0.1474 -0.1064
10950TIP3    H154265   5.620   6.239   1.069 -0.9368  1.0834 -0.0328
10950TIP3    H254266   5.479   6.217   1.018 -1.3880 -0.7051  1.9332
10951TIP3   OH254267   4.077   0.453   2.386  0.3556 -0.0742 -0.4835
10951TIP3    H154268   4.022   0.402   2.326 -0.0764  1.1951 -1.1926
10951TIP3    H254269   4.054   0.544   2.368  1.5939  0.4109  0.2969
10952TIP3   OH254270   1.854   5.887   0.213 -0.5669 -0.3788 -0.1245
10952TIP3    H154271   1.773   5.879   0.263  0.9294 -2.9279  2.0055
10952TIP3    H254272   1.909   5.946   0.265  0.2772 -1.5414  0.3481
10953TIP3   OH254273   0.636   1.115  15.916  0.2103  0.5147 -0.5830
10953TIP3    H154274   0.702   1.082  15.978  1.0465  1.1670 -1.1172
10953TIP3    H254275   0.683   1.179  15.863 -0.8977  1.0851 -0.8885
10954TIP3   OH254276   6.331   0.267   2.037 -0.4119  0.0511 -0.3356
10954TIP3    H154277   6.275   0.320   1.981  0.1652 -1.1521 -2.0874
10954TIP3    H254278   6.276   0.246   2.113 -1.6154  0.6585 -1.0278
10955TIP3   OH254279   6.661   4.834  13.774  0.1518  0.4905  0.9435
10955TIP3    H154280   6.696   4.749  13.800 -0.2692  0.5736  1.7893
10955TIP3    H254281   6.598   4.856  13.843  0.0382  1.3449  0.5672
10956TIP3   OH254282   3.341   2.388   0.388 -0.7608 -0.2216 -0.5943
10956TIP3    H154283   3.323   2.394   0.295  0.6528  1.6005 -0.7538
10956TIP3    H254284   3.417   2.330   0.394 -1.9280 -1.7717 -0.4294
10957TIP3   OH254285   3.529   6.365   2.077 -0.0631 -0.4873 -0.0968
10957TIP3    H154286   3.492   6.285   2.039  0.8522 -1.5146  1.1174
10957TIP3    H254287   3.580   6.334   2.152 -1.3278  1.4189  1.6255
10958TIP3   OH254288   6.115   2.287   3.414 -0.2311  0.4854  0.2179
10958TIP3    H154289   6.136   2.332   3.332  0.7593  0.3503  0.3993
10958TIP3    H254290   6.179   2.217   3.420 -1.7546 -0.9608 -0.0544
10959TIP3   OH254291   1.326   2.252   0.518 -0.0269  0.9173  0.2615
10959TIP3    H154292   1.310   2.191   0.446  1.9010  0.1311  0.4728
10959TIP3    H254293   1.310   2.339   0.480 -0.8608  0.4114 -0.5744
10960TIP3   OH254294   3.554   2.752   1.133  0.4876 -0.0861 -0.1331
10960TIP3    H154295   3.506   2.800   1.065  1.2423  1.6643  0.5291
10960TIP3    H254296   3.634   2.804   1.146  0.0968 -0.0788  2.4925
10961TIP3   OH254297   5.949   2.534   1.424 -0.3506  0.3294 -0.0117
10961TIP3    H154298   5.996   2.613   1.451  1.1800  0.1288 -2.0289
10961TIP3    H254299   5.955   2.476   1.500  1.5114  0.8164  0.2287
10962TIP3   OH254300   4.791   1.504   2.390 -0.3074  0.3774  0.4287
10962TIP3    H154301   4.714   1.485   2.444 -0.4851  3.2177  1.2199
10962TIP3    H254302   4.861   1.454   2.432 -1.5071 -1.6021  0.1597
10963TIP3   OH254303   5.718   0.122   1.557  0.0966 -0.2913  0.0633
10963TIP3    H154304   5.746   0.062   1.488  0.8102 -0.1804  0.2539
10963TIP3    H254305   5.626   0.100   1.572  0.3808 -1.4007  0.2092
10964TIP3   OH254306   0.212   2.656   1.358 -0.4712 -0.1462 -0.4138
10964TIP3    H154307   0.170   2.741   1.345 -0.8557 -0.3373 -0.4162
10964TIP3    H254308   0.142   2.599   1.390 -0.3748 -0.6541 -1.1112
10965TIP3   OH254309   6.470   2.139   1.287  0.2222  0.1405  0.4963
10965TIP3    H154310   6.425   2.217   1.255 -0.7349 -1.4706 -2.2037
10965TIP3    H254311   6.498   2.093   1.208  1.6368 -1.7729  2.0599
10966TIP3   OH254312   2.635   3.457   1.778 -0.2344  0.6420  0.0977
10966TIP3    H154313   2.636   3.541   1.731 -0.2471 -0.4089 -1.8338
10966TIP3    H254314   2.555   3.459   1.830 -0.9341  1.2817 -0.9835
10967TIP3   OH254315   4.111   6.611   0.738  0.5487  0.3535  0.4040
10967TIP3    H154316   4.106   6.529   0.689 -0.2775  0.7063 -0.1165
10967TIP3    H254317   4.205   6.625   0.752  0.6296 -1.6342  2.1414
10968TIP3   OH254318   5.665   1.629   0.467 -0.3664  1.0298  0.0356
10968TIP3    H154319   5.755   1.652   0.443 -0.1313  0.3001  0.1700
10968TIP3    H254320   5.617   1.629   0.385  0.3802 -1.2251 -0.4566
10969TIP3   OH254321   6.471   0.312   2.674 -0.4814 -0.2680  0.4868
10969TIP3    H154322   6.516   0.245   2.623  0.8886 -0.5729  2.0403
10969TIP3    H254323   6.419   0.263   2.738 -3.5980  0.0642 -1.7116
10970TIP3   OH254324   3.259   0.480   3.181  0.4760 -0.2664  0.0864
10970TIP3    H154325   3.279   0.468   3.088  1.3186 -1.9258  0.4578
10970TIP3    H254326   3.307   0.559   3.205  1.6195 -0.7641 -0.5025
10971TIP3   OH254327   1.755   5.640   1.014  0.3176 -0.7279 -0.0019
10971TIP3    H154328   1.669   5.606   1.037  0.1640 -0.7942 -0.6675
10971TIP3    H254329   1.805   5.562   0.988  0.3136 -0.5866 -0.4405
10972TIP3   OH254330   3.645   1.262   2.479 -0.9962  0.1992 -0.0903
10972TIP3    H154331   3.609   1.174   2.483  0.0135 -0.1853  0.7427
10972TIP3    H254332   3.654   1.288   2.571  1.4064  0.0418 -0.2570
10973TIP3   OH254333   1.097   6.784   0.094  0.6975  0.0382  0.2455
10973TIP3    H154334   1.191   6.797   0.081  0.5854  0.9240  0.2564
10973TIP3    H254335   1.067   6.867   0.132 -0.4370  0.5281 -1.6404
10974TIP3   OH254336   6.464   7.252   0.091  0.6596 -0.3260  0.4489
10974TIP3    H154337   6.495   7.310   0.022 -1.1247  1.6110  1.2286
10974TIP3    H254338   6.387   7.209   0.053 -1.0896  1.6978  1.6302
10975TIP3   OH254339   1.804   0.027   2.034  0.0858 -0.3420  0.1581
10975TIP3    H154340   1.821  -0.061   2.067  0.2861 -0.3796 -0.0404
10975TIP3    H254341   1.816   0.085   2.109  1.0309 -0.3758  0.0419
10976TIP3   OH254342   4.295   6.985   3.516 -0.5817 -0.0413 -0.0607
10976TIP3    H154343   4.336   6.941   3.441  1.5274 -1.4598  1.8751
10976TIP3    H254344   4.269   6.915   3.575  1.6622  1.1630  2.4837
10977TIP3   OH254345   0.138   5.970   1.730 -0.0302 -0.3628 -0.7140
10977TIP3    H154346   0.210   6.023   1.765  1.5349 -0.8880 -3.0308
10977TIP3    H254347   0.119   5.907   1.799  1.1255  0.3640  0.2901
10978TIP3   OH254348   5.789   0.707   0.229 -0.0271  0.3555  0.3018
10978TIP3    H154349   5.864   0.660   0.267  0.7292  0.3991 -1.1361
10978TIP3    H254350   5.719   0.695   0.294  0.2505 -2.4858  0.1529
10979TIP3   OH254351   0.660   0.039   1.620  0.3329 -1.0364  0.2715
10979TIP3    H154352   0.663   0.103   1.550  0.4976 -0.8807  0.4209
10979TIP3    H254353   0.568   0.037   1.647  0.6838  0.6531  1.6630
10980TIP3   OH254354   5.661   5.855   4.132 -0.0047  0.0022 -0.3043
10980TIP3    H154355   5.664   5.766   4.097 -0.9963 -0.3062  0.3660
10980TIP3    H254356   5.666   5.911   4.055  0.9884 -0.6261 -0.7105
10981TIP3   OH254357   2.008   0.287  14.172  0.2794  0.2748  0.5743
10981TIP3    H154358   1.921   0.248  14.173  1.3821 -2.2271  1.2984
10981TIP3    H254359   1.994   0.374  14.134 -2.7501  0.4941  2.0454
10982TIP3   OH254360   6.098   0.747  14.322 -0.1384 -0.2291  0.0907
10982TIP3    H154361   6.148   0.797  14.257 -0.0823  0.2682  0.5138
10982TIP3    H254362   6.058   0.814  14.378 -1.4692 -0.6191 -0.3798
10983TIP3   OH254363   7.244   0.123   1.577  0.2669 -0.1529  0.7467
10983TIP3    H154364   7.332   0.161   1.566  0.0564  0.3016  0.6404
10983TIP3    H254365   7.242   0.093   1.668 -0.1895  1.6878  1.3611
10984TIP3   OH254366   6.273   0.133   4.012 -0.6085  0.8374 -0.2627
10984TIP3    H154367   6.259   0.081   4.092 -2.8580  1.6676 -0.0645
10984TIP3    H254368   6.303   0.218   4.043  2.7017 -0.1573 -0.5686
10985TIP3   OH254369   0.218   7.046   4.014 -0.9179  1.0791 -0.1642
10985TIP3    H154370   0.224   7.114   4.081 -0.0347  0.9500 -0.0988
10985TIP3    H254371   0.263   7.084   3.938 -0.2580  0.5001 -0.0672
10986TIP3   OH254372   5.602   5.912   2.748  0.1475  0.4881  0.5550
10986TIP3    H154373   5.506   5.921   2.750 -0.0631 -1.2960 -0.4344
10986TIP3    H254374   5.620   5.867   2.665  1.9642  1.9533  0.1125
10987TIP3   OH254375   5.132   0.653   4.096 -0.8171 -0.3934  0.3320
10987TIP3    H154376   5.171   0.654   4.183 -1.1496  1.2467  0.4794
10987TIP3    H254377   5.056   0.712   4.103 -0.4989  0.2323 -1.2011
10988TIP3   OH254378   0.307   1.959   0.481  0.5899 -0.1407 -0.2687
10988TIP3    H154379   0.344   2.047   0.476  0.5504  0.1062  2.7535
10988TIP3    H254380   0.333   1.917   0.400  2.2302  2.0539 -0.9135
10989TIP3   OH254381   4.711   0.227   3.421 -0.4993  0.1144 -0.0591
10989TIP3    H154382   4.772   0.265   3.484 -0.5437 -0.3501  0.2691
10989TIP3    H254383   4.733   0.134   3.420  0.3798  0.3196 -1.7089
10990TIP3   OH254384   5.138   4.726   2.821  0.1017  0.5153  0.3931
10990TIP3    H154385   5.226   4.725   2.785 -0.4236 -0.0065 -0.8932
10990TIP3    H254386   5.112   4.634   2.823 -0.8498  0.7565 -0.3455
10991TIP3   OH254387   4.406   0.127   0.909 -0.2325  0.0780  0.2936
10991TIP3    H154388   4.490   0.098   0.943 -0.5554 -2.8834 -1.2480
10991TIP3    H254389   4.369   0.050   0.867 -2.3472  2.1273 -1.7940
10992TIP3   OH254390   5.516   4.678  14.067 -0.1095  0.7991  0.0891
10992TIP3    H154391   5.427   4.643  14.065 -1.2779  3.7187 -0.8305
10992TIP3    H254392   5.568   4.606  14.104 -2.3342 -1.9496 -1.8781
10993TIP3   OH254393   1.711   6.348  15.699  0.2559  0.1220 -0.6074
10993TIP3    H154394   1.680   6.263  15.731 -2.3652  0.8757 -1.0188
10993TIP3    H254395   1.755   6.388  15.774 -1.7317 -0.0812  0.7160
10994TIP3   OH254396   1.993   7.218   1.184  0.3584 -0.0146  0.0135
10994TIP3    H154397   1.990   7.123   1.172  0.1889 -0.1228  0.8642
10994TIP3    H254398   2.087   7.239   1.183  0.4974 -0.4793  1.9169
10995TIP3   OH254399   0.091   7.127   2.653  0.3387 -0.1313  0.4390
10995TIP3    H154400   0.062   7.036   2.650  0.6025 -0.2077  0.1147
10995TIP3    H254401   0.016   7.177   2.620 -0.0393 -0.1715  1.2348
10996TIP3   OH254402   3.796   1.688   0.290  0.6444 -0.3080  0.3460
10996TIP3    H154403   3.714   1.651   0.322  0.3721 -0.9865 -1.1278
10996TIP3    H254404   3.771   1.740   0.214  1.7955 -2.0340 -1.2566
10997TIP3   OH254405   6.978   1.109   3.690 -0.4169 -0.7643  0.4066
10997TIP3    H154406   7.011   1.056   3.617 -0.3498 -0.0935 -0.0500
10997TIP3    H254407   7.024   1.193   3.682 -0.9471 -0.4317  0.7904
10998TIP3   OH254408   0.002   6.593   1.351  0.0099  0.4797  0.2273
10998TIP3    H154409  -0.009   6.516   1.296  0.7240  0.7037 -0.2315
10998TIP3    H254410   0.079   6.573   1.405 -0.3334  0.5029  0.7281
10999TIP3   OH254411   1.191   1.303   0.569 -0.1083 -0.0023  0.1336
10999TIP3    H154412   1.216   1.387   0.531 -0.5498  1.5099  3.0975
10999TIP3    H254413   1.259   1.242   0.539  0.2733  1.4008 -1.9538
11000TIP3   OH254414   6.975   0.579   0.681  0.4677  0.0119  0.3268
11000TIP3    H154415   6.927   0.500   0.655 -1.1364  0.9303  0.3979
11000TIP3    H254416   6.934   0.650   0.630  1.2728  0.9362  0.9379
11001TIP3   OH254417   5.797   5.727  15.342 -0.1496 -0.2560  0.1673
11001TIP3    H154418   5.882   5.760  15.371 -0.0548  0.3583 -0.7695
11001TIP3    H254419   5.789   5.641  15.383 -0.3681  0.8983  2.6362
11002TIP3   OH254420   2.266   4.020   1.183  0.4566  0.1023 -0.5181
11002TIP3    H154421   2.246   3.948   1.243  1.2675  0.4852  0.2055
11002TIP3    H254422   2.190   4.023   1.124 -2.1747  2.1909  2.8262
11003TIP3   OH254423   5.917   0.663   1.472 -0.5273 -0.2494  0.3088
11003TIP3    H154424   5.885   0.657   1.382  1.6256  2.9262 -0.7448
11003TIP3    H254425   5.994   0.719   1.466 -0.8658  0.7617  4.2878
11004TIP3   OH254426   0.593   1.250   1.617  0.2554 -0.0183  0.2023
11004TIP3    H154427   0.524   1.306   1.581 -0.1491 -1.2735 -0.9852
11004TIP3    H254428   0.551   1.205   1.691 -0.3651 -1.2079 -0.8694
11005TIP3   OH254429   5.158   3.026   2.488 -0.2223 -0.4646 -0.3398
11005TIP3    H154430   5.202   2.941   2.479  0.6065 -0.2406  1.3520
11005TIP3    H254431   5.121   3.043   2.401  0.9677 -1.8050 -1.1408
11006TIP3   OH254432   0.617   0.943   1.337 -0.1164  0.1132 -0.3319
11006TIP3    H154433   0.552   0.874   1.332 -1.3274  1.1357  0.8701
11006TIP3    H254434   0.589   1.008   1.273 -0.6528  0.8494  0.6352
11007TIP3   OH254435   6.065   0.076   0.413  0.1866  0.0157 -0.1165
11007TIP3    H154436   6.002   0.038   0.351 -0.8025  0.5296  0.5540
11007TIP3    H254437   6.064   0.170   0.394 -0.0347  0.1592  0.5961
11008TIP3   OH254438   4.228   1.036   2.389 -0.3721  0.1143 -0.1822
11008TIP3    H154439   4.155   0.996   2.341 -0.1685 -1.0256  0.4539
11008TIP3    H254440   4.250   1.114   2.337 -1.5841  0.0959 -0.7581
11009TIP3   OH254441   5.221   2.277   1.168 -0.0449 -0.7994  0.3142
11009TIP3    H154442   5.169   2.272   1.249  2.2013  1.7896  1.9781
11009TIP3    H254443   5.289   2.210   1.180 -0.0970 -0.8624  0.2605
11010TIP3   OH254444   6.964   2.773   1.449 -0.7452  0.1580  0.3996
11010TIP3    H154445   6.980   2.690   1.404 -1.8735  0.0736  0.1236
11010TIP3    H254446   6.912   2.749   1.526 -0.1390  0.4844  0.9128
11011TIP3   OH254447   6.116   1.064   1.902 -0.5184  0.3271  0.1671
11011TIP3    H154448   6.065   1.055   1.982 -0.9503  0.6425 -0.0741
11011TIP3    H254449   6.069   1.012   1.837  0.1193 -0.3626  0.2493
11012TIP3   OH254450   3.985   3.629   2.580 -0.1451 -0.1597 -0.2249
11012TIP3    H154451   3.992   3.569   2.506 -1.1247 -1.4353  0.6951
11012TIP3    H254452   3.948   3.576   2.650 -1.0643  1.5452  0.5995
11013TIP3   OH254453   5.865   4.265   2.315 -0.2545  0.2066  0.1278
11013TIP3    H154454   5.841   4.268   2.222  0.0571  0.7177  0.0614
11013TIP3    H254455   5.791   4.221   2.357 -0.0295 -0.7550 -0.4790
11014TIP3   OH254456   5.602   1.288   0.044  0.5442  0.6346  0.5064
11014TIP3    H154457   5.612   1.198   0.073 -0.2246  1.0838  2.2346
11014TIP3    H254458   5.526   1.321   0.093 -0.2225  1.7063 -1.3464
11015TIP3   OH254459   6.996   7.161  15.890  0.7666  0.5115  0.2388
11015TIP3    H154460   7.002   7.079  15.842 -0.3741  0.3389  0.3859
11015TIP3    H254461   6.969   7.226  15.825 -1.0277  0.2267  0.6964
11016TIP3   OH254462   5.910   0.177  15.130 -0.0404 -0.4764 -0.4854
11016TIP3    H154463   5.973   0.142  15.067  0.2659 -0.3691 -0.2384
11016TIP3    H254464   5.962   0.202  15.206 -0.5893 -2.0497  0.4346
11017TIP3   OH254465   5.521   0.871   1.998  0.2505 -0.2495 -0.0277
11017TIP3    H154466   5.459   0.891   1.928 -1.8526  0.4626  1.9776
11017TIP3    H254467   5.486   0.793   2.040  2.3098 -1.5585 -0.6707
11018TIP3   OH254468   1.609   0.111  15.901 -0.3906  0.5554 -0.1723
11018TIP3    H154469   1.536   0.099  15.962  1.0865 -1.9995  1.2204
11018TIP3    H254470   1.582   0.065  15.822  0.1414 -1.4367  0.7682
11019TIP3   OH254471   5.271   0.637  14.379  0.7963 -0.5452  0.1693
11019TIP3    H154472   5.323   0.627  14.458 -0.8952  1.7443  1.6324
11019TIP3    H254473   5.223   0.555  14.370  1.6324 -1.1326  1.0323
11020TIP3   OH254474   5.843   5.612   1.500 -0.1407  0.2301  0.2785
11020TIP3    H154475   5.896   5.680   1.460 -1.5794  0.7028 -0.8444
11020TIP3    H254476   5.826   5.644   1.589  0.6559  0.4932  0.3413
11021TIP3   OH254477   2.173   7.022  15.684 -0.2952 -0.1718  0.1415
11021TIP3    H154478   2.225   7.102  15.694 -2.4083  1.2946 -0.1987
11021TIP3    H254479   2.171   6.985  15.772  0.5861  0.2117  0.3372
11022TIP3   OH254480   6.857   0.862   1.855  0.1581 -0.2899 -0.2504
11022TIP3    H154481   6.823   0.786   1.809  0.1651  0.1527 -1.0111
11022TIP3    H254482   6.922   0.899   1.795 -2.4312  2.4090 -1.5330
11023TIP3   OH254483   5.145   0.820  15.413 -0.0185 -0.0116  0.5608
11023TIP3    H154484   5.210   0.810  15.482  0.2409 -2.6288 -0.0090
11023TIP3    H254485   5.076   0.757  15.434 -0.7664  0.3694 -0.6369
11024TIP3   OH254486   6.330   6.153   1.653 -0.2005  0.3482  0.1063
11024TIP3    H154487   6.370   6.200   1.580  1.7147 -1.9475 -0.4067
11024TIP3    H254488   6.402   6.102   1.690 -1.5695  0.0341  2.4262
11025TIP3   OH254489   0.474   0.121  15.336 -0.3731  0.2549  0.0981
11025TIP3    H154490   0.384   0.098  15.312  0.3570 -3.9006  1.0917
11025TIP3    H254491   0.469   0.144  15.428 -0.4637  0.3370  0.0728
11026TIP3   OH254492   4.050   6.554   2.272 -0.1490 -0.1611  0.7050
11026TIP3    H154493   3.988   6.598   2.329  1.2204  2.2644  0.3827
11026TIP3    H254494   4.038   6.595   2.186  2.4437  0.9890  0.8370
11027TIP3   OH254495   5.948   3.438   2.678  0.5875  0.0307 -0.2144
11027TIP3    H154496   5.885   3.456   2.608 -0.5102  0.3546  0.8410
11027TIP3    H254497   5.958   3.522   2.723  0.7426 -0.3484  0.4532
11028TIP3   OH254498   6.547   5.306   3.111 -0.3012 -0.5016 -0.0302
11028TIP3    H154499   6.587   5.349   3.035 -1.8545  2.0213  0.5052
11028TIP3    H254500   6.617   5.303   3.176  0.6121 -1.3162 -1.0189
11029TIP3   OH254501   6.502   1.487   2.610  0.1845  0.1131  0.3904
11029TIP3    H154502   6.486   1.578   2.634 -0.6847 -0.0394  0.4263
11029TIP3    H254503   6.415   1.453   2.588  0.2669 -1.1258  1.8690
11030TIP3   OH254504   4.812   2.265  15.654  0.0311  0.3481 -1.1679
11030TIP3    H154505   4.858   2.181  15.645 -1.4682 -0.4604 -1.5407
11030TIP3    H254506   4.810   2.282  15.748 -0.0111 -0.2365 -1.0614
11031TIP3   OH254507   2.034   3.626   5.532  0.0713  0.0253 -0.4424
11031TIP3    H154508   1.967   3.612   5.599  0.4821  0.4668  0.0672
11031TIP3    H254509   2.048   3.540   5.493  0.1128 -0.3179  0.3126
11032TIP3   OH254510   3.741   4.456  15.938 -0.1783  0.0874 -0.1944
11032TIP3    H154511   3.771   4.547  15.927  0.2973 -0.1417 -0.7819
11032TIP3    H254512   3.787   4.426  16.017 -2.3553  1.2033  1.5567
11033TIP3   OH254513   6.789   5.890  14.835  0.5379  0.3937 -0.5273
11033TIP3    H154514   6.865   5.834  14.817  0.6688  0.7569 -1.1171
11033TIP3    H254515   6.813   5.938  14.914  1.4155  1.3699 -1.3670
11034TIP3   OH254516   2.465   2.963   1.017 -0.6681 -0.5973  0.5325
11034TIP3    H154517   2.483   2.884   1.067 -1.3615 -0.8394  0.3937
11034TIP3    H254518   2.391   2.941   0.962 -1.3183  0.3675  1.0059
11035TIP3   OH254519   0.742   1.349   0.668 -0.3691 -0.4244 -0.2180
11035TIP3    H154520   0.708   1.323   0.753  2.2835 -0.7507  0.7754
11035TIP3    H254521   0.720   1.442   0.660  0.2812 -0.1456  1.2677
11036TIP3   OH254522   1.787   4.518   0.155 -0.1202 -0.5977  0.4971
11036TIP3    H154523   1.733   4.596   0.148  1.1085  0.4705  2.3456
11036TIP3    H254524   1.761   4.478   0.238  0.4849 -1.1954  0.4060
11037TIP3   OH254525   4.953   2.529   0.109  0.0562 -0.3112 -0.1081
11037TIP3    H154526   5.022   2.596   0.102  0.0550 -0.3294 -0.2824
11037TIP3    H254527   4.965   2.492   0.197  0.0316 -0.0561  0.0035
11038TIP3   OH254528   2.098   1.301   2.850  0.3210  0.5635  0.7972
11038TIP3    H154529   2.131   1.247   2.922  0.4740 -0.8612 -0.3399
11038TIP3    H254530   2.162   1.373   2.843  0.3982  0.6152  1.9567
11039TIP3   OH254531   6.657   3.570  14.953 -0.5342  0.1282  0.1522
11039TIP3    H154532   6.575   3.591  14.999 -0.9848 -1.0097 -0.1262
11039TIP3    H254533   6.642   3.484  14.916  0.3919  0.4058 -0.8677
11040TIP3   OH254534   2.473   0.729   2.682 -0.2962 -0.1710 -0.4121
11040TIP3    H154535   2.443   0.645   2.647  0.3161 -0.5245 -0.0833
11040TIP3    H254536   2.392   0.777   2.700 -0.7105 -1.7162  1.9463
11041TIP3   OH254537   4.166   5.348  15.051 -0.3521  0.0108  0.2456
11041TIP3    H154538   4.166   5.322  15.143 -2.7954  0.9099  0.5374
11041TIP3    H254539   4.162   5.265  15.003 -2.2683 -0.3760  1.0363
11042TIP3   OH254540   3.921   1.411   1.182 -0.3494 -0.0780 -0.0694
11042TIP3    H154541   4.009   1.412   1.219 -0.3417 -2.1797  0.0269
11042TIP3    H254542   3.929   1.361   1.101 -1.6972 -1.4065  0.6002
11043TIP3   OH254543   5.822   6.379   1.444  0.1963  0.0403 -0.4802
11043TIP3    H154544   5.901   6.344   1.401 -0.4022 -0.7173 -0.9777
11043TIP3    H254545   5.796   6.453   1.390  1.6083  1.4286  0.7106
11044TIP3   OH254546   6.144   6.194   2.968 -0.1018 -0.0299  0.0695
11044TIP3    H154547   6.222   6.151   3.003 -0.0761  0.9372  1.2144
11044TIP3    H254548   6.072   6.137   2.993  0.0755 -0.1300  0.3514
11045TIP3   OH254549   2.700   4.223  14.750 -0.5622  0.1843 -0.0924
11045TIP3    H154550   2.657   4.246  14.833  0.2599 -2.1429  1.0262
11045TIP3    H254551   2.703   4.305  14.701  0.5453  2.0517  2.9323
11046TIP3   OH254552   4.745   1.568   2.117 -0.4621  0.1335  0.0594
11046TIP3    H154553   4.769   1.569   2.209 -1.8695  2.7250  0.4482
11046TIP3    H254554   4.829   1.571   2.071  0.1710  2.6634  1.3111
11047TIP3   OH254555   1.245   1.469  15.933 -0.5764  0.2788 -0.5452
11047TIP3    H154556   1.222   1.536  15.868  0.1541 -1.6965 -2.9222
11047TIP3    H254557   1.239   1.515  16.017  0.4968  3.5094 -2.1095
11048TIP3   OH254558   3.221   0.798   0.708 -0.0683  0.2771 -0.2364
11048TIP3    H154559   3.232   0.752   0.792  2.1657  0.9070 -0.1673
11048TIP3    H254560   3.204   0.728   0.645 -0.6027 -0.2964  0.5292
11049TIP3   OH254561   0.898   1.345   2.465  0.4888  0.5240  0.1504
11049TIP3    H154562   0.869   1.423   2.417  1.6179  1.3186  0.7415
11049TIP3    H254563   0.933   1.287   2.397 -0.0600  0.6506 -0.2509
11050TIP3   OH254564   2.513   3.087   1.340 -0.1882 -0.4098 -0.1662
11050TIP3    H154565   2.548   3.023   1.279  1.2942  1.1642 -1.0139
11050TIP3    H254566   2.581   3.095   1.407  0.0650  0.9705 -0.5815
11051TIP3   OH254567   2.032   4.625   0.183  0.3977 -0.0690  0.1240
11051TIP3    H154568   1.948   4.601   0.144  0.9383 -1.9265  0.0537
11051TIP3    H254569   2.084   4.658   0.110  0.2589 -0.3948 -0.1226
11052TIP3   OH254570   0.531   1.180   0.606  0.5118 -0.0049  0.0711
11052TIP3    H154571   0.500   1.161   0.518 -2.2058  1.1584  0.7374
11052TIP3    H254572   0.604   1.241   0.593 -0.9676  1.5222 -1.3377
11053TIP3   OH254573   5.505   2.426  15.713 -0.6415 -0.1897 -0.0912
11053TIP3    H154574   5.419   2.399  15.682 -0.4439  1.1668 -1.9112
11053TIP3    H254575   5.555   2.345  15.719 -1.4987 -0.7727 -0.7628
11054TIP3   OH254576   1.651   5.832   0.661  0.5132 -0.1632 -1.1038
11054TIP3    H154577   1.581   5.784   0.704  0.0941 -0.3475 -1.9838
11054TIP3    H254578   1.643   5.921   0.695  0.9519 -0.5746  0.1180
11055TIP3   OH254579   0.332   1.250   1.455  0.2084 -0.8335  0.1062
11055TIP3    H154580   0.292   1.326   1.498  1.0156  0.3176 -1.1394
11055TIP3    H254581   0.273   1.230   1.383 -0.3017 -1.7535  0.7782
11056TIP3   OH254582   3.311   3.956   1.819 -0.1436  0.1256 -0.0316
11056TIP3    H154583   3.369   3.917   1.885  0.6246  0.0039 -0.7661
11056TIP3    H254584   3.267   3.881   1.779 -0.1425  0.1523 -0.0831
11057TIP3   OH254585   1.171   3.279  12.860 -0.0290  0.0073  0.1299
11057TIP3    H154586   1.260   3.313  12.862  0.0545 -0.1804 -0.3962
11057TIP3    H254587   1.162   3.229  12.941  0.7946 -1.1262 -0.4761
11058TIP3   OH254588   7.181   1.823  14.554  0.5125  0.4827  0.1627
11058TIP3    H154589   7.236   1.797  14.627 -1.3119  0.8650  1.7004
11058TIP3    H254590   7.158   1.914  14.573 -1.7271 -0.0905  0.2159
11059TIP3   OH254591   1.603   4.711   0.165  0.5428 -0.5503  0.4200
11059TIP3    H154592   1.515   4.727   0.200  0.8571 -0.4455  1.1668
11059TIP3    H254593   1.589   4.700   0.071 -0.1254  0.5840  0.3767
11060TIP3   OH254594   2.368   6.236   3.432 -0.5160 -0.3833 -0.4343
11060TIP3    H154595   2.366   6.241   3.528  0.9131  0.1234 -0.4246
11060TIP3    H254596   2.378   6.327   3.404 -0.7580 -0.5506 -1.0619
11061TIP3   OH254597   3.543   1.314   0.528 -0.6243  0.3590  0.0509
11061TIP3    H154598   3.458   1.301   0.569 -0.7340  2.6603  0.6006
11061TIP3    H254599   3.578   1.226   0.517 -2.3529 -0.5103  1.3293
11062TIP3   OH254600   4.579   3.854  12.989  0.5090  0.3097 -0.2985
11062TIP3    H154601   4.548   3.897  12.910  0.6397  0.4568 -0.2701
11062TIP3    H254602   4.499   3.823  13.032  0.3863  0.9682 -0.0581
11063TIP3   OH254603   2.953   1.168   1.049  0.1108 -0.5257 -0.1520
11063TIP3    H154604   2.866   1.140   1.079  1.4942 -1.7128  2.9791
11063TIP3    H254605   2.987   1.091   1.002  0.2703 -0.8239  0.4416
11064TIP3   OH254606   2.653   4.991   2.007 -0.3733  0.2958  0.5915
11064TIP3    H154607   2.631   5.083   2.023  0.6220  0.5167  0.7500
11064TIP3    H254608   2.689   4.960   2.090  0.6024  0.1666  0.1249
11065TIP3   OH254609   1.310   5.364   2.787 -0.0317 -0.0661 -0.4171
11065TIP3    H154610   1.263   5.389   2.707 -0.2821 -3.0028 -1.2502
11065TIP3    H254611   1.251   5.302   2.830  1.3267 -0.6341  0.6235
11066TIP3   OH254612   4.329   6.984   1.219  0.7389 -0.3531 -0.0021
11066TIP3    H154613   4.375   6.905   1.245  0.9049 -0.4648 -0.6303
11066TIP3    H254614   4.324   7.037   1.299  1.0200 -0.7996  0.3094
11067TIP3   OH254615   2.636   3.160   1.722  0.1257  0.2482 -0.2049
11067TIP3    H154616   2.637   3.255   1.717  0.3328  0.2091 -0.9982
11067TIP3    H254617   2.545   3.137   1.740 -0.3656  0.4905 -2.3347
11068TIP3   OH254618   0.947   3.975   2.444  0.8863 -0.3134  0.9306
11068TIP3    H154619   1.025   3.921   2.440  0.1248 -1.4028  0.4967
11068TIP3    H254620   0.875   3.912   2.453 -0.0076  0.6238  0.4479
11069TIP3   OH254621   6.226   3.434  13.974 -0.5336  0.0790  0.3888
11069TIP3    H154622   6.264   3.375  13.909 -1.7839 -0.4990  0.1725
11069TIP3    H254623   6.159   3.482  13.926 -1.1058  0.0239  1.1360
11070TIP3   OH254624   0.059   3.831   2.254  0.1073 -0.5511  0.0464
11070TIP3    H154625   0.049   3.900   2.189 -0.2527 -1.8640 -1.3282
11070TIP3    H254626   0.088   3.876   2.333 -1.3897  1.3150 -0.4463
11071TIP3   OH254627   1.196   4.444   1.907  0.6518  0.4957  0.1643
11071TIP3    H154628   1.290   4.445   1.927  1.1413  1.9960 -1.9242
11071TIP3    H254629   1.154   4.474   1.987  1.6955 -2.8593  2.0548
11072TIP3   OH254630   4.664   6.844  15.069  0.4257  0.4573  0.2981
11072TIP3    H154631   4.596   6.788  15.031  2.0503 -1.0224 -0.4903
11072TIP3    H254632   4.659   6.925  15.020 -0.0109 -0.0656 -0.5260
11073TIP3   OH254633   0.427   2.955   3.629 -0.2367  0.5375  0.0408
11073TIP3    H154634   0.398   2.882   3.574 -0.9213  0.4592  0.5079
11073TIP3    H254635   0.520   2.965   3.607 -0.5833  0.7522 -1.4144
11074TIP3   OH254636   2.589   3.258   3.979  0.4256  0.2370 -0.5801
11074TIP3    H154637   2.582   3.183   3.920  0.6474 -0.9653  0.8563
11074TIP3    H254638   2.645   3.320   3.933  0.3832 -0.5702 -1.7326
11075TIP3   OH254639   6.745   6.494   1.242  0.2642  0.6770 -0.4326
11075TIP3    H154640   6.773   6.515   1.331 -1.0529 -1.5989  0.5433
11075TIP3    H254641   6.818   6.444   1.205  1.2754  2.5471 -1.0526
11076TIP3   OH254642   4.321   1.892   2.194 -0.2023  0.1577  1.1780
11076TIP3    H154643   4.410   1.861   2.212  0.1636  1.7430  2.1973
11076TIP3    H254644   4.276   1.885   2.278 -1.3154 -1.5017  0.4487
11077TIP3   OH254645   5.830   0.839   2.227  0.3515 -0.0270 -0.4342
11077TIP3    H154646   5.745   0.882   2.230  1.3610  1.9965 -0.0432
11077TIP3    H254647   5.857   0.831   2.318  0.1558 -1.5493 -0.4984
11078TIP3   OH254648   0.209   6.521  14.495  0.3209  0.3248 -0.2442
11078TIP3    H154649   0.255   6.523  14.579 -0.1853 -0.3749  0.0543
11078TIP3    H254650   0.241   6.598  14.448  2.7306 -0.8228 -0.5365
11079TIP3   OH254651   3.802   0.591   0.069  0.2428  0.5506 -0.1405
11079TIP3    H154652   3.725   0.583   0.013  0.6571  1.1806 -0.8141
11079TIP3    H254653   3.807   0.684   0.089 -0.5972  0.1559  1.9577
11080TIP3   OH254654   3.977   2.010  14.958  0.0919 -0.1101  0.1208
11080TIP3    H154655   4.058   2.055  14.982  0.5807  0.2350 -2.0558
11080TIP3    H254656   4.005   1.922  14.934 -0.4077 -0.5205  1.0485
11081TIP3   OH254657   0.015   2.407  15.113 -0.1602  0.0145  0.2219
11081TIP3    H154658   0.093   2.443  15.072 -0.6824 -0.4944 -1.2512
11081TIP3    H254659  -0.056   2.427  15.052 -1.3967  1.4873  2.0809
11082TIP3   OH254660   2.337   2.173  15.128  0.5410 -0.3176  0.3371
11082TIP3    H154661   2.296   2.235  15.067  1.0139 -0.7162 -0.3941
11082TIP3    H254662   2.373   2.228  15.197 -0.3512  0.1097  0.4704
11083TIP3   OH254663   6.281   3.110  15.551 -0.2088 -0.1259  0.0420
11083TIP3    H154664   6.222   3.166  15.500 -0.7901 -0.1237  0.7245
11083TIP3    H254665   6.240   3.023  15.548 -0.1014 -0.1832  0.2812
11084TIP3   OH254666   6.358   4.730   0.648  0.5115  0.4549  0.0420
11084TIP3    H154667   6.353   4.739   0.553 -0.6798 -2.0557 -0.1819
11084TIP3    H254668   6.448   4.703   0.664  0.1760 -1.0920 -0.5860
11085TIP3   OH254669   2.775   7.249  14.546 -0.3778  0.4700  0.2203
11085TIP3    H154670   2.684   7.220  14.544 -0.3201  0.3329 -0.4621
11085TIP3    H254671   2.825   7.169  14.561 -0.2670  0.3220 -0.9369
11086TIP3   OH254672   0.880   2.556  15.619  0.3924  0.1383  0.0491
11086TIP3    H154673   0.897   2.585  15.709 -0.8031 -0.3742  0.4559
11086TIP3    H254674   0.790   2.585  15.601 -0.2035 -1.7557 -0.1523
11087TIP3   OH254675   3.105   3.715   1.981  0.0362 -0.1377  0.0495
11087TIP3    H154676   3.035   3.665   2.025 -1.6049 -0.3430 -2.6863
11087TIP3    H254677   3.132   3.780   2.046 -3.6637  0.8301  0.7532
11088TIP3   OH254678   2.948   5.012  15.776 -0.1128  0.4596  0.0474
11088TIP3    H154679   3.038   4.980  15.783  0.0864  0.7079 -1.1371
11088TIP3    H254680   2.956   5.107  15.786 -0.1112  0.5768 -0.9666
11089TIP3   OH254681   3.404   3.195   2.375  0.4560  0.6234  0.2748
11089TIP3    H154682   3.448   3.202   2.459 -1.4766 -0.8004  1.4584
11089TIP3    H254683   3.311   3.205   2.396 -0.4596 -4.0729 -1.0305
11090TIP3   OH254684   5.096   5.115   0.391 -0.1036  0.6659  0.2313
11090TIP3    H154685   5.162   5.102   0.323 -1.0749  1.1299 -0.8166
11090TIP3    H254686   5.099   5.034   0.443  0.8324  0.4228 -0.1926
11091TIP3   OH254687   4.780   3.543  14.776 -0.6542 -0.0795  0.0915
11091TIP3    H154688   4.819   3.617  14.729  0.0013 -0.0179  0.7332
11091TIP3    H254689   4.853   3.485  14.796 -1.1147 -0.7275 -0.0856
11092TIP3   OH254690   3.627   4.874  13.564  0.0201  0.2479  0.0132
11092TIP3    H154691   3.706   4.899  13.516 -0.1400  1.0922  0.1902
11092TIP3    H254692   3.556   4.921  13.521  0.0646  2.2533  2.0112
11093TIP3   OH254693   6.939   7.250   0.376 -0.4103  0.1409  0.2809
11093TIP3    H154694   6.925   7.186   0.306  0.4107 -0.6828  0.8656
11093TIP3    H254695   6.931   7.335   0.332 -1.4158 -0.3472 -0.5142
11094TIP3   OH254696   1.097   4.511   2.150  0.1429  0.0163  0.1919
11094TIP3    H154697   1.038   4.560   2.207 -0.8953 -0.8346 -0.1406
11094TIP3    H254698   1.112   4.428   2.195  0.2190 -0.2089 -0.2414
11095TIP3   OH254699   6.777   5.067   0.329 -0.4715 -0.3558 -0.1244
11095TIP3    H154700   6.826   5.012   0.269  2.1012 -0.3117  1.8446
11095TIP3    H254701   6.802   5.036   0.416 -1.1586  2.0556  0.9882
11096TIP3   OH254702   1.765   4.317  15.252 -0.1298 -0.0439 -0.0271
11096TIP3    H154703   1.819   4.297  15.328 -0.2699 -0.0264  0.0773
11096TIP3    H254704   1.827   4.348  15.186  0.3358 -2.6824 -0.8788
11097TIP3   OH254705   3.705   2.296  14.736  0.1556  0.3490  0.2152
11097TIP3    H154706   3.730   2.327  14.649 -1.6041 -0.6558 -0.7023
11097TIP3    H254707   3.643   2.362  14.768  0.3698  0.4265  0.4737
11098TIP3   OH254708   3.385   4.070  14.417  0.3162  0.5182 -0.2531
11098TIP3    H154709   3.354   4.011  14.349 -2.2434 -0.1238  1.3786
11098TIP3    H254710   3.446   4.017  14.468  0.4969  0.2923 -0.7011
11099TIP3   OH254711   6.578   5.764  15.537  0.0786 -0.3669 -0.5615
11099TIP3    H154712   6.508   5.703  15.516  0.2087 -0.7586  0.1383
11099TIP3    H254713   6.537   5.851  15.534 -0.2064 -0.5183 -1.0998
11100TIP3   OH254714   0.062   3.914   2.895 -0.0144  0.3823  0.3682
11100TIP3    H154715   0.009   3.892   2.972 -1.0237  2.7525  0.3805
11100TIP3    H254716   0.021   3.992   2.859  1.7741  0.5817 -1.3222
11101TIP3   OH254717   5.198   1.961   1.784 -0.2841  0.2998  0.0621
11101TIP3    H154718   5.238   1.874   1.783  2.0144  1.1985  3.5486
11101TIP3    H254719   5.272   2.022   1.789 -1.9073  2.3562 -0.0170
11102TIP3   OH254720   1.716   5.094  14.560 -0.5564  0.6627 -0.0981
11102TIP3    H154721   1.782   5.026  14.546 -0.0218  1.1331  0.0800
11102TIP3    H254722   1.663   5.092  14.480 -0.4387  0.1546 -0.1673
11103TIP3   OH254723   3.524   3.286   0.613 -0.3633 -0.1008 -0.1128
11103TIP3    H154724   3.607   3.258   0.651  0.1431  1.1561 -0.2560
11103TIP3    H254725   3.524   3.382   0.622 -1.4034 -0.0075 -0.8979
11104TIP3   OH254726   5.855   1.441   3.178 -0.2417 -0.1915  0.2676
11104TIP3    H154727   5.884   1.350   3.191 -1.2692 -0.9010 -2.1859
11104TIP3    H254728   5.765   1.443   3.208  0.3971  0.5506  2.2289
11105TIP3   OH254729   6.247   2.266   1.098  0.2996  0.4216 -0.2190
11105TIP3    H154730   6.159   2.293   1.073  0.6610  1.1230 -0.7591
11105TIP3    H254731   6.303   2.296   1.026  0.5399 -3.0933 -1.5962
11106TIP3   OH254732   2.502   5.689  14.894 -0.1456  0.2167  0.2007
11106TIP3    H154733   2.491   5.732  14.809  1.7112  2.1748  0.8904
11106TIP3    H254734   2.567   5.743  14.940  1.0962 -2.4985  1.7413
11107TIP3   OH254735   7.136   0.148   2.203  0.3970 -0.3628  0.2365
11107TIP3    H154736   7.054   0.101   2.187  0.3511 -0.5463  0.9948
11107TIP3    H254737   7.110   0.239   2.211  0.3089 -0.3788  0.1350
11108TIP3   OH254738   2.060   2.776   2.000  0.6270 -1.2347 -0.0906
11108TIP3    H154739   2.037   2.705   2.060  0.6457 -0.3295  1.0112
11108TIP3    H254740   2.126   2.738   1.942  0.2985 -2.2511  0.1892
11109TIP3   OH254741   1.742   4.575   1.555  0.8435 -0.0813  0.2122
11109TIP3    H154742   1.791   4.493   1.558 -0.0257 -0.5944  0.3945
11109TIP3    H254743   1.668   4.562   1.614 -1.2274 -0.4489 -2.3602
11110TIP3   OH254744   3.479   6.163  14.849  0.0332  0.2248 -0.1978
11110TIP3    H154745   3.457   6.166  14.756 -1.4166 -0.1829  0.1128
11110TIP3    H254746   3.464   6.072  14.874  1.9912 -0.0508  0.0899
11111TIP3   OH254747   6.983   2.302   1.519  0.3731 -0.4492  0.0774
11111TIP3    H154748   6.908   2.247   1.541 -0.0656  0.2194  0.2460
11111TIP3    H254749   7.051   2.240   1.493  0.0407 -1.0974  0.7516
11112TIP3   OH254750   6.344   3.692   1.451 -0.4035 -0.2799 -0.3436
11112TIP3    H154751   6.334   3.767   1.391  2.4118 -0.0841 -0.6396
11112TIP3    H254752   6.301   3.720   1.532 -1.1577  0.8553 -1.1241
11113TIP3   OH254753   7.149   4.716   0.191  1.2011 -0.1099  0.1541
11113TIP3    H154754   7.056   4.695   0.202  1.1977  1.0051  2.3391
11113TIP3    H254755   7.149   4.807   0.162  1.6432  0.1738  1.0451
11114TIP3   OH254756   0.371   3.286  14.806 -0.1534  0.0459  0.5648
11114TIP3    H154757   0.448   3.264  14.753  0.2787 -0.4282  1.3842
11114TIP3    H254758   0.347   3.203  14.848 -1.6591 -0.0066 -0.3991
11115TIP3   OH254759   2.861   1.999   4.643 -0.0062 -0.0864 -0.0413
11115TIP3    H154760   2.804   1.923   4.637  2.2635 -1.8735  0.2034
11115TIP3    H254761   2.930   1.984   4.578  1.2666  1.0556  0.9872
11116TIP3   OH254762   2.195   1.771   0.015  0.2409  0.0838  0.1546
11116TIP3    H154763   2.189   1.724  -0.068 -1.7197  1.0645 -0.2805
11116TIP3    H254764   2.269   1.730   0.061 -1.2203 -3.2107 -0.3300
11117TIP3   OH254765   2.553   6.607  15.281  0.9170  0.0852  0.1860
11117TIP3    H154766   2.493   6.604  15.356 -1.6178 -1.5946 -1.8329
11117TIP3    H254767   2.548   6.697  15.249 -1.1047 -0.2237 -0.4005
11118TIP3   OH254768   0.167   3.088   2.314  0.2978  0.4565 -0.3359
11118TIP3    H154769   0.071   3.087   2.311  0.1445  2.5385  1.7709
11118TIP3    H254770   0.194   3.114   2.226 -1.1137  0.5508 -0.7516
11119TIP3   OH254771   1.409   3.248  15.563 -0.7211  1.0329  0.8230
11119TIP3    H154772   1.425   3.201  15.481 -0.5986  1.8123  0.3959
11119TIP3    H254773   1.497   3.271  15.595 -0.7609  0.5882  1.2603
11120TIP3   OH254774   0.087   4.491  14.984  0.4289  0.0475 -0.3195
11120TIP3    H154775   0.093   4.560  14.919  0.6022 -1.1678 -1.6112
11120TIP3    H254776   0.133   4.417  14.945 -0.4131 -1.0412  0.7180
11121TIP3   OH254777   6.876   4.583  14.813 -0.2312 -0.3445  0.3458
11121TIP3    H154778   6.901   4.594  14.721  0.7050  0.6817  0.7078
11121TIP3    H254779   6.820   4.658  14.831 -0.9168 -0.8806  0.4468
11122TIP3   OH254780   5.655   3.296   1.561  0.1137 -0.6613  0.0937
11122TIP3    H154781   5.585   3.250   1.514  1.0728 -1.3800 -0.6646
11122TIP3    H254782   5.724   3.308   1.495  0.5906  0.2727  0.7621
11123TIP3   OH254783   2.737   2.494  14.768  0.2821  0.6706 -0.3351
11123TIP3    H154784   2.690   2.411  14.778 -0.2109  0.8024 -1.5009
11123TIP3    H254785   2.797   2.479  14.695  0.1568  1.3553 -0.5786
11124TIP3   OH254786   4.545   3.282  14.987 -0.1045 -0.0606  0.0668
11124TIP3    H154787   4.633   3.251  15.006 -1.1039 -0.5839  4.3749
11124TIP3    H254788   4.556   3.375  14.967  1.3797  0.0504  1.2931
11125TIP3   OH254789   2.193   5.883   0.078  0.2794 -0.5799 -0.2388
11125TIP3    H154790   2.270   5.937   0.061  0.5952 -0.3613  1.7096
11125TIP3    H254791   2.229   5.800   0.110 -0.2630 -0.4734  0.6876
11126TIP3   OH254792   7.226   3.962   1.126 -0.3904  0.1505  0.6871
11126TIP3    H154793   7.196   3.900   1.193 -1.6518  0.6885  0.6437
11126TIP3    H254794   7.159   3.957   1.058  0.7101 -0.1486 -0.3955
11127TIP3   OH254795   3.166   3.405   2.601  0.2850 -0.4856 -0.3968
11127TIP3    H154796   3.130   3.462   2.533 -0.7380 -2.0157 -1.1550
11127TIP3    H254797   3.090   3.368   2.645  0.9442 -0.7730  0.5370
11128TIP3   OH254798   0.735   1.184   1.959 -0.0705  0.0011 -0.1040
11128TIP3    H154799   0.647   1.166   1.926 -0.2590 -4.9262  2.5849
11128TIP3    H254800   0.721   1.224   2.045  0.3457  0.8640 -0.4301
11129TIP3   OH254801   6.512   1.371  14.282  0.2378 -0.0089  0.0164
11129TIP3    H154802   6.461   1.374  14.201  0.2124 -1.3926 -0.0418
11129TIP3    H254803   6.468   1.303  14.334  0.5911  0.4820  0.9481
11130TIP3   OH254804   7.009   2.959  15.409  0.0748 -0.0102 -0.3963
11130TIP3    H154805   7.036   3.049  15.429  1.3872 -0.4154 -0.3472
11130TIP3    H254806   6.920   2.968  15.376  0.4236  1.3827 -0.9785
11131TIP3   OH254807   6.789   1.089   3.400 -0.4142  0.1215 -0.0882
11131TIP3    H154808   6.745   1.165   3.438  0.2235  0.1022  0.7165
11131TIP3    H254809   6.754   1.014   3.448 -0.7117 -0.0455 -0.5694
11132TIP3   OH254810   5.936   3.773   1.712 -0.7352  0.5004 -0.9932
11132TIP3    H154811   5.946   3.706   1.644  1.3282 -0.5128  0.2746
11132TIP3    H254812   6.025   3.801   1.732 -1.4800  2.5541 -0.4150
11133TIP3   OH254813   5.191   2.910   0.177 -0.4936  0.2115 -0.1907
11133TIP3    H154814   5.124   2.971   0.209 -4.0837 -2.1650 -2.7882
11133TIP3    H254815   5.193   2.841   0.243 -1.1497 -0.0652 -0.4525
11134TIP3   OH254816   5.619   5.129  15.648 -0.6300  0.5850 -0.1660
11134TIP3    H154817   5.588   5.218  15.634 -3.5653 -0.3115  0.4414
11134TIP3    H254818   5.650   5.128  15.739 -4.3728 -0.0021  1.1996
11135TIP3   OH254819   2.612   3.163   3.054 -0.0228 -0.3634 -0.6598
11135TIP3    H154820   2.684   3.216   3.087 -0.1187  0.0277 -1.0659
11135TIP3    H254821   2.631   3.074   3.084  0.8748 -0.3474 -1.1555
11136TIP3   OH254822   3.127   6.602   3.207 -0.6964 -0.1593  0.4072
11136TIP3    H154823   3.032   6.600   3.223 -0.7876 -0.2608 -0.1173
11136TIP3    H254824   3.142   6.528   3.147 -0.1606 -0.6538  1.1431
11137TIP3   OH254825   5.250   5.115   0.169  0.1237 -0.1501  0.6087
11137TIP3    H154826   5.158   5.127   0.142 -0.2107 -2.1597  0.8167
11137TIP3    H254827   5.294   5.084   0.090  0.5758  0.5337  0.5893
11138TIP3   OH254828   4.032   2.894   1.657 -0.2530 -0.0959  0.0342
11138TIP3    H154829   3.971   2.823   1.676 -0.5167  0.5324  1.6429
11138TIP3    H254830   4.059   2.880   1.566 -0.4314 -2.1357  0.2876
11139TIP3   OH254831   6.032   4.821   0.459 -0.1729  0.3566  0.0035
11139TIP3    H154832   5.978   4.896   0.434 -0.0237  0.2830 -0.5333
11139TIP3    H254833   6.014   4.810   0.553 -0.3544  0.9310  0.0422
11140TIP3   OH254834   1.991   1.654   0.415  0.2095 -0.0766  0.1007
11140TIP3    H154835   1.986   1.558   0.419  0.2429  0.0113  2.9831
11140TIP3    H254836   2.035   1.680   0.496 -1.5248  2.4883  0.2943
11141TIP3   OH254837   2.759   3.313  13.169 -0.5618 -0.1929 -0.3261
11141TIP3    H154838   2.770   3.364  13.250  0.4977  1.2974 -1.3939
11141TIP3    H254839   2.697   3.244  13.194 -1.6454  1.2908  1.2971
11142TIP3   OH254840   2.962   7.282   2.445 -0.3798 -0.1045  0.4775
11142TIP3    H154841   3.025   7.244   2.384  0.4211 -0.3637  1.4526
11142TIP3    H254842   2.987   7.246   2.531 -1.2543  0.5443  1.0093
11143TIP3   OH254843   6.005   1.754  15.643  0.1240  0.1644 -0.1398
11143TIP3    H154844   6.098   1.738  15.624 -0.3710 -2.2351 -0.6406
11143TIP3    H254845   5.971   1.797  15.565  0.5954  0.1870 -0.3342
11144TIP3   OH254846   1.734   2.647   0.810  0.6093  0.2233  0.2463
11144TIP3    H154847   1.653   2.642   0.862  1.5973  0.5851  1.8740
11144TIP3    H254848   1.707   2.624   0.721 -1.5399  1.6651  0.4788
11145TIP3   OH254849   2.093   2.005   4.748  0.4386  0.0931 -0.1942
11145TIP3    H154850   2.187   1.998   4.731  0.1789 -1.6586 -1.0862
11145TIP3    H254851   2.076   2.099   4.749  2.0218  0.4161 -1.1087
11146TIP3   OH254852   4.830   5.002   0.351  0.8397 -0.0078  0.2228
11146TIP3    H154853   4.905   5.050   0.388 -1.4885  3.9694  0.0757
11146TIP3    H254854   4.803   5.055   0.276 -2.0807 -1.3949  0.2465
11147TIP3   OH254855   1.779   4.241   2.039  0.8012  0.5972 -0.0724
11147TIP3    H154856   1.868   4.212   2.060  1.5662  1.6525 -1.7586
11147TIP3    H254857   1.791   4.326   1.996 -0.8574 -0.2858 -2.3602
11148TIP3   OH254858   6.142   2.895   1.012 -0.3491 -0.1472 -0.2635
11148TIP3    H154859   6.127   2.824   0.949 -2.0134  0.2105 -0.3153
11148TIP3    H254860   6.054   2.924   1.035  0.2550  0.1242  1.7922
11149TIP3   OH254861   4.746   1.699   0.575 -0.4977 -0.0418  0.2498
11149TIP3    H154862   4.729   1.706   0.669 -2.6260  0.6591 -0.1596
11149TIP3    H254863   4.760   1.790   0.547  2.0919 -0.4241  0.2097
11150TIP3   OH254864   1.414   3.900  14.314 -0.3537  0.2713 -0.2152
11150TIP3    H154865   1.414   3.805  14.326  0.8490  0.1823 -0.7609
11150TIP3    H254866   1.346   3.917  14.249  0.0426 -0.3229 -0.7898
11151TIP3   OH254867   2.682   4.692  14.871 -0.1549  0.1829  0.3812
11151TIP3    H154868   2.657   4.679  14.962 -0.4437  0.8668  0.4039
11151TIP3    H254869   2.769   4.733  14.875 -0.1496  0.1740  0.3495
11152TIP3   OH254870   1.302   3.107   2.182  0.3274 -0.4904 -0.4813
11152TIP3    H154871   1.310   3.173   2.113 -1.4631 -0.6894 -0.8878
11152TIP3    H254872   1.223   3.058   2.160  0.2505 -1.1502  1.1977
11153TIP3   OH254873   2.115   0.550   2.870 -0.5485  0.1338  0.0544
11153TIP3    H154874   2.172   0.587   2.938 -1.8490  1.0862  0.6422
11153TIP3    H254875   2.052   0.619   2.852 -0.4527 -0.2623 -1.8642
11154TIP3   OH254876   0.759   3.378  14.519  0.3379 -0.2450  0.0057
11154TIP3    H154877   0.817   3.365  14.444 -1.1820  1.4421 -1.5370
11154TIP3    H254878   0.805   3.441  14.574  0.3675  0.4570 -0.8024
11155TIP3   OH254879   1.810   2.024  14.320  0.1002  0.0962  0.3273
11155TIP3    H154880   1.795   2.001  14.412  0.9188  1.0133  0.6994
11155TIP3    H254881   1.891   2.075  14.321  0.9492 -1.1767 -1.0983
11156TIP3   OH254882   1.833   7.271   0.773  0.3709 -0.2157 -0.3867
11156TIP3    H154883   1.764   7.208   0.757  0.3807 -1.0264  2.4908
11156TIP3    H254884   1.787   7.353   0.793  0.2304 -0.5958  0.8940
11157TIP3   OH254885   1.863   5.322   1.056  0.2870 -0.3208 -0.2386
11157TIP3    H154886   1.958   5.323   1.067  0.2168  2.1101  0.3351
11157TIP3    H254887   1.850   5.337   0.963  0.4501 -1.1748 -0.4094
11158TIP3   OH254888   5.940   4.878   2.039  0.5481  0.5735 -0.2242
11158TIP3    H154889   5.847   4.869   2.022  0.1588  0.9029  1.6103
11158TIP3    H254890   5.982   4.854   1.957 -1.0387 -2.1006 -0.3255
11159TIP3   OH254891   0.251   7.106   5.492 -0.2374  0.8717  0.0793
11159TIP3    H154892   0.203   7.162   5.553 -0.3830  0.4777  0.3320
11159TIP3    H254893   0.289   7.038   5.548  0.3412  0.9994 -0.1623
11160TIP3   OH254894   2.559   1.567  15.586 -0.3289 -0.1275 -0.4844
11160TIP3    H154895   2.517   1.487  15.619  0.2352  0.0144  0.6051
11160TIP3    H254896   2.638   1.536  15.542  0.2712 -0.1120  0.5799
11161TIP3   OH254897   1.234   1.579   0.441  0.1736 -0.7422 -0.5457
11161TIP3    H154898   1.291   1.642   0.486 -1.3797 -0.0801  0.5122
11161TIP3    H254899   1.145   1.609   0.459 -0.5129 -1.1844 -3.0590
11162TIP3   OH254900   6.465   3.132   0.636 -0.1779  0.2183 -0.1537
11162TIP3    H154901   6.395   3.194   0.657  0.1899 -0.0880  2.0905
11162TIP3    H254902   6.419   3.050   0.618 -0.4904  0.4124 -0.2592
11163TIP3   OH254903   2.110   6.892  15.948 -0.2602 -0.0777  0.5176
11163TIP3    H154904   2.037   6.837  15.974 -1.2688  0.0788 -1.9044
11163TIP3    H254905   2.096   6.974  15.995 -0.4427 -0.7944  1.7304
11164TIP3   OH254906   7.144   3.312   1.133  0.1709  0.4869  0.5536
11164TIP3    H154907   7.114   3.402   1.117 -0.1294  0.4390  0.8302
11164TIP3    H254908   7.065   3.265   1.160  0.4450  0.2984  1.0452
11165TIP3   OH254909   5.911   4.494   1.702 -0.0598  0.4181 -0.0164
11165TIP3    H154910   5.851   4.436   1.749  1.0793 -0.3908  0.4534
11165TIP3    H254911   5.854   4.563   1.667 -0.9679  0.9979  2.4408
11166TIP3   OH254912   6.874   2.875   0.468 -0.3347 -0.3521 -0.3150
11166TIP3    H154913   6.887   2.827   0.386 -0.1738 -2.8217  1.1114
11166TIP3    H254914   6.782   2.901   0.467 -0.6051 -1.3056 -0.8016
11167TIP3   OH254915   6.354   3.175   0.105 -0.0329  0.0323  0.3141
11167TIP3    H154916   6.410   3.209   0.175 -0.7122  0.3064  0.7299
11167TIP3    H254917   6.412   3.122   0.051  0.6279  0.3175  0.7432
11168TIP3   OH254918   0.119   2.931   1.305 -0.1940 -0.1117 -0.2867
11168TIP3    H154919   0.066   2.943   1.383 -1.5799  0.8168 -1.3361
11168TIP3    H254920   0.208   2.955   1.332 -0.3780 -1.2389  1.3747
11169TIP3   OH254921   5.470   4.435   0.949  0.1862  0.0789 -0.0357
11169TIP3    H154922   5.402   4.496   0.977  0.4880 -0.0288  0.9521
11169TIP3    H254923   5.467   4.364   1.013  2.8664  1.2601  1.5042
11170TIP3   OH254924   2.561   6.190  15.978 -0.0619 -0.0980  0.6477
11170TIP3    H154925   2.652   6.200  15.952 -0.7249  0.6189 -1.4969
11170TIP3    H254926   2.534   6.278  16.006  0.1223 -0.4834  2.1034
11171TIP3   OH254927   6.165   4.137   1.467  0.0377 -0.2364 -0.4557
11171TIP3    H154928   6.091   4.186   1.503 -0.3014 -1.1023  0.0657
11171TIP3    H254929   6.208   4.198   1.408 -1.1667  0.2455 -0.8529
11172TIP3   OH254930   1.061   3.827   0.299 -0.3936 -0.0082 -0.0358
11172TIP3    H154931   1.108   3.909   0.313  0.6824 -0.4971 -0.7583
11172TIP3    H254932   0.972   3.845   0.332  0.4639  0.7063  1.9620
11173TIP3   OH254933   0.606   5.520   2.956  0.1383  0.3052  0.5005
11173TIP3    H154934   0.577   5.477   3.036 -1.3097  0.8416  0.2825
11173TIP3    H254935   0.661   5.456   2.911 -1.4023 -1.0365  0.5229
11174TIP3   OH254936   0.110   0.847  14.929 -0.3562  0.1329  0.0112
11174TIP3    H154937   0.030   0.868  14.881  0.3805  1.1695 -0.7710
11174TIP3    H254938   0.079   0.830  15.019 -1.3519  1.4545 -0.0563
11175TIP3   OH254939   4.080   2.856   2.915 -0.1903 -0.4931 -0.2896
11175TIP3    H154940   4.135   2.778   2.930  0.5754  0.1940  0.5160
11175TIP3    H254941   4.143   2.928   2.911 -0.9779  0.2003 -0.1311
11176TIP3   OH254942   3.024   1.413  15.403 -0.4483 -0.1933 -1.0389
11176TIP3    H154943   3.091   1.358  15.443 -0.9774 -0.5293 -0.6218
11176TIP3    H254944   3.022   1.387  15.311 -0.2937 -0.4653 -0.9625
11177TIP3   OH254945   4.713   0.829   3.502  0.2561 -0.1899  0.3830
11177TIP3    H154946   4.806   0.812   3.519  0.4158 -1.7764 -1.9074
11177TIP3    H254947   4.672   0.828   3.589  2.2716  0.0117  1.3724
11178TIP3   OH254948   0.391   5.037   2.745  0.3335  0.3311 -0.2717
11178TIP3    H154949   0.395   5.132   2.755 -1.9695  0.4634 -0.3526
11178TIP3    H254950   0.305   5.013   2.779  0.4704 -1.5953 -1.2374
11179TIP3   OH254951   5.977   1.671   0.670 -0.1990 -1.1646  0.0043
11179TIP3    H154952   6.066   1.638   0.674  0.1317 -0.4407 -1.2357
11179TIP3    H254953   5.960   1.684   0.577 -1.3767 -0.7024  0.2738
11180TIP3   OH254954   1.783   2.180   0.884 -0.2711 -0.4843  0.8836
11180TIP3    H154955   1.783   2.246   0.815 -0.9498 -1.4754 -0.0847
11180TIP3    H254956   1.874   2.175   0.913  0.4979 -1.7952 -1.6584
11181TIP3   OH254957   6.367   4.367  15.896 -0.0526 -0.1728 -0.2312
11181TIP3    H154958   6.370   4.273  15.915  0.4027  0.1467  1.4012
11181TIP3    H254959   6.275   4.386  15.882 -0.2687 -0.6908  0.4307
11182TIP3   OH254960   0.778   4.961   0.837 -0.3638  0.3569  0.1407
11182TIP3    H154961   0.775   4.946   0.932 -3.1230  4.2340  0.7614
11182TIP3    H254962   0.711   4.902   0.801  0.6824 -1.1135  0.5530
11183TIP3   OH254963   0.234   3.557  15.946  0.2993 -0.1558 -0.2222
11183TIP3    H154964   0.180   3.573  15.869 -0.7426 -0.5548  0.4068
11183TIP3    H254965   0.171   3.543  16.017  1.2333 -0.4515  0.5647
11184TIP3   OH254966   6.629   1.662   5.477 -0.3140  0.2194  0.2393
11184TIP3    H154967   6.670   1.664   5.564  0.5811 -0.2219 -0.1711
11184TIP3    H254968   6.700   1.638   5.418 -1.1523 -0.4653 -0.4886
11185TIP3   OH254969   0.602   3.397  15.818  0.7677 -0.8376  0.1894
11185TIP3    H154970   0.683   3.431  15.855  1.2668 -2.9033  1.0532
11185TIP3    H254971   0.548   3.375  15.893 -0.3087 -0.1989 -0.3764
11186TIP3   OH254972   4.712   4.001  13.953  0.3631 -0.4085 -0.4660
11186TIP3    H154973   4.690   4.085  13.912  1.1096  0.4124  0.7836
11186TIP3    H254974   4.745   4.024  14.040 -0.2579 -2.0639  0.2317
11187TIP3   OH254975   5.196   1.275   0.187  0.0358 -0.4882  0.4036
11187TIP3    H154976   5.273   1.293   0.241  0.3655 -0.0502 -0.2022
11187TIP3    H254977   5.129   1.335   0.220 -0.1166 -1.0065  1.0612
11188TIP3   OH254978   0.401   2.887   0.827 -0.0568  0.3211  0.1115
11188TIP3    H154979   0.366   2.799   0.816 -0.0463  0.4069 -0.6273
11188TIP3    H254980   0.333   2.934   0.875  0.4963 -0.4460  1.6860
11189TIP3   OH254981   3.586   5.994   2.748  0.4000 -0.4252 -0.4108
11189TIP3    H154982   3.606   5.980   2.655  0.3119 -0.4561 -0.4254
11189TIP3    H254983   3.631   6.075   2.771 -0.4191  0.1287 -0.7385
11190TIP3   OH254984   4.136   2.189   1.766  0.2238  0.6947  0.1016
11190TIP3    H154985   4.147   2.215   1.675  0.2057 -0.2131 -0.1607
11190TIP3    H254986   4.065   2.125   1.765 -0.0512  0.9767  0.8089
11191TIP3   OH254987   1.078   3.163  15.196 -0.0300  0.2309 -0.3703
11191TIP3    H154988   0.993   3.201  15.175 -0.0132 -0.5699 -1.9436
11191TIP3    H254989   1.135   3.238  15.213 -1.3095  0.7533  1.8311
11192TIP3   OH254990   3.452   4.011  13.119  0.4310 -0.1707 -0.4433
11192TIP3    H154991   3.440   4.042  13.029  0.2425 -0.2909 -0.4601
11192TIP3    H254992   3.372   3.962  13.138 -1.0366  2.5916  0.9413
11193TIP3   OH254993   6.276   2.763  15.861 -0.0871  0.2586  0.7164
11193TIP3    H154994   6.329   2.756  15.782  0.7858 -0.3550  1.3459
11193TIP3    H254995   6.198   2.711  15.843  0.2537 -0.1310  0.3662
11194TIP3   OH254996   0.753   5.440   1.279 -0.1708 -0.0082 -0.1259
11194TIP3    H154997   0.834   5.490   1.269 -1.0808  1.4253 -0.4960
11194TIP3    H254998   0.779   5.361   1.326  1.4846  0.3139 -0.4839
11195TIP3   OH254999   6.194   2.009   1.799  0.0167  0.5880  0.3458
11195TIP3    H155000   6.185   1.935   1.739 -3.6449  0.6478  0.7374
11195TIP3    H255001   6.230   1.971   1.879  0.7826 -0.2675 -0.3984
11196TIP3   OH255002   5.731   7.283  14.943 -0.2088  0.2253  0.4383
11196TIP3    H155003   5.750   7.328  14.860  1.9431  0.2627  0.9279
11196TIP3    H255004   5.661   7.335  14.982 -1.3368  0.1471 -1.3967
11197TIP3   OH255005   3.633   4.386  15.514 -0.1237 -0.5241 -0.4174
11197TIP3    H155006   3.605   4.335  15.590  0.5093 -0.4128 -0.1055
11197TIP3    H255007   3.677   4.463  15.551 -0.4225 -0.1188 -0.8937
11198TIP3   OH255008   2.248   2.580  15.122  0.1869 -0.6492  0.0083
11198TIP3    H155009   2.157   2.560  15.102 -0.2094  1.1212 -0.0330
11198TIP3    H255010   2.293   2.576  15.038 -0.3800  1.1031 -0.4020
11199TIP3   OH255011   6.118   1.932   0.084  0.6225 -0.1620 -0.1904
11199TIP3    H155012   6.120   1.851   0.034  1.2273  0.6931 -1.5935
11199TIP3    H255013   6.067   1.992   0.029  0.8794  0.6448  0.4457
11200TIP3   OH255014   1.353   4.854   3.625  0.4336 -0.5770 -0.2107
11200TIP3    H155015   1.313   4.874   3.540 -0.6884  0.4500  0.5550
11200TIP3    H255016   1.330   4.762   3.641  0.6214 -0.7691 -0.9896
11201TIP3   OH255017   1.856   2.437   2.001 -0.4877  0.1755 -0.3604
11201TIP3    H155018   1.820   2.517   2.041 -1.2118  0.1469 -0.9458
11201TIP3    H255019   1.834   2.367   2.062  0.0282  0.3947  0.0877
11202TIP3   OH255020   6.430   2.621   4.685  0.1889  0.0621  0.2610
11202TIP3    H155021   6.381   2.554   4.639  0.0700 -0.5507  1.2698
11202TIP3    H255022   6.371   2.696   4.689 -0.6672 -0.6478  1.4023
11203TIP3   OH255023   6.419   1.583  15.392  0.2689 -0.7159  0.4609
11203TIP3    H155024   6.400   1.603  15.301 -2.3201 -0.3437  1.0310
11203TIP3    H255025   6.514   1.594  15.401  0.5392 -0.7675 -2.1581
11204TIP3   OH255026   2.018   3.051   1.839  0.7384 -0.3221  0.0835
11204TIP3    H155027   1.970   3.110   1.782 -0.5680 -2.7916 -1.4468
11204TIP3    H255028   2.014   3.092   1.926  1.2300  2.5767 -1.2160
11205TIP3   OH255029   6.893   5.131   1.533 -0.1177  0.4074 -0.0016
11205TIP3    H155030   6.942   5.122   1.615  1.1511 -0.3690 -0.8183
11205TIP3    H255031   6.801   5.127   1.559  0.2712 -0.0561  1.3543
11206TIP3   OH255032   2.123   7.040   2.328 -0.9251  0.0889  0.5248
11206TIP3    H155033   2.211   7.019   2.359 -0.1116  1.1159 -1.0223
11206TIP3    H255034   2.070   6.963   2.352  0.4385 -0.6307  1.2670
11207TIP3   OH255035   0.629   3.509   0.931  0.3446  0.0364  0.3650
11207TIP3    H155036   0.551   3.549   0.968 -0.0245 -0.7607  0.4582
11207TIP3    H255037   0.620   3.520   0.836  0.4178  0.4758  0.4065
11208TIP3   OH255038   2.584   4.755   0.385  0.1586 -0.2535  0.0228
11208TIP3    H155039   2.677   4.779   0.384 -0.2370  1.7469  3.6972
11208TIP3    H255040   2.572   4.707   0.466 -2.0807 -0.2930 -0.2833
11209TIP3   OH255041   6.983   2.104   0.809  0.1439  0.0140 -0.1500
11209TIP3    H155042   6.894   2.073   0.827  0.7268 -0.9211  1.2344
11209TIP3    H255043   7.027   2.028   0.769  0.6870  0.0400  0.3869
11210TIP3   OH255044   1.258   1.790   2.693 -0.2898 -0.9612  0.2425
11210TIP3    H155045   1.185   1.735   2.722 -1.7956 -0.2373 -1.9827
11210TIP3    H255046   1.275   1.848   2.768 -0.8904 -2.2552  1.3976
11211TIP3   OH255047   7.285   2.686   0.972  0.2974 -0.2362 -0.0499
11211TIP3    H155048   7.264   2.679   0.879  1.2669 -3.7400 -0.0835
11211TIP3    H255049   7.265   2.777   0.995 -1.1694  0.3363 -3.3633
11212TIP3   OH255050   1.064   2.583  15.428 -0.3211 -0.3847  0.2196
11212TIP3    H155051   1.022   2.520  15.369  0.9351 -1.7435  0.7517
11212TIP3    H255052   1.003   2.593  15.500 -2.1932  1.8061 -1.5772
11213TIP3   OH255053   0.563   5.588   0.022  0.4970 -0.1024  0.2478
11213TIP3    H155054   0.615   5.513  -0.005  2.4692  1.3287 -0.0191
11213TIP3    H255055   0.561   5.645  -0.055  0.5164  0.9262  0.9954
11214TIP3   OH255056   6.641   2.276   1.451  0.0375  0.1472  0.6392
11214TIP3    H155057   6.566   2.310   1.499 -0.9810 -0.3568 -0.5629
11214TIP3    H255058   6.603   2.222   1.382  1.5526 -2.1129  1.4853
11215TIP3   OH255059   2.980   1.027   1.370 -0.0016  0.1994  0.4517
11215TIP3    H155060   2.903   0.984   1.331  1.2544 -2.7190  1.0960
11215TIP3    H255061   2.971   1.011   1.464  2.0078 -1.2347  0.4185
11216TIP3   OH255062   5.144   4.183   1.540  0.0230  0.1164 -0.2031
11216TIP3    H155063   5.050   4.183   1.559  0.0162  1.9191 -0.1022
11216TIP3    H255064   5.184   4.217   1.621  0.7923 -1.0057 -0.1080
11217TIP3   OH255065   3.451   4.068   3.959 -0.3940 -0.6708 -0.3505
11217TIP3    H155066   3.373   4.104   3.917 -0.4816 -1.0045 -0.4695
11217TIP3    H255067   3.468   4.128   4.032 -0.3671 -0.2100 -0.7272
11218TIP3   OH255068   7.083   2.419  14.510  0.1425 -0.6362 -0.3547
11218TIP3    H155069   7.143   2.481  14.553 -1.6910  0.3500  0.8570
11218TIP3    H255070   7.115   2.333  14.538 -0.0835 -0.0630  1.8227
11219TIP3   OH255071   3.237   3.042   1.514 -0.6436 -0.3029  0.4783
11219TIP3    H155072   3.229   2.950   1.489 -2.8817  0.2126 -0.9101
11219TIP3    H255073   3.159   3.059   1.568 -0.6354  0.9316  0.1272
11220TIP3   OH255074   4.626   4.844   1.925 -0.3881  0.2659 -0.2840
11220TIP3    H155075   4.671   4.785   1.986  0.4698 -0.3967 -1.5471
11220TIP3    H255076   4.591   4.913   1.981  2.0887  0.7375  0.7547
11221TIP3   OH255077   7.202   0.711   2.419 -0.1500  0.1379  0.0536
11221TIP3    H155078   7.155   0.720   2.337 -0.7690 -2.9888  0.0002
11221TIP3    H255079   7.161   0.775   2.478 -3.2333 -1.1746 -0.5593
11222TIP3   OH255080   4.640   5.784  15.053 -0.3130 -0.0574 -0.2948
11222TIP3    H155081   4.654   5.789  14.959 -0.6218 -0.3676 -0.3610
11222TIP3    H255082   4.720   5.819  15.092 -0.8382  1.6259 -0.6798
11223TIP3   OH255083   3.633   6.635  14.691  0.3336 -0.3018  0.1929
11223TIP3    H155084   3.685   6.679  14.624  0.5221  0.4114  0.8051
11223TIP3    H255085   3.542   6.656  14.669  0.5058  3.0862  2.2774
11224TIP3   OH255086   5.577   1.224   4.939 -0.2241  0.4879 -0.8280
11224TIP3    H155087   5.521   1.266   4.874 -0.8891  1.5738  0.4305
11224TIP3    H255088   5.535   1.244   5.023  1.6293  0.6591  0.0694
11225TIP3   OH255089   6.774   6.314  15.008  0.2137 -0.3588 -0.5678
11225TIP3    H155090   6.724   6.242  14.967 -0.4000 -0.0679 -0.3394
11225TIP3    H255091   6.731   6.327  15.092  0.9836 -0.4190 -0.1668
11226TIP3   OH255092   7.266   6.193  14.974 -0.6257 -0.4155  0.2786
11226TIP3    H155093   7.196   6.185  14.909 -1.2368  0.4815  0.8196
11226TIP3    H255094   7.244   6.129  15.041  0.4832 -1.9700 -0.8225
11227TIP3   OH255095   0.492   4.569   1.980 -0.1075  0.0302  0.5869
11227TIP3    H155096   0.505   4.508   1.908 -0.2074  0.0097  0.5859
11227TIP3    H255097   0.511   4.518   2.059  2.2265  0.6553  0.4712
11228TIP3   OH255098   5.369   1.769   1.819  0.2553  0.1599  0.1066
11228TIP3    H155099   5.453   1.815   1.825  1.6766 -2.1384 -1.5417
11228TIP3    H255100   5.345   1.752   1.910  0.2361  3.1418  0.7053
11229TIP3   OH255101   1.009   3.079   0.833 -0.2809  0.4907 -0.3566
11229TIP3    H155102   1.089   3.131   0.840  1.2980 -1.9735  0.6465
11229TIP3    H255103   1.008   3.025   0.912 -2.8797  0.3683 -0.4215
11230TIP3   OH255104   7.266   0.271   2.920 -0.3177  0.1729  0.4182
11230TIP3    H155105   7.216   0.344   2.955 -1.0886  0.9674 -2.2297
11230TIP3    H255106   7.355   0.306   2.908  0.0186 -0.1806  1.7342
11231TIP3   OH255107   3.539   1.556   1.514  0.2854 -0.0268  0.0595
11231TIP3    H155108   3.572   1.501   1.444  0.0743  0.4725 -0.4360
11231TIP3    H255109   3.518   1.639   1.472  1.0212  0.5862  0.8785
11232TIP3   OH255110   0.511   3.534  15.595 -0.2206 -0.3427  0.8281
11232TIP3    H155111   0.549   3.514  15.680  1.6384 -0.1489  0.0859
11232TIP3    H255112   0.514   3.452  15.547 -0.9063 -0.3658  0.8307
11233TIP3   OH255113   1.605   1.512   2.070 -0.3930  0.4982 -0.2556
11233TIP3    H155114   1.629   1.509   2.163 -2.0254  1.3729  0.2217
11233TIP3    H255115   1.509   1.511   2.071 -0.4470  1.8987 -1.8629
11234TIP3   OH255116   7.025   0.982  15.787  0.2278 -0.6208  0.2883
11234TIP3    H155117   6.944   1.031  15.778  0.5215 -0.3940 -1.2733
11234TIP3    H255118   7.018   0.939  15.872 -0.9326  0.4705  0.7573
11235TIP3   OH255119   4.044   1.430   0.542 -0.3077 -0.1679 -0.3677
11235TIP3    H155120   4.003   1.430   0.455  1.4015 -1.7656 -1.2106
11235TIP3    H255121   4.100   1.507   0.543  0.1307 -0.4847 -0.8990
11236TIP3   OH255122   5.848   1.178  14.337 -0.1839  0.3836  0.2063
11236TIP3    H155123   5.753   1.164  14.343 -0.1505  0.5465  1.1492
11236TIP3    H255124   5.856   1.262  14.292 -0.4977  0.7117  0.7607
11237TIP3   OH255125   4.537   1.121  15.958 -0.2494 -0.3648 -0.7133
11237TIP3    H155126   4.623   1.163  15.947  0.4542 -1.4527  0.5173
11237TIP3    H255127   4.529   1.106  16.052 -0.9300 -2.0708 -1.0273
11238TIP3   OH255128   0.875   1.646   3.263 -0.6033 -0.2344 -0.1954
11238TIP3    H155129   0.908   1.585   3.329  0.0092 -0.0123 -0.2881
11238TIP3    H255130   0.918   1.619   3.181  1.1580  1.4574  0.1138
11239TIP3   OH255131   1.296   6.193  13.380  0.3231 -0.6639  0.0124
11239TIP3    H155132   1.216   6.209  13.329  0.7572 -2.1813 -1.1781
11239TIP3    H255133   1.299   6.098  13.390  2.4032 -0.7011 -0.6825
11240TIP3   OH255134   4.386   0.917  15.219 -0.0594 -0.3614 -0.4039
11240TIP3    H155135   4.473   0.891  15.250 -1.3063 -1.8940  2.0174
11240TIP3    H255136   4.375   0.870  15.137  1.2517 -0.4658 -0.5300
11241TIP3   OH255137   3.806   6.185   1.815 -0.3554  0.0811 -0.3192
11241TIP3    H155138   3.844   6.125   1.879 -1.7042 -0.9860 -0.4769
11241TIP3    H255139   3.831   6.272   1.844  0.1805 -0.4736  0.8990
11242TIP3   OH255140   2.121   4.798   2.733 -0.4946 -0.7981 -0.6710
11242TIP3    H155141   2.044   4.819   2.681  0.9049  0.8291 -2.1248
11242TIP3    H255142   2.099   4.828   2.821 -0.9191  1.1744 -1.4153
11243TIP3   OH255143   2.174   4.662   1.586  0.4663 -0.9284  0.4468
11243TIP3    H155144   2.110   4.717   1.539 -0.5253  0.5292  3.3687
11243TIP3    H255145   2.258   4.685   1.546 -0.2657  0.7904 -0.1811
11244TIP3   OH255146   1.049   5.704   0.480 -0.2236 -0.8748  0.4797
11244TIP3    H155147   1.128   5.743   0.443  0.4665 -2.5141  0.2051
11244TIP3    H255148   0.978   5.760   0.448  0.4354 -1.7442 -2.6566
11245TIP3   OH255149   2.150   4.109   2.570 -0.0802 -0.6284 -0.1527
11245TIP3    H155150   2.157   4.168   2.495 -0.4898 -0.5778 -0.1505
11245TIP3    H255151   2.231   4.123   2.619  0.7731 -1.5719 -1.2583
11246TIP3   OH255152   1.530   1.779  14.710  0.0881  0.4749  0.3569
11246TIP3    H155153   1.463   1.718  14.741  0.5730  0.4853  1.4614
11246TIP3    H255154   1.527   1.772  14.615 -1.6605  0.6745  0.3766
11247TIP3   OH255155   3.826   4.116  13.073  0.1421 -0.1342 -0.8738
11247TIP3    H155156   3.762   4.166  13.124  0.6226 -0.6357  0.2340
11247TIP3    H255157   3.908   4.165  13.082  0.2905 -0.3731 -0.9166
11248TIP3   OH255158   2.675   3.710   3.834 -0.3486  0.1680  0.3484
11248TIP3    H155159   2.615   3.735   3.764  0.5971  0.3236 -0.4152
11248TIP3    H255160   2.627   3.730   3.915 -1.4662 -0.0631 -0.2398
11249TIP3   OH255161   1.795   4.149  13.665  0.3679  0.2048 -0.2500
11249TIP3    H155162   1.728   4.080  13.667  0.1983  0.3917  0.5826
11249TIP3    H255163   1.876   4.103  13.644 -0.1865  0.1189 -2.3801
11250TIP3   OH255164   3.947   4.881  14.178 -0.4333  0.2858  0.9883
11250TIP3    H155165   3.875   4.943  14.187 -1.1082 -0.0209 -1.8937
11250TIP3    H255166   3.907   4.803  14.138  1.0205 -0.8193  1.6216
11251TIP3   OH255167   6.671   0.261   3.024  0.4620 -0.0366  0.7745
11251TIP3    H155168   6.754   0.218   3.002  0.8859  1.4138 -0.4702
11251TIP3    H255169   6.661   0.331   2.960 -0.9977  0.7669  1.8314
11252TIP3   OH255170   3.781   2.055   1.944  0.6938 -0.2715 -0.4566
11252TIP3    H155171   3.853   1.992   1.936 -0.9597 -2.0091 -1.8747
11252TIP3    H255172   3.791   2.113   1.868  0.5200 -0.5983 -0.7295
11253TIP3   OH255173   2.441   2.349   4.736  0.0868 -0.5875 -0.0723
11253TIP3    H155174   2.456   2.276   4.796  0.9757  0.4277  0.9610
11253TIP3    H255175   2.528   2.380   4.712 -0.2480  1.2150  0.8730
11254TIP3   OH255176   0.900   2.581  14.355  0.0103  0.5141 -0.1613
11254TIP3    H155177   0.861   2.619  14.434 -0.8001 -1.2749  0.3286
11254TIP3    H255178   0.981   2.541  14.386  0.8913  1.8693 -0.6860
11255TIP3   OH255179   2.352   6.555   0.527  0.1176  0.4399 -0.4053
11255TIP3    H155180   2.442   6.589   0.534  0.6115 -0.4540 -1.9898
11255TIP3    H255181   2.332   6.521   0.614  2.4115 -1.9291 -0.7406
11256TIP3   OH255182   4.924   3.576  15.243  0.2171  0.6487 -0.0257
11256TIP3    H155183   4.960   3.646  15.297 -0.2569  0.6064  0.3401
11256TIP3    H255184   5.000   3.523  15.219  0.6859  1.6649 -0.8744
11257TIP3   OH255185   6.528   3.752  15.888 -0.0618  0.0950 -0.2235
11257TIP3    H155186   6.544   3.658  15.880  0.2015  0.0750  0.5210
11257TIP3    H255187   6.551   3.787  15.802  0.5447 -0.4241 -0.2828
11258TIP3   OH255188   4.986   1.766   1.928 -0.5909 -0.2289 -0.2568
11258TIP3    H155189   4.976   1.851   1.886  0.4858 -0.0107 -0.0916
11258TIP3    H255190   4.978   1.703   1.856  1.5031  0.1566 -0.8564
11259TIP3   OH255191   1.615   5.362   2.705 -0.5021  0.1507 -0.7605
11259TIP3    H155192   1.599   5.449   2.740 -0.5816 -0.7515  1.5171
11259TIP3    H255193   1.542   5.309   2.737  0.2634 -1.0651 -0.9658
11260TIP3   OH255194   1.786   2.104   1.381 -0.0115  0.1813  0.4412
11260TIP3    H155195   1.730   2.107   1.303  0.6071  0.3437 -0.0006
11260TIP3    H255196   1.814   2.195   1.394 -0.5374  0.2431  1.1673
11261TIP3   OH255197   6.036   4.518   2.080 -0.3215 -0.0017 -0.0220
11261TIP3    H155198   6.032   4.424   2.065 -1.5536  0.1460 -0.6940
11261TIP3    H255199   5.997   4.530   2.168  1.6327 -0.3004  0.8986
11262TIP3   OH255200   1.992   4.338   3.669 -0.7402 -0.3925  0.4208
11262TIP3    H155201   1.972   4.249   3.697 -1.4813 -0.2874  0.2326
11262TIP3    H255202   2.087   4.340   3.662 -0.7306 -1.2112  0.2807
11263TIP3   OH255203   2.327   2.201   3.913  0.0734  0.2776  0.4045
11263TIP3    H155204   2.354   2.293   3.917 -0.0994  0.3393  0.1724
11263TIP3    H255205   2.401   2.152   3.949 -0.3752  0.6106  1.8200
11264TIP3   OH255206   1.008   3.296   1.460  1.0140 -0.4603  0.0032
11264TIP3    H155207   0.944   3.245   1.409  0.4560  0.7056 -0.4717
11264TIP3    H255208   0.973   3.294   1.550  1.4826 -1.6873  0.1665
11265TIP3   OH255209   2.449   4.868   3.429  0.0421  0.0616  0.0533
11265TIP3    H155210   2.459   4.831   3.517  0.5559  2.8992  1.2297
11265TIP3    H255211   2.359   4.902   3.428  0.4684  1.2153 -0.0229
11266TIP3   OH255212   2.795   1.732   2.226 -0.3508  0.1865 -0.3275
11266TIP3    H155213   2.736   1.806   2.241 -1.4582 -0.7588  0.0485
11266TIP3    H255214   2.861   1.740   2.295  0.1198  1.3899 -0.9000
11267TIP3   OH255215   4.024   3.279   3.386  0.0017 -0.0399 -1.0344
11267TIP3    H155216   4.007   3.221   3.313  1.8238 -0.7808 -0.8942
11267TIP3    H255217   4.089   3.341   3.353  0.1473  0.1984 -0.3215
11268TIP3   OH255218   2.328   4.170   5.798 -0.3870  0.1684  0.3277
11268TIP3    H155219   2.354   4.147   5.708 -0.7205  1.6387 -0.1652
11268TIP3    H255220   2.411   4.188   5.842 -0.2465 -0.1431  0.1917
11269TIP3   OH255221   2.841   4.654   0.723 -0.1584  0.4865 -0.2126
11269TIP3    H155222   2.836   4.672   0.817  0.4930 -1.7632  0.2947
11269TIP3    H255223   2.924   4.692   0.695 -0.1627  0.8080  0.2087
11270TIP3   OH255224   4.048   6.033   0.290 -0.0144 -0.3003 -0.1230
11270TIP3    H155225   4.002   6.044   0.207 -0.4098  3.0409  0.4829
11270TIP3    H255226   4.123   6.092   0.284  0.6943 -1.0189  1.3879
11271TIP3   OH255227   3.002   4.660   2.370  0.0465  0.3123 -0.0806
11271TIP3    H155228   3.011   4.731   2.433  1.0195 -0.2221  0.3837
11271TIP3    H255229   2.910   4.664   2.343 -0.5638  0.1014  1.8895
11272TIP3   OH255230   5.525   6.329   0.776 -0.2583 -0.2798  0.1658
11272TIP3    H155231   5.516   6.406   0.832 -0.3910  0.0806 -0.3429
11272TIP3    H255232   5.435   6.296   0.767 -0.1864 -0.5671  0.4802
11273TIP3   OH255233   5.571   1.845  13.870 -0.5224  0.4447  0.1670
11273TIP3    H155234   5.563   1.797  13.788  0.4735  1.0198 -0.2798
11273TIP3    H255235   5.639   1.911  13.852 -2.7922  2.9086  0.3230
11274TIP3   OH255236   2.628   2.484   0.438 -0.0892  0.2138 -0.7183
11274TIP3    H155237   2.676   2.474   0.520  0.8870 -0.3659 -1.3450
11274TIP3    H255238   2.651   2.572   0.408  0.1584  0.1388 -0.7503
11275TIP3   OH255239   3.344   4.951   1.109  0.0436  0.2598  0.2832
11275TIP3    H155240   3.420   5.008   1.100  0.9024 -0.9117  0.0062
11275TIP3    H255241   3.338   4.933   1.203  1.4966 -1.5019  0.0482
11276TIP3   OH255242   4.734   2.017   2.061  0.2891  0.4262 -0.0480
11276TIP3    H155243   4.770   2.064   1.985 -0.3015  2.4058  0.8522
11276TIP3    H255244   4.678   1.949   2.023  0.9523  0.6130 -1.4009
11277TIP3   OH255245   4.669   1.704   5.672  0.3346  0.1601  0.5606
11277TIP3    H155246   4.593   1.669   5.718 -0.3992 -0.7829 -1.3154
11277TIP3    H255247   4.743   1.687   5.730 -0.5124 -1.3832  1.1955
11278TIP3   OH255248   2.651   2.281   2.150 -0.2642  0.7512  0.0297
11278TIP3    H155249   2.743   2.287   2.124 -0.8382  1.1695 -2.0267
11278TIP3    H255250   2.613   2.218   2.089 -1.3047  0.4413  0.9868
11279TIP3   OH255251   4.211   1.434   2.747 -0.1663 -0.7819 -0.1529
11279TIP3    H155252   4.252   1.382   2.678  0.3643 -0.2108 -0.2689
11279TIP3    H255253   4.125   1.394   2.758  0.4884 -2.1309  0.2408
11280TIP3   OH255254   3.650   5.218  15.127  0.2318  0.3553  0.0835
11280TIP3    H155255   3.654   5.291  15.188 -1.8405 -0.2302  0.9713
11280TIP3    H255256   3.686   5.144  15.176 -0.7812  0.0453  0.3785
11281TIP3   OH255257   1.534   4.831   0.513 -0.3672  0.7297 -0.1051
11281TIP3    H155258   1.498   4.845   0.425 -0.9795 -0.2336 -0.0131
11281TIP3    H255259   1.472   4.772   0.555  1.2964 -0.9580  0.0568
11282TIP3   OH255260   6.528   1.212   3.392  0.2381 -0.7336 -0.6930
11282TIP3    H155261   6.512   1.257   3.474  1.2481 -0.9859 -0.3466
11282TIP3    H255262   6.513   1.278   3.324  0.5937 -0.1935 -0.2455
11283TIP3   OH255263   6.708   4.400   3.574  0.2660  0.4191 -0.1995
11283TIP3    H155264   6.733   4.460   3.645  1.7425 -0.5398  0.1217
11283TIP3    H255265   6.693   4.457   3.499  0.9179  1.2602  0.2991
11284TIP3   OH255266   4.328   2.649   3.295 -0.7806  0.5870 -0.3199
11284TIP3    H155267   4.285   2.656   3.211  0.3277  0.0964 -0.9469
11284TIP3    H255268   4.422   2.648   3.274 -0.4839 -4.8403  0.4025
11285TIP3   OH255269   2.983   1.135   2.287 -1.0761  0.7187  0.3878
11285TIP3    H155270   2.901   1.087   2.299 -0.5511 -0.1224  0.7198
11285TIP3    H255271   3.000   1.132   2.193 -0.3068 -1.0440  0.5545
11286TIP3   OH255272   6.253   3.135   1.553 -0.1567  0.0082 -0.4381
11286TIP3    H155273   6.343   3.105   1.560 -0.4039 -0.6929 -0.2845
11286TIP3    H255274   6.256   3.205   1.487  0.1928 -1.2433 -1.7796
11287TIP3   OH255275   3.578   6.216   1.636 -0.0234  0.3806  0.1980
11287TIP3    H155276   3.644   6.190   1.701 -0.4792 -1.4663 -0.0687
11287TIP3    H255277   3.527   6.137   1.620 -2.6374  1.9239  0.7546
11288TIP3   OH255278   2.433   4.062  11.202 -0.2065  0.2495 -0.3289
11288TIP3    H155279   2.374   3.995  11.237 -0.8224  0.6958 -0.5026
11288TIP3    H255280   2.383   4.103  11.132 -0.1015  1.3824  0.2561
11289TIP3   OH255281   3.272   2.115  13.919  0.1357  0.2934  0.0709
11289TIP3    H155282   3.329   2.183  13.953 -1.3009  1.6065 -0.0745
11289TIP3    H255283   3.330   2.041  13.901  1.8233  1.7333 -0.4851
11290TIP3   OH255284   0.615   2.469  11.481  0.6648 -0.2202 -1.0167
11290TIP3    H155285   0.568   2.506  11.555  1.3270 -0.0808 -0.6629
11290TIP3    H255286   0.551   2.413  11.437  0.5464 -1.0504  0.2056
11291TIP3   OH255287   0.526   0.442  13.727 -0.5060  0.0688 -0.3655
11291TIP3    H155288   0.483   0.405  13.804  0.8840  0.3720  0.5707
11291TIP3    H255289   0.510   0.378  13.658 -0.7798 -0.7605  0.4603
11292TIP3   OH255290   0.522   2.468  12.624  0.3335 -0.0375  0.0442
11292TIP3    H155291   0.495   2.427  12.542 -1.3837  0.1489  0.4988
11292TIP3    H255292   0.541   2.559  12.601  0.6859 -0.1945 -0.2935
11293TIP3   OH255293   0.795   2.460  14.156 -1.3766  0.3843  0.4219
11293TIP3    H155294   0.763   2.370  14.166  0.8812 -0.6312 -0.9596
11293TIP3    H255295   0.840   2.478  14.239  2.3008 -1.5913 -1.0232
11294TIP3   OH255296   5.133   1.357   2.937 -0.3034  0.3473 -0.0888
11294TIP3    H155297   5.171   1.281   2.981  0.9927  1.6007  1.0500
11294TIP3    H255298   5.057   1.380   2.991 -1.9461 -1.3647 -1.6166
11295TIP3   OH255299   4.229   1.534   1.923 -0.0476 -0.7176 -0.2615
11295TIP3    H155300   4.313   1.521   1.967 -0.6838 -2.9668  0.3546
11295TIP3    H255301   4.190   1.609   1.969  1.1655 -0.2868  0.1081
11296TIP3   OH255302   0.058   7.236   3.074 -0.5719 -0.1349 -0.5967
11296TIP3    H155303   0.127   7.264   3.133  0.2134  0.6824 -1.8727
11296TIP3    H255304   0.099   7.169   3.019 -1.2053 -0.6828 -0.4026
11297TIP3   OH255305   1.425   3.775   1.951  0.4470  0.1807 -0.2957
11297TIP3    H155306   1.374   3.694   1.941  0.4949  0.2934 -1.5126
11297TIP3    H255307   1.507   3.758   1.905  1.5861 -0.0398  1.7560
11298TIP3   OH255308   3.869   4.151   4.618 -0.5139 -0.0636  0.2509
11298TIP3    H155309   3.891   4.061   4.643 -3.1940 -1.1068 -0.8232
11298TIP3    H255310   3.882   4.203   4.697  0.2639 -1.5564  1.1220
11299TIP3   OH255311   2.906   5.102  15.343 -0.3546  0.0398  1.1224
11299TIP3    H155312   2.973   5.153  15.298  0.4068 -1.0630  0.9664
11299TIP3    H255313   2.944   5.014  15.350 -1.3903 -0.3585  1.9027
11300TIP3   OH255314   3.526   2.821   3.983 -0.2999 -0.1058  0.0509
11300TIP3    H155315   3.562   2.785   4.064 -0.9653 -1.8408 -0.3896
11300TIP3    H255316   3.432   2.831   4.001 -0.3588  0.0274 -0.3167
11301TIP3   OH255317   1.049   3.214  14.493  0.1675  0.0680  0.1457
11301TIP3    H155318   1.110   3.287  14.483  1.1338 -0.8030 -0.4093
11301TIP3    H255319   1.005   3.207  14.408 -1.5124  1.3782  0.8715
11302TIP3   OH255320   0.467   2.248  15.204  0.5452 -0.0841  0.0738
11302TIP3    H155321   0.444   2.155  15.215 -1.1272  0.2883 -0.1616
11302TIP3    H255322   0.437   2.290  15.284  0.1007  0.4762 -0.3865
11303TIP3   OH255323   3.921   4.463   1.108 -0.1790 -0.0879  0.0737
11303TIP3    H155324   3.850   4.423   1.057  0.9995 -0.5092 -1.2728
11303TIP3    H255325   3.878   4.497   1.186 -2.1289  0.9624 -1.4026
11304TIP3   OH255326   1.562   4.175  14.764 -0.3017  0.5641  0.4324
11304TIP3    H155327   1.630   4.180  14.832  0.7624 -0.2621 -0.5353
11304TIP3    H255328   1.573   4.256  14.714  0.2232  0.2745  0.0659
11305TIP3   OH255329   5.432   3.679   0.678  0.4563 -0.3819 -0.3492
11305TIP3    H155330   5.433   3.599   0.625  0.7774 -0.1827 -0.6446
11305TIP3    H255331   5.395   3.652   0.762 -0.6629 -0.5599 -0.8949
11306TIP3   OH255332   2.364   2.393   3.400  0.1163  0.1056 -0.0931
11306TIP3    H155333   2.288   2.404   3.343  0.8099  0.2472 -0.9953
11306TIP3    H255334   2.327   2.384   3.488 -0.8191  3.0733 -0.1256
11307TIP3   OH255335   6.890   6.841  14.467  0.4822 -0.8792  0.5353
11307TIP3    H155336   6.936   6.757  14.464 -0.1156 -1.2065  0.4121
11307TIP3    H255337   6.959   6.906  14.479  1.2108 -1.1318 -1.9848
11308TIP3   OH255338   2.652   3.692   1.451  0.0690  0.4937 -0.1054
11308TIP3    H155339   2.559   3.710   1.443  0.3272  1.5876 -0.7274
11308TIP3    H255340   2.692   3.777   1.470  0.8827 -0.0491  0.6641
11309TIP3   OH255341   4.137   1.555   0.899  0.0899  0.0703 -0.4552
11309TIP3    H155342   4.073   1.614   0.860  1.1261  1.3485 -0.2620
11309TIP3    H255343   4.216   1.566   0.845  0.6582 -0.2176  0.3075
11310TIP3   OH255344   0.124   5.184  14.557  0.6283 -0.0059  0.1231
11310TIP3    H155345   0.155   5.204  14.469 -1.5111  0.9697 -0.4370
11310TIP3    H255346   0.043   5.135  14.545  0.1692  0.3577  1.5171
11311TIP3   OH255347   0.339   2.631  13.291  0.8007 -0.8722 -0.3620
11311TIP3    H155348   0.293   2.547  13.294  0.5525 -0.7184  0.2447
11311TIP3    H255349   0.426   2.609  13.258  0.2185 -1.1217 -1.7430
11312TIP3   OH255350   1.084   4.135   1.054 -0.7724 -0.5317 -0.6694
11312TIP3    H155351   1.054   4.080   1.127 -1.2470 -1.3215 -1.4362
11312TIP3    H255352   1.161   4.089   1.020  0.2104  0.5058  0.1165
11313TIP3   OH255353   2.850   4.544  13.529  0.1171 -0.0489 -0.0721
11313TIP3    H155354   2.839   4.517  13.620 -1.4434  0.5010 -0.0813
11313TIP3    H255355   2.841   4.463  13.479 -0.0199 -0.2081  0.2064
11314TIP3   OH255356   1.396   0.461   2.774 -0.3846 -0.0362 -0.0287
11314TIP3    H155357   1.396   0.365   2.778  0.9680 -0.0707 -0.6564
11314TIP3    H255358   1.366   0.481   2.685  1.0832  0.0899 -0.4950
11315TIP3   OH255359   1.286   0.981  15.788 -0.5354 -0.5881 -0.1529
11315TIP3    H155360   1.315   0.999  15.699  0.9930 -1.5814  0.1125
11315TIP3    H255361   1.287   1.066  15.831 -1.4423 -0.0775 -1.1198
11316TIP3   OH255362   6.495   3.241   0.343  0.3376 -0.1792 -0.2391
11316TIP3    H155363   6.542   3.239   0.426  0.4095  2.3386 -0.1726
11316TIP3    H255364   6.504   3.332   0.313  0.0053 -0.9628 -2.8146
11317TIP3   OH255365   1.815   1.941  15.983  0.0941  0.2538 -0.1049
11317TIP3    H155366   1.841   1.904  15.898 -3.2344 -0.2490 -0.9769
11317TIP3    H255367   1.870   1.896  16.047  0.8103 -1.3162 -1.7673
11318TIP3   OH255368   3.133   1.874   2.302 -0.1609 -0.0306 -0.1025
11318TIP3    H155369   3.168   1.963   2.298  0.9519 -0.5009 -1.4149
11318TIP3    H255370   3.162   1.834   2.220 -0.9160 -1.5056  0.3386
11319TIP3   OH255371   2.316   0.899  13.195  0.0401 -0.0595  0.3068
11319TIP3    H155372   2.333   0.806  13.177  1.2851  0.3385 -0.6119
11319TIP3    H255373   2.294   0.936  13.110 -0.7167  0.4419  0.7180
11320TIP3   OH255374   2.647   2.134  15.554 -0.5684  0.3131  0.3652
11320TIP3    H155375   2.666   2.226  15.533  2.3720 -0.1184  0.9466
11320TIP3    H255376   2.567   2.138  15.607 -1.4413  2.3704 -1.0190
11321TIP3   OH255377   2.428   2.867  15.828  0.5163 -0.6381  0.3371
11321TIP3    H155378   2.371   2.845  15.755  0.0693 -1.3775  0.8953
11321TIP3    H255379   2.429   2.963  15.830  2.3370 -0.5732 -2.0101
11322TIP3   OH255380   3.320   1.991   4.796  0.1045 -0.4492  0.4790
11322TIP3    H155381   3.399   2.014   4.846 -0.0525 -3.1068  2.0869
11322TIP3    H255382   3.311   1.896   4.809 -2.1130 -0.5522 -1.5215
11323TIP3   OH255383   4.554   2.846   3.912  0.3010  0.0124  0.0564
11323TIP3    H155384   4.480   2.786   3.923  2.5090 -2.8007  0.1481
11323TIP3    H255385   4.578   2.838   3.820  0.1148  1.3814 -0.1134
11324TIP3   OH255386   1.677   2.781  14.905 -0.4209 -0.0333  0.3343
11324TIP3    H155387   1.737   2.800  14.833  0.3257  0.3348  1.0555
11324TIP3    H255388   1.616   2.855  14.905 -0.1955  0.1528  0.3246
11325TIP3   OH255389   2.924   0.111  15.714  0.1105 -0.7725 -0.6905
11325TIP3    H155390   2.904   0.176  15.647 -0.2403 -0.6694 -0.4913
11325TIP3    H255391   3.006   0.071  15.686  1.4270  1.1946  0.2563
11326TIP3   OH255392   1.814   1.184   3.552 -0.8156  0.3141  0.1749
11326TIP3    H155393   1.812   1.217   3.463  0.7342  1.9915  0.7263
11326TIP3    H255394   1.860   1.252   3.602  0.4820 -1.6634  1.7761
11327TIP3   OH255395   2.328   3.659  14.548  0.1618 -0.1060 -0.2448
11327TIP3    H155396   2.370   3.573  14.541  0.5566  0.1680 -1.2232
11327TIP3    H255397   2.270   3.651  14.624  3.3254  0.0813  2.2755
11328TIP3   OH255398   3.887   4.765   0.005 -0.1090 -0.2572  0.3334
11328TIP3    H155399   3.836   4.794   0.080  1.7494  1.3705  1.0063
11328TIP3    H255400   3.826   4.770  -0.069 -1.1691  0.8437  1.2565
11329TIP3   OH255401   3.116   7.085  15.147 -0.1187 -0.3172  0.0735
11329TIP3    H155402   3.186   7.083  15.081  0.1092  1.2496  0.2488
11329TIP3    H255403   3.056   7.152  15.115 -0.1832  0.2106  1.2925
11330TIP3   OH255404   4.389   2.145   2.624 -0.3333  0.1081  0.7688
11330TIP3    H155405   4.477   2.132   2.589  0.0568  0.6685  1.5183
11330TIP3    H255406   4.392   2.232   2.664 -1.3583  0.3222  0.3976
11331TIP3   OH255407   3.295   5.770   4.328 -0.4153  0.4644 -0.6580
11331TIP3    H155408   3.210   5.790   4.289 -1.6925 -2.1002  0.7033
11331TIP3    H255409   3.306   5.837   4.396 -1.4396  0.6595 -0.6802
11332TIP3   OH255410   0.527   5.615  13.810  0.4638  0.0831 -0.0068
11332TIP3    H155411   0.617   5.581  13.814  0.3065 -0.3912 -0.3418
11332TIP3    H255412   0.537   5.709  13.796  0.9167  0.3220  1.8288
11333TIP3   OH255413   6.865   3.689   0.710 -0.0783 -0.1281 -0.4493
11333TIP3    H155414   6.816   3.611   0.734  0.6893 -0.4754  0.0140
11333TIP3    H255415   6.799   3.758   0.702 -0.4871 -0.2657  1.5220
11334TIP3   OH255416   2.459   0.595   1.635  0.4011  0.4523 -0.3709
11334TIP3    H155417   2.487   0.506   1.612  2.0431  1.1118 -0.9563
11334TIP3    H255418   2.487   0.606   1.726 -2.1352 -0.5353  0.6050
11335TIP3   OH255419   0.710   1.389  14.585  0.3846  0.5907  0.5188
11335TIP3    H155420   0.777   1.353  14.644  0.9108 -0.0706 -0.4686
11335TIP3    H255421   0.644   1.321  14.578  0.3932  0.6114  0.2279
11336TIP3   OH255422   2.849   6.269   2.436  0.1610  0.1704 -0.2451
11336TIP3    H155423   2.828   6.221   2.517 -0.5484  0.3692 -0.3016
11336TIP3    H255424   2.927   6.225   2.402  1.5389  1.2299  1.4757
11337TIP3   OH255425   1.189   2.431   1.294  0.2012 -0.0564  0.2084
11337TIP3    H155426   1.249   2.368   1.255 -0.2111 -1.0120  1.0873
11337TIP3    H255427   1.235   2.515   1.288  0.2789 -0.2286 -1.9922
11338TIP3   OH255428   1.566   4.147   3.437 -0.1372  0.2255  0.3069
11338TIP3    H155429   1.626   4.138   3.364  0.7894  1.7064  0.8612
11338TIP3    H255430   1.480   4.126   3.401  0.6187 -1.2900 -0.6410
11339TIP3   OH255431   3.749   4.892   1.105 -0.3141  0.7104  0.1012
11339TIP3    H155432   3.752   4.976   1.059  1.3529  1.0052  0.7179
11339TIP3    H255433   3.794   4.832   1.046  1.6281  1.0396  1.2062
11340TIP3   OH255434   4.587   3.104   2.038 -0.0214 -0.2618 -0.3554
11340TIP3    H155435   4.559   3.041   1.972  1.7416 -0.3982 -0.9933
11340TIP3    H255436   4.567   3.189   1.999  2.8863 -0.2613 -2.0150
11341TIP3   OH255437   5.210   0.147  12.215  0.6594 -0.2665  0.0151
11341TIP3    H155438   5.138   0.094  12.248  2.1668 -1.8105  0.9144
11341TIP3    H255439   5.183   0.237  12.230 -1.0335 -0.8352  0.4199
11342TIP3   OH255440   3.041   4.154  15.981 -1.0232 -0.0869 -0.0663
11342TIP3    H155441   3.003   4.071  15.954  0.0536 -0.1402 -1.4431
11342TIP3    H255442   3.122   4.131  16.026 -1.8224  0.1139  1.5278
11343TIP3   OH255443   3.839   3.080   1.379  0.1486 -0.0564 -0.2822
11343TIP3    H155444   3.920   3.032   1.367  0.1110  0.0733 -1.0764
11343TIP3    H255445   3.846   3.155   1.320 -1.3218 -1.0382 -1.7672
11344TIP3   OH255446   3.754   0.210   1.463 -0.3600 -0.4330 -0.5577
11344TIP3    H155447   3.751   0.302   1.437 -3.2020  0.3608  2.2606
11344TIP3    H255448   3.782   0.212   1.554  2.0047 -2.5860 -1.1986
11345TIP3   OH255449   6.757   5.064  14.216  0.1015  0.0989  0.2210
11345TIP3    H155450   6.726   5.078  14.127  0.6652  0.9717  0.1560
11345TIP3    H255451   6.753   4.969  14.228 -0.7765  0.0440 -0.4378
11346TIP3   OH255452   0.534   3.773   5.343 -0.0652 -0.4366  0.1122
11346TIP3    H155453   0.612   3.766   5.399  0.6039 -1.5514 -0.9466
11346TIP3    H255454   0.476   3.833   5.391  2.5099  2.5288 -0.3258
11347TIP3   OH255455   4.766   6.214   1.192  0.2061  0.3522  0.0644
11347TIP3    H155456   4.701   6.145   1.200  0.2654 -0.0496 -2.4729
11347TIP3    H255457   4.793   6.233   1.282 -1.9657 -0.8368  0.9920
11348TIP3   OH255458   3.743   1.077   2.103 -0.4358  0.8760  0.2734
11348TIP3    H155459   3.678   1.147   2.115  1.8954  3.0739  0.5638
11348TIP3    H255460   3.783   1.068   2.190 -1.8466 -2.0494  0.6715
11349TIP3   OH255461   4.828   1.304   1.905  0.0467  0.5773 -0.4832
11349TIP3    H155462   4.902   1.322   1.963 -0.8383  1.1964  0.4812
11349TIP3    H255463   4.798   1.390   1.875 -0.9158  0.4164 -0.0328
11350TIP3   OH255464   1.198   4.163   2.091 -0.0740 -0.2435 -0.0739
11350TIP3    H155465   1.165   4.238   2.042 -0.1015  0.6176  1.2479
11350TIP3    H255466   1.293   4.166   2.079 -0.1695 -0.6977 -0.9988
11351TIP3   OH255467   3.348   2.344   0.096 -0.1555  0.3587 -0.0720
11351TIP3    H155468   3.258   2.363   0.070  1.0884  2.6421 -2.9961
11351TIP3    H255469   3.369   2.261   0.053 -1.5445 -1.3405  2.4479
11352TIP3   OH255470   4.219   5.952   4.399 -0.0772  0.2201  0.3113
11352TIP3    H155471   4.167   5.973   4.322 -0.0355 -0.4396  0.0977
11352TIP3    H255472   4.196   5.861   4.420 -0.4750  0.5501  1.3832
11353TIP3   OH255473   2.834   3.316   0.269 -0.0093  0.1872 -0.3574
11353TIP3    H155474   2.766   3.379   0.293  0.7765  0.4481  1.2150
11353TIP3    H255475   2.861   3.344   0.181 -0.8931  0.9753 -0.3921
11354TIP3   OH255476   1.376   3.602  14.288 -0.0884 -0.7589  0.2123
11354TIP3    H155477   1.469   3.622  14.299 -0.2766  1.0868 -1.3083
11354TIP3    H255478   1.367   3.573  14.198 -1.0756 -0.2860  0.1456
11355TIP3   OH255479   3.772   5.808   3.327  0.0959 -0.4389  0.0152
11355TIP3    H155480   3.855   5.760   3.318  0.5790  0.1487  1.2073
11355TIP3    H255481   3.719   5.752   3.383  0.6261  0.3520  1.3312
11356TIP3   OH255482   3.086   1.919  13.604  0.4101  0.3677 -0.1298
11356TIP3    H155483   3.177   1.900  13.582  0.0734  0.0289 -1.2852
11356TIP3    H255484   3.080   2.015  13.603  0.5067  0.3706 -1.1487
11357TIP3   OH255485   4.910   2.813   2.044 -0.1898 -0.2368  0.2327
11357TIP3    H155486   4.966   2.880   2.003 -2.6609  1.5748 -0.3342
11357TIP3    H255487   4.885   2.852   2.128 -1.7584 -0.3582 -0.1635
11358TIP3   OH255488   3.446   2.620   2.056 -0.4427 -0.5507  0.1063
11358TIP3    H155489   3.450   2.530   2.088  0.7665 -0.8608 -0.8757
11358TIP3    H255490   3.462   2.612   1.962 -1.1085  0.6215 -0.1124
11359TIP3   OH255491   2.240   2.904  15.165  0.4761  0.1097  0.1888
11359TIP3    H155492   2.301   2.859  15.224  1.1094 -0.8161 -1.1470
11359TIP3    H255493   2.271   2.994  15.161  0.2438  0.2593  1.5010
11360TIP3   OH255494   3.556   1.213   1.478  0.0830  0.3357  0.7501
11360TIP3    H155495   3.612   1.144   1.441 -2.2222  0.0193 -2.3229
11360TIP3    H255496   3.591   1.294   1.441  0.8231  0.5453  1.8666
11361TIP3   OH255497   4.952   2.062   1.825 -0.3073 -0.5110 -0.1501
11361TIP3    H155498   5.042   2.041   1.801 -0.8617 -0.8720 -1.9897
11361TIP3    H255499   4.898   2.020   1.757 -1.9518 -1.6797  1.8281
11362TIP3   OH255500   6.883   1.924   2.892 -0.5041 -0.4749  0.2200
11362TIP3    H155501   6.962   1.876   2.919 -1.7185 -2.1019  0.9743
11362TIP3    H255502   6.817   1.899   2.956 -1.6151  0.9931 -0.3204
11363TIP3   OH255503   3.399   2.089   0.030 -0.2122 -0.1447 -0.7541
11363TIP3    H155504   3.423   2.029   0.101 -4.0523 -1.7859 -0.6581
11363TIP3    H255505   3.415   2.038  -0.050 -0.6651 -0.2139 -0.8034
11364TIP3   OH255506   0.693   3.470  13.558  0.1711  0.0173 -0.7039
11364TIP3    H155507   0.676   3.424  13.640 -0.0048  0.7912 -0.3031
11364TIP3    H255508   0.614   3.458  13.506 -0.1920  0.5338 -0.2810
11365TIP3   OH255509   2.193   6.026   3.165  0.5722  0.5942 -0.0884
11365TIP3    H155510   2.277   6.064   3.188  0.6528  0.8730 -0.8405
11365TIP3    H255511   2.150   6.091   3.110 -0.2494  0.5695  0.5048
11366TIP3   OH255512   2.565   3.831  15.460 -0.6366 -0.1459  0.4148
11366TIP3    H155513   2.527   3.893  15.523  2.2694  1.0101  1.1351
11366TIP3    H255514   2.585   3.885  15.383 -0.9102 -0.8389 -0.1479
11367TIP3   OH255515   6.046   6.426   4.386  0.1393  0.1652 -0.0883
11367TIP3    H155516   6.007   6.503   4.345  1.8535  0.7931 -0.5746
11367TIP3    H255517   6.123   6.459   4.432 -1.7385 -0.5161  3.7470
11368TIP3   OH255518   0.684   3.293   1.613  0.4846  0.6319  0.3025
11368TIP3    H155519   0.668   3.379   1.651 -0.1892  0.6376  0.0038
11368TIP3    H255520   0.767   3.265   1.651  0.0590  0.8498  1.4101
11369TIP3   OH255521   1.318   5.798   1.234  1.1399 -0.1464 -0.1566
11369TIP3    H155522   1.402   5.752   1.241  1.1176 -0.1433  0.1183
11369TIP3    H255523   1.339   5.877   1.185  1.8556  1.2522  2.3273
11370TIP3   OH255524   1.661   5.798   3.716  0.5962  0.3402 -0.1810
11370TIP3    H155525   1.711   5.761   3.643 -0.2475  0.5041 -0.8504
11370TIP3    H255526   1.653   5.891   3.695  0.7343  0.4744  0.3502
11371TIP3   OH255527   2.655   4.139   2.774  0.5357  0.0819 -0.3439
11371TIP3    H155528   2.684   4.079   2.843  0.4852 -0.8526 -1.1285
11371TIP3    H255529   2.735   4.161   2.726  0.3013 -0.6694 -1.0797
11372TIP3   OH255530   4.207   0.968   0.503  0.3533  0.0799 -0.0946
11372TIP3    H155531   4.249   0.921   0.431  1.6883  1.8859 -0.5298
11372TIP3    H255532   4.254   0.940   0.581  0.4004 -0.1648 -0.2118
11373TIP3   OH255533   2.590   5.773   3.755 -0.2899 -0.3741 -0.9545
11373TIP3    H155534   2.592   5.791   3.661 -0.5994 -0.4024 -0.9672
11373TIP3    H255535   2.643   5.694   3.766  1.2545  0.6476 -0.8767
11374TIP3   OH255536   2.383   0.468  15.986  0.1088 -0.3352  0.1553
11374TIP3    H155537   2.320   0.417  16.036  0.2168  1.9598  2.7489
11374TIP3    H255538   2.467   0.425  16.001 -0.2246 -1.0330  0.0044
11375TIP3   OH255539   1.244   4.567   1.133 -0.5116 -0.1754 -0.0893
11375TIP3    H155540   1.274   4.607   1.051  1.4799 -0.2711  0.5664
11375TIP3    H255541   1.167   4.516   1.108 -0.1152  0.0475 -1.8434
11376TIP3   OH255542   3.149   3.289  14.142  0.0940  0.4669 -0.4204
11376TIP3    H155543   3.227   3.277  14.087  0.8033 -1.3915  0.9037
11376TIP3    H255544   3.076   3.268  14.084  0.5624  2.2474 -1.6899
11377TIP3   OH255545   7.069   3.574   1.064  0.4812  0.1952 -0.2883
11377TIP3    H155546   7.105   3.628   1.134  1.8296  0.8402 -1.4676
11377TIP3    H255547   7.073   3.629   0.986 -0.2014 -0.8165 -1.0517
11378TIP3   OH255548   5.275   5.785   3.586  0.1653 -0.3735  0.1572
11378TIP3    H155549   5.297   5.721   3.653 -0.3207  0.2664  0.9358
11378TIP3    H255550   5.212   5.740   3.529 -0.3513 -0.5132  0.8320
11379TIP3   OH255551   0.082   3.816  14.431  0.5026 -0.0488 -0.1679
11379TIP3    H155552   0.009   3.792  14.374  0.3754 -1.9843  0.7452
11379TIP3    H255553   0.123   3.732  14.452  1.7552  0.8358  0.9656
11380TIP3   OH255554   3.582   6.888   0.194 -0.4353  0.0686 -0.1046
11380TIP3    H155555   3.643   6.874   0.122  1.2883 -0.8362  1.4863
11380TIP3    H255556   3.572   6.802   0.234 -0.5506  0.7463  1.3655
11381TIP3   OH255557   2.874   0.335  15.159  0.2278 -0.8596 -0.2186
11381TIP3    H155558   2.865   0.292  15.074 -2.0460 -0.6694 -0.1137
11381TIP3    H255559   2.784   0.342  15.192  0.8184  1.4556  1.0214
11382TIP3   OH255560   3.442   1.260  15.706 -0.4678 -0.0506  0.8644
11382TIP3    H155561   3.473   1.339  15.661 -0.3285 -0.6897 -0.1554
11382TIP3    H255562   3.419   1.291  15.794  0.3492  0.9726  0.7268
11383TIP3   OH255563   3.603   2.118   1.568 -0.7274 -0.1449 -0.5245
11383TIP3    H155564   3.606   2.209   1.599  0.0044 -0.4958  0.4696
11383TIP3    H255565   3.581   2.125   1.476  1.2571  1.1638 -0.9417
11384TIP3   OH255566   3.519   4.085   1.471 -0.0523  0.2720  0.1077
11384TIP3    H155567   3.521   4.160   1.412 -0.1484  1.1640  1.2292
11384TIP3    H255568   3.427   4.062   1.478  0.1148 -1.1196 -1.6606
11385TIP3   OH255569   4.551   0.257   1.256 -0.3577  0.5541  0.4302
11385TIP3    H155570   4.631   0.309   1.263 -0.2070  0.3574  0.1745
11385TIP3    H255571   4.497   0.306   1.194  0.5285 -0.5398 -1.2284
11386TIP3   OH255572   4.238   0.161   1.892  0.6567 -0.5301 -0.5423
11386TIP3    H155573   4.315   0.104   1.893 -0.4919 -2.1321  1.1232
11386TIP3    H255574   4.166   0.104   1.919 -0.9831  1.1407 -1.2548
11387TIP3   OH255575   3.466   4.173   1.149  0.2632 -0.1900  0.1132
11387TIP3    H155576   3.444   4.174   1.056 -0.2682  2.0598  0.2504
11387TIP3    H255577   3.428   4.091   1.181 -0.5518 -0.4353 -1.4141
11388TIP3   OH255578   2.638   2.471   2.348  0.1998 -0.1367 -0.2055
11388TIP3    H155579   2.620   2.404   2.283 -0.6593  0.1269 -0.2347
11388TIP3    H255580   2.564   2.467   2.409  0.9619 -0.3410  0.7210
11389TIP3   OH255581   0.462   3.848   2.011  0.0158  0.1708  0.1137
11389TIP3    H155582   0.458   3.939   1.982  0.5604  0.0971 -0.1840
11389TIP3    H255583   0.500   3.852   2.099  1.3200  0.1161 -0.4350
11390TIP3   OH255584   1.919   4.891   4.860  0.1074 -0.1719  0.1869
11390TIP3    H155585   1.897   4.831   4.788 -0.3786 -0.1812  0.3420
11390TIP3    H255586   1.988   4.846   4.908  0.7291  0.0157 -0.5135
11391TIP3   OH255587   1.661   5.944   2.112 -0.0829  0.7214 -0.1511
11391TIP3    H155588   1.616   5.929   2.029  0.4942  1.8374 -0.6775
11391TIP3    H255589   1.752   5.962   2.087  0.2301  0.4193  0.7668
11392TIP3   OH255590   5.762   6.440   3.632 -0.2517 -0.1431 -0.4343
11392TIP3    H155591   5.850   6.463   3.602 -1.2635  1.1289 -2.5164
11392TIP3    H255592   5.708   6.445   3.553 -1.8334 -2.8787  0.4139
11393TIP3   OH255593   7.020   3.148   1.998 -0.3201 -0.0015 -0.0053
11393TIP3    H155594   7.043   3.088   1.928  1.3203  1.2148 -0.5411
11393TIP3    H255595   7.043   3.102   2.079 -1.7892 -1.2196 -0.2509
11394TIP3   OH255596   4.560   2.069   1.714  0.2263 -0.3416  0.0002
11394TIP3    H155597   4.629   2.009   1.688  0.5018 -0.0686  0.0998
11394TIP3    H255598   4.509   2.020   1.779  0.9087 -0.2022  0.6574
11395TIP3   OH255599   0.553   4.361   1.792 -0.2975 -0.1349  0.0344
11395TIP3    H155600   0.502   4.377   1.713 -1.9209  0.7700  1.2202
11395TIP3    H255601   0.638   4.332   1.761 -1.2011 -0.6583 -2.0205
11396TIP3   OH255602   4.827   0.625   4.082  0.2566 -0.0903 -0.2453
11396TIP3    H155603   4.805   0.705   4.034 -1.8385 -0.1865  0.5149
11396TIP3    H255604   4.746   0.600   4.125  1.9447 -0.3037  2.9437
11397TIP3   OH255605   3.235   3.943  15.600  0.8943 -0.1246 -0.8091
11397TIP3    H155606   3.229   3.878  15.670  2.7395  0.4890 -0.0736
11397TIP3    H255607   3.273   4.020  15.641  0.2583  0.8845 -2.0663
11398TIP3   OH255608   4.747   6.902   0.873 -0.2716  0.0275  0.0031
11398TIP3    H155609   4.692   6.879   0.948  0.9456  0.4477  1.0268
11398TIP3    H255610   4.836   6.897   0.906  0.3137 -0.5006 -1.6197
11399TIP3   OH255611   1.426   2.535   1.013  0.2459 -0.3606  0.6108
11399TIP3    H155612   1.499   2.509   1.070 -0.2121 -1.5679  0.6638
11399TIP3    H255613   1.366   2.461   1.017 -0.9909  0.6264  0.5704
11400TIP3   OH255614   6.836   3.705  15.681  0.2727  0.3594 -0.4819
11400TIP3    H155615   6.824   3.703  15.776 -0.2506  0.6274 -0.5418
11400TIP3    H255616   6.747   3.701  15.645  0.4690  0.1625 -0.9639
11401TIP3   OH255617   0.294   1.332   2.757 -0.1182 -0.6105 -0.6112
11401TIP3    H155618   0.317   1.399   2.821 -0.0701 -1.0732 -0.1354
11401TIP3    H255619   0.312   1.372   2.672  1.6638 -0.6691 -0.2748
11402TIP3   OH255620   1.752   1.524   3.245  0.1492 -0.2110 -0.5258
11402TIP3    H155621   1.758   1.587   3.318 -0.7562  0.2177 -0.8101
11402TIP3    H255622   1.776   1.575   3.168  0.5936 -0.5314 -0.6001
11403TIP3   OH255623   4.613   7.224  15.185  0.1621 -0.1784 -0.0380
11403TIP3    H155624   4.523   7.235  15.215  0.0908 -2.3349  0.6160
11403TIP3    H255625   4.660   7.299  15.223 -1.2114  0.6141  0.1449
11404TIP3   OH255626   2.004   0.918   5.466  0.0779 -0.1174 -0.0213
11404TIP3    H155627   1.965   0.851   5.523 -1.3790  0.6898 -0.0280
11404TIP3    H255628   1.954   0.911   5.385  0.9994 -0.0966 -0.5944
11405TIP3   OH255629   5.236   2.306  15.671 -0.3112 -0.2459 -0.1168
11405TIP3    H155630   5.167   2.240  15.672  1.3467 -2.0130  0.5205
11405TIP3    H255631   5.236   2.342  15.760 -1.1372  0.5619 -0.4329
11406TIP3   OH255632   3.072   3.286   0.418  0.1060 -0.0438  0.0968
11406TIP3    H155633   2.995   3.286   0.361 -0.2006 -0.3855  0.5183
11406TIP3    H255634   3.082   3.196   0.446  1.1039 -0.1509 -0.5510
11407TIP3   OH255635   2.999   5.478   0.182 -0.2124 -0.3890 -0.5438
11407TIP3    H155636   3.050   5.458   0.104 -0.1500  0.7899 -0.8171
11407TIP3    H255637   2.925   5.529   0.150 -1.0465 -1.2529 -0.0271
11408TIP3   OH255638   1.460   3.817   1.483 -0.1948  0.2302  0.2658
11408TIP3    H155639   1.516   3.882   1.442  0.3107  0.1408  0.8047
11408TIP3    H255640   1.415   3.865   1.553 -0.7668  0.2958 -0.1488
11409TIP3   OH255641   3.355   2.352  14.858 -0.4232 -0.4148  1.0867
11409TIP3    H155642   3.400   2.436  14.850 -0.9513 -0.0884  1.5336
11409TIP3    H255643   3.387   2.315  14.940  0.3923 -1.0040  0.5084
11410TIP3   OH255644   1.200   5.073   0.257 -0.0185 -0.0288  0.0055
11410TIP3    H155645   1.166   5.089   0.169  1.4104 -1.9432 -0.9393
11410TIP3    H255646   1.125   5.036   0.305 -0.4186 -0.3306 -0.8328
11411TIP3   OH255647   4.430   4.581   1.268  0.0838 -0.4586 -0.3285
11411TIP3    H155648   4.336   4.592   1.250  0.0666  0.7106  0.4695
11411TIP3    H255649   4.457   4.664   1.306  1.4015 -0.8822 -0.3365
11412TIP3   OH255650   1.538   2.000   0.644 -0.0909 -0.4823 -0.0710
11412TIP3    H155651   1.560   2.054   0.568  2.2602 -0.2062  0.7466
11412TIP3    H255652   1.521   2.064   0.714 -1.0177 -0.7506 -0.0524
11413TIP3   OH255653   1.844   0.055   1.771  0.0797  0.3692  0.2522
11413TIP3    H155654   1.833   0.060   1.866  1.1102 -0.8232  0.4556
11413TIP3    H255655   1.938   0.067   1.758 -0.1782  1.4027 -0.6976
11414TIP3   OH255656   3.646   2.036   3.047  0.1862 -0.1286 -0.4520
11414TIP3    H155657   3.642   1.954   3.097  0.8174  0.4178  0.4884
11414TIP3    H255658   3.556   2.050   3.018 -0.6813  0.8303  2.5638
11415TIP3   OH255659   3.460   3.053   0.201 -0.1692  0.2242  0.3332
11415TIP3    H155660   3.416   3.076   0.282  0.5806 -0.3813  0.9163
11415TIP3    H255661   3.538   3.006   0.228 -0.2544 -0.5763 -0.7650
11416TIP3   OH255662   1.365   3.314   2.787 -0.1287  0.1096  0.7232
11416TIP3    H155663   1.412   3.234   2.766  0.1093  0.8227 -1.6193
11416TIP3    H255664   1.432   3.374   2.818  0.2270  0.4756 -0.7200
11417TIP3   OH255665   2.547   4.001  15.235 -0.3592 -0.5202  0.2689
11417TIP3    H155666   2.527   3.986  15.143 -3.1606 -2.5999  1.1378
11417TIP3    H255667   2.464   4.032  15.273  1.3413  2.5431  1.6801
11418TIP3   OH255668   1.474   2.992   2.827 -0.3435 -0.2467 -0.9172
11418TIP3    H155669   1.451   2.899   2.834  0.3970 -0.4042 -0.5507
11418TIP3    H255670   1.541   3.005   2.894 -1.8621  1.0236  0.3870
11419TIP3   OH255671   5.080   2.526   5.756  0.1642  0.3589  0.3063
11419TIP3    H155672   4.991   2.511   5.789  0.3138 -0.7256  0.2542
11419TIP3    H255673   5.136   2.480   5.819  0.6322  0.4724 -0.0330
11420TIP3   OH255674   4.029   0.628   0.256  0.1188 -0.5614 -0.0912
11420TIP3    H155675   3.982   0.548   0.281  0.6300 -1.2153 -1.1956
11420TIP3    H255676   4.037   0.623   0.161  2.4278 -0.4672  0.0583
11421TIP3   OH255677   6.868   2.269   2.798 -0.1546 -0.4069 -0.1627
11421TIP3    H155678   6.901   2.209   2.731  0.6853  1.4848 -1.4756
11421TIP3    H255679   6.909   2.239   2.879  3.0913  0.4897 -1.3809
11422TIP3   OH255680   1.571   1.939   0.292 -0.2453 -0.3882 -0.9399
11422TIP3    H155681   1.607   2.019   0.330  0.8156 -1.0316 -0.5742
11422TIP3    H255682   1.621   1.868   0.333 -2.0721 -1.3182 -0.2429
11423TIP3   OH255683   0.018   4.486   2.211 -0.0015 -0.3667  0.1517
11423TIP3    H155684   0.073   4.427   2.263  0.0305 -0.5302 -0.0628
11423TIP3    H255685   0.063   4.490   2.126  0.4579  0.6376  0.4321
11424TIP3   OH255686   2.067   2.018   1.072 -0.0347 -0.4517  0.0966
11424TIP3    H155687   2.048   1.956   1.143  0.5632  0.5551  1.1451
11424TIP3    H255688   2.006   2.090   1.086  0.4902  0.0255 -0.0773
11425TIP3   OH255689   1.831   4.196  15.767  0.1302 -0.2151 -0.3928
11425TIP3    H155690   1.795   4.188  15.855  1.8140 -1.0488  0.2477
11425TIP3    H255691   1.875   4.281  15.766  1.5185 -0.9090  0.1270
11426TIP3   OH255692   1.940   2.416  15.904 -0.3623  0.0309  0.0003
11426TIP3    H155693   1.982   2.501  15.890  0.3604 -0.4624 -0.8811
11426TIP3    H255694   1.987   2.378  15.977 -0.5611  0.3059  0.2737
11427TIP3   OH255695   0.686   5.376   4.182 -0.2482 -0.0630 -0.4682
11427TIP3    H155696   0.762   5.430   4.203 -1.3978  0.7877  1.6804
11427TIP3    H255697   0.669   5.326   4.262 -0.9906 -1.4250 -1.4595
11428TIP3   OH255698   1.034   2.004   2.958  0.2627  0.1723  0.2931
11428TIP3    H155699   0.959   1.981   2.904  0.8655 -1.0430 -0.0312
11428TIP3    H255700   1.006   1.984   3.048  0.5922 -1.3684  0.0665
11429TIP3   OH255701   1.442   2.685  15.629  0.1886  0.0839  0.0587
11429TIP3    H155702   1.361   2.634  15.634  0.8273 -1.0605 -0.9389
11429TIP3    H255703   1.463   2.706  15.720 -2.1572  1.9306  0.2472
11430TIP3   OH255704   2.035   6.501   0.285 -0.2893  0.1093 -0.1437
11430TIP3    H155705   2.124   6.535   0.272 -0.4340  0.2078 -0.8699
11430TIP3    H255706   1.987   6.575   0.322 -0.4959  0.5659 -1.3269
11431TIP3   OH255707   6.736   4.269  14.622 -0.0267 -0.1646  0.5594
11431TIP3    H155708   6.784   4.219  14.688 -0.5774 -1.3680  0.0866
11431TIP3    H255709   6.796   4.276  14.548 -0.4776 -1.5244  0.0319
11432TIP3   OH255710   2.461   2.685   2.368  0.0365  0.3015  0.1765
11432TIP3    H155711   2.522   2.668   2.296 -0.3851 -1.2692  0.1745
11432TIP3    H255712   2.397   2.746   2.332 -0.1986 -0.5085 -0.8146
11433TIP3   OH255713   3.927   1.899  15.828 -0.3027 -0.5122  0.3889
11433TIP3    H155714   3.940   1.856  15.743  1.0817  1.7124 -0.5388
11433TIP3    H255715   3.934   1.992  15.809  0.6516 -0.0121  3.0707
11434TIP3   OH255716   3.076   5.230  14.284 -0.2111  1.1992  0.0806
11434TIP3    H155717   2.992   5.188  14.268 -0.5897  1.9047  0.2050
11434TIP3    H255718   3.139   5.176  14.237 -0.6857  0.4714  0.2699
11435TIP3   OH255719   2.827   6.118   3.660  0.2353  0.1344 -0.4176
11435TIP3    H155720   2.853   6.068   3.582 -0.2263 -1.5652  0.4976
11435TIP3    H255721   2.872   6.074   3.732 -0.6738  0.6649  0.4784
11436TIP3   OH255722   0.851   2.529  15.928 -0.1349  0.3588 -0.1417
11436TIP3    H155723   0.828   2.439  15.951 -1.3867  1.0500  1.4333
11436TIP3    H255724   0.946   2.526  15.914  0.1219 -0.8585  1.6604
11437TIP3   OH255725   3.896   5.649   2.574  0.0501  0.4284  0.5549
11437TIP3    H155726   3.966   5.676   2.515  0.6634  0.2252  1.1854
11437TIP3    H255727   3.882   5.556   2.554 -1.0512  0.8232 -0.5884
11438TIP3   OH255728   3.715   4.240  14.631 -0.2872  0.6821 -0.0396
11438TIP3    H155729   3.743   4.165  14.683 -0.3984  1.0049  0.4913
11438TIP3    H255730   3.732   4.316  14.687 -0.4403  1.0300 -0.4577
11439TIP3   OH255731   1.711   6.672   2.596 -0.0334  0.5054 -0.3222
11439TIP3    H155732   1.726   6.620   2.517  0.0492 -1.2160  0.8175
11439TIP3    H255733   1.616   6.677   2.604 -0.0810  2.3825 -1.6075
11440TIP3   OH255734   7.103   5.382   3.859  0.2284 -0.2385 -0.6150
11440TIP3    H155735   7.162   5.418   3.793 -0.7191  2.0520 -0.2666
11440TIP3    H255736   7.111   5.287   3.850  0.2409  0.0245 -3.9337
11441TIP3   OH255737   3.445   1.822   3.601  0.0005 -0.8515 -0.2911
11441TIP3    H155738   3.439   1.759   3.673 -0.6775  0.5392  0.8959
11441TIP3    H255739   3.356   1.856   3.593  0.7383  1.2900  0.3174
11442TIP3   OH255740   0.421   3.751   3.152  0.2813  0.0746 -0.2506
11442TIP3    H155741   0.500   3.709   3.186 -1.1840 -1.5303  1.2784
11442TIP3    H255742   0.351   3.722   3.211 -1.5075  1.2142 -1.7480
11443TIP3   OH255743   2.282   1.833   1.975  0.1221  1.0459  0.4623
11443TIP3    H155744   2.330   1.857   1.895 -0.6314  0.9026 -0.0393
11443TIP3    H255745   2.190   1.837   1.949 -0.0956  0.1005  1.0756
11444TIP3   OH255746   0.833   3.032   1.968  0.4277  0.6949 -0.0879
11444TIP3    H155747   0.908   3.052   2.024  0.8422  0.2291 -0.4838
11444TIP3    H255748   0.820   3.113   1.918  1.2622  0.4525 -0.7070
11445TIP3   OH255749   6.177   4.390  13.817 -0.5855  0.0481 -0.9019
11445TIP3    H155750   6.145   4.355  13.901 -0.9599  0.6383 -0.7961
11445TIP3    H255751   6.134   4.475  13.808  0.4763  0.5734 -1.0699
11446TIP3   OH255752   0.106   3.210   1.115  0.7624  0.1527 -0.2000
11446TIP3    H155753   0.034   3.268   1.141  2.0832  2.1031 -0.7896
11446TIP3    H255754   0.141   3.176   1.198  0.3255  0.6203  0.1783
11447TIP3   OH255755   2.759   0.400   2.289 -0.4322  0.5443  0.4495
11447TIP3    H155756   2.798   0.444   2.365 -2.1392  3.2799 -0.1906
11447TIP3    H255757   2.734   0.471   2.230  1.2659 -1.5595 -2.9349
11448TIP3   OH255758   3.855   2.135  15.688 -0.1446  0.2274 -0.3522
11448TIP3    H155759   3.833   2.218  15.647 -0.5010 -0.7276 -2.1647
11448TIP3    H255760   3.915   2.093  15.627  0.0936 -0.8131  0.5753
11449TIP3   OH255761   1.076   6.977   1.665 -0.2672 -0.0866  0.2228
11449TIP3    H155762   1.079   7.040   1.737  0.5808  0.5593 -0.3667
11449TIP3    H255763   1.132   6.905   1.695 -0.4864 -0.1382  0.5104
11450TIP3   OH255764   0.006   3.656  14.965  0.3793 -0.5727  0.3986
11450TIP3    H155765  -0.044   3.620  15.038 -0.0955 -0.7776 -0.0244
11450TIP3    H255766   0.082   3.698  15.006 -0.3689  0.1169  1.0810
11451TIP3   OH255767   2.450   3.207  15.529 -0.3016 -0.1986 -0.0409
11451TIP3    H155768   2.462   3.134  15.468 -0.0989 -0.5735  0.4461
11451TIP3    H255769   2.488   3.176  15.611  0.4756  0.7387 -0.0383
11452TIP3   OH255770   1.417   1.785   1.563 -0.0432 -0.6924 -0.2417
11452TIP3    H155771   1.468   1.792   1.483 -0.1790  0.5734 -0.2230
11452TIP3    H255772   1.470   1.731   1.621  0.5950 -0.6159 -0.7526
11453TIP3   OH255773   3.639   1.143  14.232  0.2912  0.9994  0.4177
11453TIP3    H155774   3.733   1.141  14.253  0.3139  1.2535  0.3435
11453TIP3    H255775   3.613   1.234  14.248  0.0907  0.9641  0.2910
11454TIP3   OH255776   1.334   6.855   1.305 -0.2461 -0.0070  0.4747
11454TIP3    H155777   1.367   6.920   1.367  0.0607 -1.4972  1.9040
11454TIP3    H255778   1.308   6.781   1.359 -2.1408 -0.4559 -0.9836
11455TIP3   OH255779   3.548   3.514   3.127 -0.4341  0.6930  0.5357
11455TIP3    H155780   3.488   3.442   3.109  0.0227  0.3112  0.5147
11455TIP3    H255781   3.537   3.574   3.053  3.4089 -2.1644 -2.5610
11456TIP3   OH255782   4.870   4.511   2.292 -0.7176 -0.4234  0.1378
11456TIP3    H155783   4.891   4.480   2.380 -1.0505  0.4498  0.5409
11456TIP3    H255784   4.776   4.532   2.296 -0.5197  0.5620 -0.1248
11457TIP3   OH255785   4.903   2.820   3.531  0.0612  0.4682 -0.3404
11457TIP3    H155786   4.928   2.728   3.528  0.6928  0.6385 -0.4779
11457TIP3    H255787   4.910   2.844   3.623  0.2510  0.4661 -0.3521
11458TIP3   OH255788   0.189   0.373  14.575  0.1856  0.1345  0.2288
11458TIP3    H155789   0.173   0.412  14.661  1.3056  0.0675  0.4741
11458TIP3    H255790   0.237   0.440  14.526  0.6212 -0.2799  0.0761
11459TIP3   OH255791   6.053   5.887   1.521  0.3044 -0.0335 -0.1065
11459TIP3    H155792   6.032   5.931   1.603 -3.1880 -1.3777 -0.2015
11459TIP3    H255793   6.121   5.823   1.546 -0.4418 -0.1713  1.6827
11460TIP3   OH255794   5.471   5.987   2.051  0.7057  0.0973 -0.2335
11460TIP3    H155795   5.446   6.005   2.142  0.6559  2.1803 -0.6521
11460TIP3    H255796   5.388   5.966   2.008  0.7201 -0.8199  0.1649
11461TIP3   OH255797   1.042   6.518   4.532 -0.5561  0.3410 -0.7731
11461TIP3    H155798   1.049   6.426   4.507  1.1302  0.3560 -0.4289
11461TIP3    H255799   0.989   6.558   4.464 -1.4728 -0.9183 -0.8247
11462TIP3   OH255800   4.415   6.521   3.053 -0.1356  0.0880  0.1859
11462TIP3    H155801   4.426   6.528   3.148 -2.2430  1.5598  0.3472
11462TIP3    H255802   4.320   6.515   3.040  0.0968  0.5625 -1.8756
11463TIP3   OH255803   5.039   2.366   2.178  0.0398 -0.3874  0.0477
11463TIP3    H155804   5.063   2.288   2.228 -0.3506 -1.1479 -0.9186
11463TIP3    H255805   4.979   2.333   2.110  1.6854  0.3708 -1.8143
11464TIP3   OH255806   2.798   6.192  15.843  0.1252  0.5021  0.3872
11464TIP3    H155807   2.831   6.221  15.758  1.2611 -2.3450 -0.2087
11464TIP3    H255808   2.876   6.178  15.896 -0.5658  1.9484  1.8202
11465TIP3   OH255809   3.844   4.754   2.394 -0.0438 -0.2546 -0.1534
11465TIP3    H155810   3.872   4.740   2.485 -0.6140 -2.3460 -0.2779
11465TIP3    H255811   3.822   4.667   2.362 -2.0774  0.7484 -1.5868
11466TIP3   OH255812   3.714   5.570  14.713  0.5981  0.7057 -0.2889
11466TIP3    H155813   3.695   5.490  14.762  1.0652  1.0146  0.4111
11466TIP3    H255814   3.630   5.616  14.709  0.3805  0.2903 -0.4861
11467TIP3   OH255815   2.890   1.339   2.436  0.4520 -0.0777  0.0247
11467TIP3    H155816   2.923   1.272   2.376  0.1528 -0.3403  0.1519
11467TIP3    H255817   2.944   1.331   2.514  3.1658  2.5580 -1.4638
11468TIP3   OH255818   5.106   0.384   3.132  0.0690 -0.2623  1.0946
11468TIP3    H155819   5.107   0.288   3.126  1.2430 -0.2064  0.1998
11468TIP3    H255820   5.139   0.413   3.047  0.9378  0.9221  1.8216
11469TIP3   OH255821   0.891   1.918   3.203  0.0510  0.0854  0.1944
11469TIP3    H155822   0.883   1.830   3.239 -1.5593  0.7390  1.5134
11469TIP3    H255823   0.961   1.959   3.253  0.0173 -0.0779  0.3762
11470TIP3   OH255824   4.662   0.739   1.516 -0.0404 -0.2278  0.2723
11470TIP3    H155825   4.683   0.732   1.423  1.1562 -0.0655  0.5351
11470TIP3    H255826   4.724   0.681   1.560 -1.9981 -2.0355  0.7998
11471TIP3   OH255827   4.928   2.120   0.860 -0.5775  0.7245  0.2281
11471TIP3    H155828   4.931   2.087   0.949 -0.0855  1.2840  0.4180
11471TIP3    H255829   4.909   2.043   0.806 -1.6735  0.5250  0.8923
11472TIP3   OH255830   4.567   4.420  14.337  0.4419 -0.0363 -1.0560
11472TIP3    H155831   4.626   4.368  14.391 -1.5218 -1.2879 -0.0603
11472TIP3    H255832   4.496   4.446  14.396 -0.3996  0.8008 -2.3905
11473TIP3   OH255833   3.948   2.039   0.371 -0.2642 -0.0133  0.0304
11473TIP3    H155834   3.942   1.959   0.424  2.4075 -2.1824 -2.7041
11473TIP3    H255835   3.879   2.029   0.305 -0.0996  0.0183 -0.1488
11474TIP3   OH255836   2.908   0.685   4.693  0.2156  0.1636  0.0898
11474TIP3    H155837   2.975   0.620   4.671  0.9749  0.5148  1.3061
11474TIP3    H255838   2.828   0.650   4.656 -0.1657 -3.4187  3.9272
11475TIP3   OH255839   3.003   0.818   2.315  0.2284  0.6149  0.1581
11475TIP3    H155840   2.916   0.852   2.297  0.1648  0.5871  0.4156
11475TIP3    H255841   3.062   0.878   2.269  0.1488  1.4246  1.0936
11476TIP3   OH255842   3.789   2.772   2.653  0.2359 -0.8435  0.4024
11476TIP3    H155843   3.703   2.813   2.642  0.0621 -1.4676 -0.5425
11476TIP3    H255844   3.809   2.734   2.568  2.1232  0.5893  0.1744
11477TIP3   OH255845   4.280   0.815   0.259 -0.1007  0.1671  0.1363
11477TIP3    H155846   4.192   0.838   0.228  0.3196  1.9900  0.2304
11477TIP3    H255847   4.275   0.721   0.279 -1.7843  0.0751 -0.6508
11478TIP3   OH255848   6.557   3.731   2.295  0.1296  0.3231  0.1416
11478TIP3    H155849   6.568   3.798   2.362  2.5096 -1.3820  1.5365
11478TIP3    H255850   6.502   3.664   2.336  0.0115  0.1394 -0.3057
11479TIP3   OH255851   4.042   4.607   0.170  0.0288 -0.2146 -0.1323
11479TIP3    H155852   3.985   4.658   0.112  0.6810  1.3261  0.5433
11479TIP3    H255853   4.001   4.521   0.174 -2.6024  1.0262  0.7955
11480TIP3   OH255854   4.257   3.727  15.993 -0.0379  0.4434  0.0812
11480TIP3    H155855   4.293   3.700  15.908  0.4649  0.1784  0.3773
11480TIP3    H255856   4.164   3.706  15.987  0.7633 -3.9513  1.2666
11481TIP3   OH255857   3.877   3.336   1.005 -0.1684 -0.4625 -0.1861
11481TIP3    H155858   3.881   3.320   1.099  0.9559  0.0243 -0.1395
11481TIP3    H255859   3.829   3.261   0.970 -0.4911 -0.7056  0.7621
11482TIP3   OH255860   3.197   3.134   2.109 -0.7042  0.5040 -0.2646
11482TIP3    H155861   3.237   3.153   2.024  2.1878 -0.5470  0.7862
11482TIP3    H255862   3.232   3.048   2.133 -2.3436  0.3019  1.4942
11483TIP3   OH255863   6.968   3.823  13.598  0.0639 -0.2055 -0.6705
11483TIP3    H155864   6.900   3.815  13.665  0.3959  3.1807  0.1430
11483TIP3    H255865   7.043   3.775  13.634 -1.1655 -2.1394 -0.6285
11484TIP3   OH255866   4.756   2.987   1.729  0.3253  0.1132 -0.4860
11484TIP3    H155867   4.797   2.985   1.816  0.2726 -1.4237 -0.4777
11484TIP3    H255868   4.664   3.005   1.746  0.3980  0.2623 -0.2485
11485TIP3   OH255869   5.584   5.281   2.596 -0.5181  0.2115 -0.0705
11485TIP3    H155870   5.574   5.363   2.644  1.0549  0.3114  0.1050
11485TIP3    H255871   5.597   5.215   2.664 -1.7209 -0.1915 -0.2145
11486TIP3   OH255872   3.339   3.522  15.185 -0.2927  0.0465  0.4976
11486TIP3    H155873   3.390   3.568  15.118  0.6640 -1.8067 -0.0671
11486TIP3    H255874   3.263   3.488  15.138 -0.4852  0.1838  0.7079
11487TIP3   OH255875   6.885   3.461   1.635  0.3074  0.0581 -0.2778
11487TIP3    H155876   6.900   3.496   1.723 -4.1437  1.0470  0.2038
11487TIP3    H255877   6.884   3.366   1.647  1.7337  0.1079  0.3398
11488TIP3   OH255878   3.737   1.889  15.230  0.0162  0.3684  0.4114
11488TIP3    H155879   3.713   1.914  15.320 -0.6663  0.9203  0.0847
11488TIP3    H255880   3.718   1.967  15.178  0.1605 -0.0410 -0.2578
11489TIP3   OH255881   3.114   1.573   0.677  0.1574 -0.0573  0.2959
11489TIP3    H155882   3.095   1.647   0.735  0.6171  1.8085 -1.8786
11489TIP3    H255883   3.040   1.571   0.616  2.1326  1.2523 -2.2354
11490TIP3   OH255884   4.633   2.795  14.913 -0.0605 -0.0559  0.6350
11490TIP3    H155885   4.666   2.739  14.984 -2.1494 -1.3920  0.5987
11490TIP3    H255886   4.566   2.849  14.954  3.0448  3.7006  1.0387
11491TIP3   OH255887   1.924   2.228   3.100 -0.3908  0.1145  0.4915
11491TIP3    H155888   1.871   2.164   3.148 -2.3172  0.1549 -1.5328
11491TIP3    H255889   1.865   2.262   3.033  1.9065  0.9241 -1.1553
11492TIP3   OH255890   5.088   6.074  14.973 -0.2445 -0.3034  0.0631
11492TIP3    H155891   5.128   6.057  15.058 -1.4466 -1.9361  0.3421
11492TIP3    H255892   4.994   6.064  14.989 -0.6841  2.0317 -0.8762
11493TIP3   OH255893   1.893   4.188   1.380  0.0525 -0.7471 -0.1562
11493TIP3    H155894   1.963   4.241   1.419  0.0093  0.7188 -1.9988
11493TIP3    H255895   1.933   4.102   1.367  0.3221 -1.0304  2.2701
11494TIP3   OH255896   2.168   4.034   4.224  0.1136  0.3069  0.6568
11494TIP3    H155897   2.249   4.058   4.269 -0.6999  1.8670  1.3417
11494TIP3    H255898   2.188   4.044   4.131  0.7614  0.4872  0.8137
11495TIP3   OH255899   3.182   3.073   5.442  0.5461  0.0438 -0.0503
11495TIP3    H155900   3.225   3.078   5.527  0.4720 -0.1483 -0.0006
11495TIP3    H255901   3.128   3.151   5.438 -1.2324 -1.1000  1.0495
11496TIP3   OH255902   0.665   6.587   2.422  0.0436 -0.2974 -0.4406
11496TIP3    H155903   0.702   6.668   2.458  0.5559 -0.0123 -1.6019
11496TIP3    H255904   0.740   6.529   2.409 -0.2062 -0.6105 -0.5072
11497TIP3   OH255905   3.979   2.652   1.502 -0.5756 -0.1928  0.1775
11497TIP3    H155906   4.074   2.639   1.509 -0.1741  1.3379 -1.8598
11497TIP3    H255907   3.945   2.568   1.470  0.4787  0.1153 -1.8206
11498TIP3   OH255908   0.214   4.358  15.525  0.2144 -0.5107  0.7818
11498TIP3    H155909   0.178   4.286  15.577 -1.2810  0.2051  0.7708
11498TIP3    H255910   0.218   4.324  15.436 -3.4555  0.3965  0.1958
11499TIP3   OH255911   6.940   0.998   1.652 -0.2789 -0.0327  0.0096
11499TIP3    H155912   6.931   1.016   1.559 -2.7226 -0.4106  0.1396
11499TIP3    H255913   6.929   1.083   1.694 -0.4632 -0.0636  0.0235
11500TIP3   OH255914   4.124   2.595   3.621  0.4585  0.0476  0.3816
11500TIP3    H155915   4.058   2.635   3.678  2.4547  4.2252 -0.1003
11500TIP3    H255916   4.088   2.603   3.533  0.8208  0.7800  0.2939
11501TIP3   OH255917   4.419   2.312   0.635 -0.6314  0.0858 -0.4088
11501TIP3    H155918   4.333   2.273   0.650 -0.3365 -0.8416 -1.1029
11501TIP3    H255919   4.460   2.256   0.569 -0.4225  1.8960 -1.8451
11502TIP3   OH255920   3.767   6.854   2.053 -0.1127  0.1063  0.2657
11502TIP3    H155921   3.706   6.846   2.127 -1.2947 -0.5186 -0.7431
11502TIP3    H255922   3.729   6.922   1.998  0.1062 -0.2798 -0.3681
11503TIP3   OH255923   0.723   4.010  15.966 -0.5826 -0.1841  0.0737
11503TIP3    H155924   0.751   3.928  15.925 -2.3316 -0.6689 -0.2162
11503TIP3    H255925   0.630   4.017  15.944 -0.9746  0.7858  1.8901
11504TIP3   OH255926   3.547   3.991  15.264 -0.5110  0.3899 -0.1887
11504TIP3    H155927   3.642   4.003  15.271 -0.9406  2.0705  3.2719
11504TIP3    H255928   3.524   3.935  15.338 -2.2674  0.1213 -0.9112
11505TIP3   OH255929   4.005   5.215   3.838  0.1081 -0.1001  0.4308
11505TIP3    H155930   4.053   5.250   3.913 -0.5134  0.8714  0.3796
11505TIP3    H255931   3.918   5.253   3.845 -0.8430 -2.2746  0.8263
11506TIP3   OH255932   2.520   0.184   0.328  0.2373 -0.3560 -0.5519
11506TIP3    H155933   2.477   0.269   0.322  0.0670 -0.4858 -1.2488
11506TIP3    H255934   2.452   0.120   0.306  0.4467 -0.6471 -0.3612
11507TIP3   OH255935   6.823   3.843   3.500 -0.0777  0.2598 -0.0533
11507TIP3    H155936   6.903   3.837   3.552 -0.1535  0.2513  0.0623
11507TIP3    H255937   6.781   3.923   3.530 -1.1217 -0.7620  1.3220
11508TIP3   OH255938   5.069   3.505   5.214  0.5629  0.1141  0.3536
11508TIP3    H155939   5.083   3.414   5.241  0.6212  0.1837  0.5591
11508TIP3    H255940   5.050   3.551   5.295  1.0659  0.3880  0.3130
11509TIP3   OH255941   0.553   4.763   0.844  0.6923 -0.2624 -0.5842
11509TIP3    H155942   0.460   4.745   0.827  1.2631 -1.2146 -2.8411
11509TIP3    H255943   0.585   4.681   0.883  0.4486  0.3261  0.9080
11510TIP3   OH255944   6.422   4.572  14.358  0.1746  0.0092  0.2929
11510TIP3    H155945   6.382   4.570  14.271 -0.1146 -1.4356  0.4448
11510TIP3    H255946   6.416   4.664  14.385 -1.3770  0.1421 -0.4543
11511TIP3   OH255947   0.035   1.413  14.820 -0.0523  0.3964  0.0075
11511TIP3    H155948  -0.034   1.374  14.767  1.1659 -0.4940 -0.9657
11511TIP3    H255949   0.105   1.431  14.758  2.0432 -2.1334  1.4871
11512TIP3   OH255950   4.584   5.958   1.767  0.0384  0.2027 -0.4876
11512TIP3    H155951   4.551   6.024   1.828  1.5669  1.5445 -1.0911
11512TIP3    H255952   4.570   5.875   1.813 -0.5514  1.0554  0.9142
11513TIP3   OH255953   6.434   1.758   2.530 -0.2838 -0.0907 -0.0888
11513TIP3    H155954   6.513   1.812   2.526 -1.6952  2.1143  0.5256
11513TIP3    H255955   6.406   1.750   2.438  0.8478 -1.1844 -0.3406
11514TIP3   OH255956   5.872   3.565   1.276  0.2292  0.4605  0.6981
11514TIP3    H155957   5.908   3.602   1.356 -0.6433  4.4514 -0.6192
11514TIP3    H255958   5.947   3.551   1.219  0.5800  0.2553  1.2129
11515TIP3   OH255959   4.412   0.265  15.608 -0.2829 -0.7680  0.2368
11515TIP3    H155960   4.483   0.281  15.670 -1.4873  0.4229  1.3491
11515TIP3    H255961   4.360   0.195  15.648  0.5917 -2.0696 -0.8691
11516TIP3   OH255962   2.544   3.464  14.253 -0.2878  0.1780 -0.3866
11516TIP3    H155963   2.492   3.533  14.212 -2.8504 -2.2095 -1.3902
11516TIP3    H255964   2.515   3.463  14.344 -0.2604  0.4401 -0.3754
11517TIP3   OH255965   3.785   1.680   1.964  0.3570 -0.5500  0.2924
11517TIP3    H155966   3.716   1.723   1.913  0.1479 -2.3903 -1.0372
11517TIP3    H255967   3.835   1.630   1.900  1.1744 -1.5198  1.6552
11518TIP3   OH255968   5.534   1.352  12.203  0.4790  0.1819  0.5708
11518TIP3    H155969   5.509   1.288  12.136  0.8989 -0.3995  0.9647
11518TIP3    H255970   5.524   1.437  12.160  0.6731 -0.1859 -0.2156
11519TIP3   OH255971   0.456   3.329  15.166  0.0033 -0.3453 -0.0812
11519TIP3    H155972   0.390   3.354  15.102  2.6702 -0.6593 -3.0456
11519TIP3    H255973   0.501   3.410  15.187  1.9150 -0.9132 -1.8768
11520TIP3   OH255974   6.540   0.367  14.174  0.0475 -0.5015  0.5924
11520TIP3    H155975   6.492   0.439  14.213  1.0702  0.4585  0.1066
11520TIP3    H255976   6.487   0.289  14.194 -1.7344  0.5302 -0.0045
11521TIP3   OH255977   0.243   3.717   1.106  0.3660  0.1330 -0.1415
11521TIP3    H155978   0.292   3.636   1.090  0.6120  0.5897 -1.9036
11521TIP3    H255979   0.184   3.696   1.178 -1.7021 -2.5884 -2.4831
11522TIP3   OH255980   5.296   2.143   0.347  0.3089 -0.0416  0.3004
11522TIP3    H155981   5.313   2.200   0.272  0.3430  2.4115  2.0911
11522TIP3    H255982   5.235   2.193   0.402  0.0138 -1.9236  1.7456
11523TIP3   OH255983   4.874   2.340   2.866  0.0007  0.1610 -0.1630
11523TIP3    H155984   4.779   2.333   2.870 -0.1466  0.7018 -2.1215
11523TIP3    H255985   4.893   2.430   2.894 -0.0667  0.0717  0.1693
11524TIP3   OH255986   5.587   4.064  10.949  0.0625  0.4235 -0.4856
11524TIP3    H155987   5.612   3.979  10.986 -1.2729  0.4208  0.4694
11524TIP3    H255988   5.528   4.042  10.877  0.3421  0.5073 -0.7356
11525TIP3   OH255989   2.346   4.515  15.779 -0.3818 -0.1139 -0.1369
11525TIP3    H155990   2.434   4.511  15.817 -0.0807 -1.0152 -0.9075
11525TIP3    H255991   2.348   4.590  15.720 -0.0099 -0.3493 -0.4270
11526TIP3   OH255992   5.781   2.570   0.320 -0.4059 -0.0907  0.6273
11526TIP3    H155993   5.848   2.576   0.252 -1.9959 -1.4728 -1.1048
11526TIP3    H255994   5.789   2.481   0.354 -0.2132  0.3071  1.6491
11527TIP3   OH255995   2.843   6.706   2.236  0.0720 -0.1781  0.2904
11527TIP3    H155996   2.860   6.797   2.212  0.0521 -0.1630  0.3341
11527TIP3    H255997   2.752   6.705   2.265  0.2698 -0.0857  0.9151
11528TIP3   OH255998   0.671   2.516  15.087 -0.2781 -0.5370 -0.2369
11528TIP3    H155999   0.715   2.591  15.128  0.1659 -0.4638 -0.8471
11528TIP3    H256000   0.578   2.529  15.108  0.2030 -1.8109  2.8313
11529TIP3   OH256001   4.856   5.473  15.198 -0.2106 -0.4842  0.0347
11529TIP3    H156002   4.811   5.427  15.128 -0.0034 -0.1516 -0.3179
11529TIP3    H256003   4.908   5.540  15.154 -1.0567  0.5529  0.5665
11530TIP3   OH256004   3.118   5.943   1.754 -0.2977 -0.0365  0.0911
11530TIP3    H156005   3.157   5.897   1.680 -0.2252 -0.6848  0.5303
11530TIP3    H256006   3.119   5.879   1.825  0.8487  0.9873  1.0242
11531TIP3   OH256007   5.126   5.492   3.576 -0.0600 -0.0826  0.5317
11531TIP3    H156008   5.058   5.428   3.596  1.3057 -2.0598 -1.0667
11531TIP3    H256009   5.186   5.487   3.651 -0.6434  0.2900  1.0301
11532TIP3   OH256010   0.543   3.247  15.591  0.6017  0.7285 -0.0414
11532TIP3    H156011   0.615   3.184  15.592  0.7748  0.9322  1.0884
11532TIP3    H256012   0.558   3.302  15.668 -0.6977  0.8450  0.1406
11533TIP3   OH256013   6.615   7.050   1.683 -0.0282 -0.5213 -0.1621
11533TIP3    H156014   6.631   7.120   1.747  2.1529 -1.4288  0.3655
11533TIP3    H256015   6.602   6.971   1.737 -2.5125 -0.5338 -0.7474
11534TIP3   OH256016   0.222   3.836   0.144  0.9248  0.4297 -0.1120
11534TIP3    H156017   0.243   3.899   0.213 -0.7370 -1.5010  2.2169
11534TIP3    H256018   0.127   3.843   0.134  0.5531 -2.4526  0.9662
11535TIP3   OH256019   1.960   4.636  15.121 -0.3161 -0.0199 -0.1737
11535TIP3    H156020   1.975   4.729  15.105  0.6062 -0.2122 -0.4297
11535TIP3    H256021   1.887   4.634  15.184  0.7891  0.9351  1.1673
11536TIP3   OH256022   0.969   2.567   0.546 -0.4200  0.6445 -0.1221
11536TIP3    H156023   0.998   2.643   0.597  1.8548 -0.3195  0.0899
11536TIP3    H256024   0.936   2.506   0.612 -0.2656  0.5993 -0.0859
11537TIP3   OH256025   1.334   3.749   0.441  0.4719  0.1817  0.3722
11537TIP3    H156026   1.290   3.833   0.443 -0.2615 -0.1522 -1.0139
11537TIP3    H256027   1.266   3.686   0.417  1.2154 -0.6655  0.4205
11538TIP3   OH256028   2.592   2.189   0.427 -0.1604 -0.4298  0.2627
11538TIP3    H156029   2.503   2.182   0.391 -0.4181  1.4958  0.4454
11538TIP3    H256030   2.613   2.282   0.419  1.7807 -0.8489  0.3887
11539TIP3   OH256031   5.206   6.512  15.365  0.3466  0.4169  0.1167
11539TIP3    H156032   5.269   6.544  15.301  0.3565 -0.9044 -0.5666
11539TIP3    H256033   5.248   6.523  15.450  2.3450 -2.2844 -0.4654
11540TIP3   OH256034   3.258   3.628   2.761 -0.2417 -0.1447  0.6229
11540TIP3    H156035   3.172   3.668   2.777 -0.2686  0.1461 -0.2299
11540TIP3    H256036   3.237   3.540   2.730 -0.2314 -0.1520  0.6376
11541TIP3   OH256037   5.576   3.560  15.351  0.7737 -0.0132 -0.7433
11541TIP3    H156038   5.589   3.478  15.302  4.0276 -0.0768  0.0832
11541TIP3    H256039   5.662   3.601  15.351 -0.1637  2.0462  1.3050
11542TIP3   OH256040   5.678   2.691  15.717  0.3044 -0.5164  0.4039
11542TIP3    H156041   5.618   2.637  15.666  0.1946 -2.4625  2.5040
11542TIP3    H256042   5.642   2.690  15.806  0.9772  2.0347  0.7482
11543TIP3   OH256043   2.820   5.950   1.847  0.0369  0.3063 -0.5015
11543TIP3    H156044   2.802   5.906   1.930  0.9206 -2.2994 -1.6453
11543TIP3    H256045   2.910   5.983   1.856 -0.1563  0.7299 -0.1282
11544TIP3   OH256046   2.609   4.192   1.379 -0.1020  0.3531 -0.0678
11544TIP3    H156047   2.649   4.277   1.395 -1.3992  0.6993  1.4482
11544TIP3    H256048   2.682   4.130   1.384  1.1204  1.4953 -2.7815
11545TIP3   OH256049   4.322   1.231   2.582  0.4436 -0.4693 -0.8846
11545TIP3    H156050   4.319   1.178   2.662 -1.7232  0.4995 -0.2878
11545TIP3    H256051   4.319   1.168   2.511  1.1065 -1.2802 -0.2100
11546TIP3   OH256052   3.002   3.829   2.936  0.0017  0.1175 -0.0316
11546TIP3    H156053   2.948   3.876   2.999 -0.0758 -1.0347  0.7827
11546TIP3    H256054   3.084   3.813   2.983  0.7546  1.1275 -0.9741
11547TIP3   OH256055   1.412   5.436   4.173 -0.5584  0.2808 -0.1573
11547TIP3    H156056   1.422   5.386   4.254 -1.7092  1.3062  0.6286
11547TIP3    H256057   1.501   5.464   4.151 -0.2742  0.2703  0.9354
11548TIP3   OH256058   3.965   3.348   4.356 -0.3257 -0.2306 -0.1397
11548TIP3    H156059   3.969   3.292   4.434 -0.0055  1.5052  1.1400
11548TIP3    H256060   3.875   3.340   4.325 -0.6958 -0.2951  0.9186
11549TIP3   OH256061   5.046   2.370   0.888 -0.3462  0.0144  0.1010
11549TIP3    H156062   5.106   2.337   0.955  3.0531  0.2696 -2.6534
11549TIP3    H256063   4.985   2.298   0.873  1.4953 -1.6783  0.4704
11550TIP3   OH256064   5.337   4.376   5.178 -0.4851  0.0110  0.1537
11550TIP3    H156065   5.291   4.459   5.165 -1.1622 -0.5031 -0.7564
11550TIP3    H256066   5.267   4.311   5.188  0.0086 -0.1531  3.0085
11551TIP3   OH256067   6.120   3.885   1.999  0.0813 -0.2195 -0.3288
11551TIP3    H156068   6.158   3.956   2.050 -0.1723 -1.2879  1.3954
11551TIP3    H256069   6.195   3.845   1.953  0.6215 -0.4536  0.7312
11552TIP3   OH256070   4.419   2.267  14.542  0.3756 -0.2228 -0.1439
11552TIP3    H156071   4.483   2.199  14.519 -1.5107 -1.7998 -0.9023
11552TIP3    H256072   4.405   2.257  14.636 -0.5134 -1.4766 -0.3946
11553TIP3   OH256073   3.886   6.389   1.600 -0.2023  0.1905 -0.4245
11553TIP3    H156074   3.851   6.311   1.643 -1.2323  0.8768  0.0034
11553TIP3    H256075   3.915   6.445   1.672 -0.1496  0.5155 -0.6987
11554TIP3   OH256076   3.684   6.894   1.348  0.2035 -0.4131  0.2312
11554TIP3    H156077   3.713   6.841   1.273 -0.0978 -0.0385 -0.1494
11554TIP3    H256078   3.692   6.984   1.318 -0.1456 -0.2694  0.5753
11555TIP3   OH256079   3.032   1.319   2.031  0.3615 -0.1979 -0.3403
11555TIP3    H156080   3.073   1.401   2.003 -0.0330  0.0039 -0.3312
11555TIP3    H256081   3.098   1.277   2.086 -0.2299  1.1413  1.4302
11556TIP3   OH256082   5.583   4.488   0.072 -0.0571 -0.2334 -0.8369
11556TIP3    H156083   5.597   4.530   0.157 -0.9857  0.2273 -0.9051
11556TIP3    H256084   5.529   4.550   0.024  2.4634  0.6288 -2.6754
11557TIP3   OH256085   4.351   5.784   3.578 -0.0005 -0.7315  0.0181
11557TIP3    H156086   4.289   5.750   3.642 -0.5983 -0.9439 -0.6619
11557TIP3    H256087   4.394   5.707   3.542 -0.8913 -0.7391 -1.0584
11558TIP3   OH256088   6.606   5.394   0.806  0.2023 -0.2277 -0.5354
11558TIP3    H156089   6.582   5.487   0.807 -1.2828 -0.5656 -2.2900
11558TIP3    H256090   6.688   5.391   0.758 -0.4707  0.0355 -1.7173
11559TIP3   OH256091   6.404   3.619  13.629  0.3645  0.5027  0.2798
11559TIP3    H156092   6.468   3.689  13.622  1.0132  0.1832  2.5441
11559TIP3    H256093   6.356   3.638  13.709 -2.1261  0.4939 -1.1467
11560TIP3   OH256094   6.638   3.301  14.831 -0.5436  0.4712 -0.2610
11560TIP3    H156095   6.727   3.268  14.821 -0.2630  0.3783  2.0888
11560TIP3    H256096   6.590   3.266  14.756  0.2866 -3.4888  0.9381
11561TIP3   OH256097   4.540   3.217  15.558  0.3814 -0.4740 -0.5783
11561TIP3    H156098   4.608   3.279  15.532 -0.2050  0.6855  0.6130
11561TIP3    H256099   4.580   3.164  15.627  0.4590 -0.5756 -0.7002
11562TIP3   OH256100   5.790   0.348  14.480 -0.6319  0.5951 -0.2593
11562TIP3    H156101   5.884   0.331  14.472  0.0847  2.9174  2.2374
11562TIP3    H256102   5.773   0.419  14.417 -1.4020 -1.8945 -2.9384
11563TIP3   OH256103   3.761   2.256   2.943 -0.4167 -0.1731  0.1445
11563TIP3    H156104   3.704   2.297   3.009  0.4082  0.5301  0.4322
11563TIP3    H256105   3.770   2.165   2.973 -1.9874 -0.4958 -0.3126
11564TIP3   OH256106   2.332   4.726   3.003 -0.2418 -0.1666  0.1579
11564TIP3    H156107   2.299   4.639   3.028 -0.8212 -0.0770 -0.2722
11564TIP3    H256108   2.292   4.786   3.066  0.5524 -0.2676  0.7606
11565TIP3   OH256109   3.095   2.431   0.035  0.4233 -0.5660  0.5838
11565TIP3    H156110   3.039   2.498   0.074  1.4064 -0.2087  1.3785
11565TIP3    H256111   3.043   2.350   0.042 -0.2010 -0.1458  0.8525
11566TIP3   OH256112   4.187   5.326   1.448 -0.3945 -0.0073  0.5468
11566TIP3    H156113   4.281   5.311   1.441 -0.5728 -0.2710 -1.6208
11566TIP3    H256114   4.151   5.242   1.477 -0.0558 -0.1904  0.4384
11567TIP3   OH256115   1.767   4.516   1.938  0.1776 -0.0770  0.4184
11567TIP3    H156116   1.842   4.544   1.885 -1.9605  1.0821 -2.1442
11567TIP3    H256117   1.750   4.590   1.996  0.5803 -0.0523  0.5045
11568TIP3   OH256118   2.910   1.158   1.825  0.0101  0.1902  0.0261
11568TIP3    H156119   2.962   1.215   1.881 -0.0820  0.2789  0.0210
11568TIP3    H256120   2.829   1.207   1.808 -1.0374 -0.8521  1.8615
11569TIP3   OH256121   4.976   5.929  13.566 -0.0452  0.4114 -0.4232
11569TIP3    H156122   5.009   5.952  13.653 -0.4253  1.0626 -0.4476
11569TIP3    H256123   5.028   5.853  13.540  0.5104  0.6086  0.1017
11570TIP3   OH256124   3.755   0.417   0.950 -0.2651 -0.0856 -0.3354
11570TIP3    H156125   3.842   0.382   0.968 -0.3598  0.7762  1.8807
11570TIP3    H256126   3.713   0.351   0.895  1.6571 -0.6685 -1.1276
11571TIP3   OH256127   5.449   2.954   0.331  0.9090  0.7532  0.3361
11571TIP3    H156128   5.478   2.989   0.247  1.0157 -0.2596 -0.0555
11571TIP3    H256129   5.368   2.908   0.312  1.3811 -0.2166  0.6145
11572TIP3   OH256130   2.520   0.554   1.914  0.1634  0.0435  0.1639
11572TIP3    H156131   2.505   0.632   1.967 -0.1430  0.6093 -0.7432
11572TIP3    H256132   2.613   0.534   1.925  0.3375  0.8032  0.0476
11573TIP3   OH256133   4.270   1.110   0.011 -0.1577  0.4061 -0.7871
11573TIP3    H156134   4.285   1.178   0.077  0.0628 -2.0274  1.8024
11573TIP3    H256135   4.352   1.103  -0.036  0.4108  0.7395  0.1371
11574TIP3   OH256136   4.645   0.475   2.404 -0.1574 -0.2281  0.3586
11574TIP3    H156137   4.549   0.469   2.409 -0.0778 -1.2006  0.8882
11574TIP3    H256138   4.662   0.556   2.357 -1.2138  1.0400  2.1376
11575TIP3   OH256139   5.586   1.255  14.370  0.8157  0.3579 -0.0308
11575TIP3    H156140   5.538   1.328  14.330 -2.1702 -0.8167  1.2289
11575TIP3    H256141   5.578   1.270  14.464 -0.5541 -1.9937  0.2608
11576TIP3   OH256142   3.938   2.726   0.787 -0.0375  0.2255  0.4535
11576TIP3    H156143   4.018   2.674   0.779 -0.0040  0.3575 -0.1059
11576TIP3    H256144   3.963   2.812   0.754 -0.3904  0.2847  0.3473
11577TIP3   OH256145   4.020   3.795   0.223  0.1808 -0.3590  0.0346
11577TIP3    H156146   3.951   3.774   0.286  1.3891 -1.6406  0.9747
11577TIP3    H256147   4.007   3.734   0.151  0.3888 -0.6764  0.2637
11578TIP3   OH256148   2.846   4.890   2.716  0.1325  0.6390  0.2940
11578TIP3    H156149   2.839   4.981   2.686 -1.3369  0.3395 -0.3384
11578TIP3    H256150   2.916   4.891   2.781  0.3541  2.1614  0.0526
11579TIP3   OH256151   6.384   1.778   0.727  0.7618 -0.1218 -0.3709
11579TIP3    H156152   6.445   1.737   0.666  0.2329  0.4560 -1.2875
11579TIP3    H256153   6.372   1.867   0.694 -1.3246 -0.5250 -0.7460
11580TIP3   OH256154   4.238   3.278   2.207 -0.0566  0.1953  0.4300
11580TIP3    H156155   4.279   3.318   2.130 -1.2567 -1.6428 -1.2010
11580TIP3    H256156   4.162   3.231   2.172 -0.2546 -1.1813  2.6460
11581TIP3   OH256157   5.890   1.393  14.142 -0.5459 -0.8797  0.2217
11581TIP3    H156158   5.823   1.379  14.076  0.0954  0.0484 -0.6526
11581TIP3    H256159   5.885   1.487  14.163 -0.0764 -0.9622  0.7426
11582TIP3   OH256160   2.838   6.747  14.168  0.5351 -0.0269 -0.3486
11582TIP3    H156161   2.785   6.739  14.089 -0.3425  0.6009  0.1666
11582TIP3    H256162   2.928   6.753  14.137  0.2516 -0.5270 -1.2614
11583TIP3   OH256163   2.010   4.643   4.101  0.4127 -0.5921 -0.2542
11583TIP3    H156164   1.955   4.617   4.028  1.1892 -0.4806 -0.8893
11583TIP3    H256165   2.061   4.717   4.067 -0.1434  0.2911  0.8049
11584TIP3   OH256166   2.355   2.323   2.924  0.3308 -0.0523 -0.4740
11584TIP3    H156167   2.271   2.295   2.889  0.0818 -1.1866  0.9889
11584TIP3    H256168   2.419   2.298   2.857 -0.5194  1.2544 -1.8137
11585TIP3   OH256169   5.313   3.557  15.418  0.0691  0.6018  0.0371
11585TIP3    H156170   5.291   3.636  15.468 -1.7092  1.3142 -1.8008
11585TIP3    H256171   5.404   3.571  15.391  0.7280  0.6476  2.2017
11586TIP3   OH256172   3.924   3.343   1.283  0.3575  0.3329  0.1475
11586TIP3    H156173   4.019   3.348   1.294  0.4512 -0.0522 -0.4492
11586TIP3    H256174   3.889   3.401   1.350  1.1307  3.2133 -1.8668
11587TIP3   OH256175   5.675   3.317  14.624 -0.6159 -0.3509 -0.2566
11587TIP3    H156176   5.595   3.340  14.671  0.0353  1.1149  0.1929
11587TIP3    H256177   5.658   3.231  14.587 -2.6523  0.2044 -0.7097
11588TIP3   OH256178   3.523   0.839  15.912  0.0505 -0.5417  0.0045
11588TIP3    H156179   3.578   0.899  15.964  0.4968 -2.2424  1.5410
11588TIP3    H256180   3.460   0.897  15.869 -0.9349  0.9080  3.1634
11589TIP3   OH256181   6.243   3.451  14.252 -0.0777 -0.4560  0.4906
11589TIP3    H156182   6.195   3.534  14.261  1.6194  0.7044 -0.7652
11589TIP3    H256183   6.260   3.443  14.158  0.9869 -1.5250  0.7572
11590TIP3   OH256184   3.607   2.976   1.988  0.0687 -0.0201  0.1313
11590TIP3    H156185   3.565   3.033   2.053  1.4418  1.3149 -0.1416
11590TIP3    H256186   3.644   2.904   2.039 -0.5974 -0.0323  0.6053
11591TIP3   OH256187   5.692   3.556   0.811 -0.1340  0.3131 -0.4277
11591TIP3    H156188   5.782   3.587   0.804 -0.4448  1.1902 -0.6893
11591TIP3    H256189   5.641   3.617   0.757 -1.3396  1.8704  2.3379
11592TIP3   OH256190   4.080   5.921  13.495  0.5566  0.2284 -0.6922
11592TIP3    H156191   4.047   5.989  13.437  0.6226  0.1141 -0.8632
11592TIP3    H256192   4.153   5.882  13.447  0.5496  0.0699 -0.5732
11593TIP3   OH256193   4.178   5.677   0.700  0.1645  0.4247 -0.3965
11593TIP3    H156194   4.255   5.669   0.757  0.1999  0.2986 -0.4629
11593TIP3    H256195   4.114   5.723   0.754 -1.0688 -2.8552  0.9992
11594TIP3   OH256196   7.293   3.299   1.939 -0.0507 -0.3120  0.2357
11594TIP3    H156197   7.341   3.217   1.943 -0.0243 -0.2382  1.9609
11594TIP3    H256198   7.239   3.292   1.861  0.7543 -1.5207 -0.2150
11595TIP3   OH256199   6.896   0.738   1.464  0.3602  0.3937  0.1691
11595TIP3    H156200   6.979   0.785   1.469 -0.5001  2.0224 -0.4764
11595TIP3    H256201   6.898   0.677   1.537  2.1088  0.4434  0.1712
11596TIP3   OH256202   3.692   2.868   3.769 -0.3332 -0.0742 -0.4032
11596TIP3    H156203   3.636   2.844   3.843 -0.9205  1.2246 -0.4142
11596TIP3    H256204   3.685   2.795   3.708 -2.5456  0.3646 -0.7059
11597TIP3   OH256205   6.219   1.597  12.668  0.4612 -0.3046  0.6962
11597TIP3    H156206   6.196   1.670  12.611 -0.8417  0.4224  2.1250
11597TIP3    H256207   6.149   1.533  12.655  1.3007 -1.0601 -0.1323
11598TIP3   OH256208   4.029   4.081   0.958 -0.5095  0.1986  0.2282
11598TIP3    H156209   4.015   4.166   0.915 -3.6968  1.4800  3.4750
11598TIP3    H256210   3.962   4.024   0.920  0.3235 -0.2731 -0.5232
11599TIP3   OH256211   2.389   0.645   3.486 -0.1429 -0.4213 -0.4194
11599TIP3    H156212   2.326   0.690   3.429  2.0364  0.8191 -1.8918
11599TIP3    H256213   2.473   0.653   3.441  1.2184 -1.4552  1.8527
11600TIP3   OH256214   3.610   4.721   2.230  0.1424  0.2188 -0.3234
11600TIP3    H156215   3.654   4.650   2.276 -0.9524  0.0469  0.4633
11600TIP3    H256216   3.595   4.787   2.297 -0.3944  0.4684 -0.6896
11601TIP3   OH256217   0.133   3.632   5.508 -0.0147 -0.4220 -0.5601
11601TIP3    H156218   0.137   3.624   5.413  1.1735 -1.3784 -0.4416
11601TIP3    H256219   0.210   3.585   5.539 -1.0486 -1.1578  0.9431
11602TIP3   OH256220   0.778   5.121  15.832  0.2918 -0.2279 -0.1791
11602TIP3    H156221   0.730   5.064  15.772 -0.3474  0.4876 -0.3457
11602TIP3    H256222   0.868   5.086  15.831  0.1161 -0.6574 -0.9952
11603TIP3   OH256223   6.241   2.301   3.805 -0.0536 -0.0023  0.1335
11603TIP3    H156224   6.324   2.281   3.761  0.5055  0.4354  0.9870
11603TIP3    H256225   6.190   2.349   3.739  0.5772  0.2018 -0.2083
11604TIP3   OH256226   5.179   3.358   0.132  0.0618  0.0913  0.0060
11604TIP3    H156227   5.175   3.429   0.196  0.1175  1.4320 -1.4421
11604TIP3    H256228   5.120   3.291   0.167  3.2383 -1.0279  3.5468
11605TIP3   OH256229   2.463   5.177   2.031 -0.4001  0.4420 -0.2579
11605TIP3    H156230   2.393   5.180   2.097 -1.1164 -0.3406 -0.9605
11605TIP3    H256231   2.489   5.268   2.019 -0.8909  0.6776  0.4490
11606TIP3   OH256232   2.325   5.439   4.582  0.4844 -0.7772 -0.1657
11606TIP3    H156233   2.319   5.376   4.654 -0.5760 -1.5559 -0.9341
11606TIP3    H256234   2.363   5.517   4.623 -0.4731 -1.0655  1.3329
11607TIP3   OH256235   3.670   6.749   3.252 -0.2318 -0.4361 -0.4345
11607TIP3    H156236   3.710   6.791   3.328  0.3692 -0.9330 -0.4704
11607TIP3    H256237   3.618   6.818   3.210 -0.2601 -0.0616  0.2095
11608TIP3   OH256238   3.636   1.671   3.406 -0.3480 -0.1733  0.6424
11608TIP3    H156239   3.676   1.630   3.482 -0.3782  0.2614  0.8992
11608TIP3    H256240   3.542   1.660   3.419 -0.3043 -2.0665 -0.4540
11609TIP3   OH256241   3.547   2.216   0.350  0.1115 -0.0240 -0.0178
11609TIP3    H156242   3.544   2.128   0.312 -0.3075 -0.2994  0.6351
11609TIP3    H256243   3.609   2.209   0.422  0.1607  0.2402 -0.0343
11610TIP3   OH256244   5.166   2.453   0.450  0.2423  0.0844  0.2019
11610TIP3    H156245   5.113   2.514   0.502 -0.0430 -0.4046  0.4870
11610TIP3    H256246   5.241   2.433   0.506  0.8709  0.9819 -0.3060
11611TIP3   OH256247   4.972   3.720   3.524  0.1105 -0.4127 -0.0708
11611TIP3    H156248   4.887   3.751   3.494 -0.7753 -1.9742  0.7248
11611TIP3    H256249   4.998   3.782   3.593 -1.2704 -0.9716  0.9772
11612TIP3   OH256250   2.412   0.738   4.043 -0.8012 -0.5235 -0.0865
11612TIP3    H156251   2.375   0.710   3.959 -1.9895 -1.4037  0.7032
11612TIP3    H256252   2.437   0.657   4.086  1.3233  0.0210 -0.2430
11613TIP3   OH256253   1.627   6.122   0.692 -0.3174 -0.3196 -0.0800
11613TIP3    H156254   1.701   6.113   0.751  1.4607 -1.0429 -2.3197
11613TIP3    H256255   1.595   6.211   0.706  0.6530 -0.1813  1.2970
11614TIP3   OH256256   1.714   4.348   2.548  0.4425  0.0495 -0.1137
11614TIP3    H156257   1.805   4.346   2.518  0.4203 -0.6100 -0.1400
11614TIP3    H256258   1.665   4.299   2.482  0.1163  0.1358  0.0611
11615TIP3   OH256259   4.108   3.857   1.123 -0.0124  0.3111 -0.5446
11615TIP3    H156260   4.088   3.947   1.096  1.6734  0.2216 -2.2148
11615TIP3    H256261   4.025   3.810   1.114 -1.1331  1.8886  1.2443
11616TIP3   OH256262   3.063   0.703   2.572 -0.3169 -0.1742  0.0693
11616TIP3    H156263   3.007   0.764   2.620  1.1864  1.1505  0.1862
11616TIP3    H256264   3.057   0.731   2.481 -0.2589 -0.3559  0.0089
11617TIP3   OH256265   5.117   2.453   2.588 -0.2948  0.1440 -0.3182
11617TIP3    H156266   5.185   2.521   2.592 -0.6758  0.5704 -0.9436
11617TIP3    H256267   5.054   2.486   2.524 -0.9266 -0.4033  0.0149
11618TIP3   OH256268   4.640   1.541  14.599 -0.3798 -0.9386 -0.4838
11618TIP3    H156269   4.725   1.520  14.638 -0.4454 -0.6442 -0.1808
11618TIP3    H256270   4.653   1.626  14.557 -0.8067 -0.3905  0.4640
11619TIP3   OH256271   4.425   3.419   1.706 -0.2109  0.1476 -0.5340
11619TIP3    H156272   4.414   3.389   1.797 -3.9902 -2.3981 -1.7226
11619TIP3    H256273   4.440   3.338   1.656  1.7717  1.5214 -2.2540
11620TIP3   OH256274   3.733   5.019   1.523 -0.0831 -0.1706  0.4635
11620TIP3    H156275   3.767   4.961   1.455 -1.5219 -2.4426  1.6025
11620TIP3    H256276   3.646   4.985   1.542 -1.0497  2.5147  1.0600
11621TIP3   OH256277   3.414   6.864   2.503  0.4630  0.2478  0.2210
11621TIP3    H156278   3.458   6.788   2.463 -0.9450 -0.1121 -0.6666
11621TIP3    H256279   3.403   6.839   2.595  3.6236  1.0339  0.8920
11622TIP3   OH256280   3.641   6.649   0.344 -0.1953 -0.1333  0.5462
11622TIP3    H156281   3.562   6.602   0.372 -1.8802  0.3116 -3.1493
11622TIP3    H256282   3.701   6.580   0.317 -0.0494 -0.4026  1.5403
11623TIP3   OH256283   5.788   0.252   0.614  0.6157 -0.3832 -0.3729
11623TIP3    H156284   5.757   0.162   0.606 -0.2769 -0.2122  1.0314
11623TIP3    H256285   5.828   0.257   0.700  3.7880 -0.3274 -1.7933
11624TIP3   OH256286   5.116   4.092   0.518 -0.2749  0.1013  0.4704
11624TIP3    H156287   5.074   4.125   0.438  0.7274 -0.4795 -0.3199
11624TIP3    H256288   5.112   4.164   0.580 -1.1670  0.5260 -0.0708
11625TIP3   OH256289   7.122   0.022   2.995 -0.2038 -0.0888  0.3399
11625TIP3    H156290   7.168   0.103   2.973  1.3796 -1.7596 -2.9246
11625TIP3    H256291   7.191  -0.039   3.020 -1.1539 -1.0633  0.6321
11626TIP3   OH256292   2.895   6.195   4.097  0.2475  0.4009  0.0770
11626TIP3    H156293   2.801   6.206   4.105  0.0304 -0.0867 -1.5673
11626TIP3    H256294   2.932   6.278   4.129 -0.6292 -0.1012  2.4813
11627TIP3   OH256295   6.740   3.488   0.073 -0.3715  0.5406 -0.0727
11627TIP3    H156296   6.780   3.409   0.109  0.4895  1.5764  1.3161
11627TIP3    H256297   6.651   3.487   0.109 -0.2498  0.3831  0.2291
11628TIP3   OH256298   6.069   3.749  15.632  0.1195  0.2109 -0.2177
11628TIP3    H156299   6.151   3.737  15.586 -0.0481  1.4070 -0.8629
11628TIP3    H256300   6.082   3.831  15.681 -0.4675  0.0863  0.1464
11629TIP3   OH256301   6.689   1.009   0.310  0.0094  0.1730 -0.1107
11629TIP3    H156302   6.674   1.036   0.219 -1.0803  2.2781  0.6461
11629TIP3    H256303   6.717   0.918   0.304  0.2891  0.3804 -2.5774
11630TIP3   OH256304   4.544   1.439  15.974  0.0345  0.1240  0.0890
11630TIP3    H156305   4.521   1.482  16.056 -0.0580 -0.1673  0.2172
11630TIP3    H256306   4.460   1.428  15.928  0.1108  0.4728 -0.1364
11631TIP3   OH256307   3.255   1.707   0.950  0.2430 -0.0505  0.0037
11631TIP3    H156308   3.288   1.662   1.028  0.3612  0.6976  0.3917
11631TIP3    H256309   3.160   1.699   0.956  0.3467 -3.1305 -1.6652
11632TIP3   OH256310   2.090   1.649   3.192  0.0003 -0.8553  0.7272
11632TIP3    H156311   2.138   1.569   3.171  1.6667  0.9767 -2.7037
11632TIP3    H256312   2.152   1.703   3.241 -0.0637 -0.3437  0.2493
11633TIP3   OH256313   3.634   3.180   2.852 -0.1451 -0.3672 -0.0817
11633TIP3    H156314   3.559   3.212   2.802  1.1148 -0.7569 -2.2932
11633TIP3    H256315   3.600   3.104   2.899 -1.5063  0.3610  0.1474
11634TIP3   OH256316   4.180   2.933   0.994 -0.1709 -0.0780 -0.1685
11634TIP3    H156317   4.247   3.001   1.001 -0.4161  0.0937  0.5154
11634TIP3    H256318   4.165   2.924   0.900 -0.8982  1.5519 -0.2206
11635TIP3   OH256319   0.227   2.012   2.263 -0.5657  0.3471 -0.1854
11635TIP3    H156320   0.276   2.067   2.324 -1.8370  0.5393  0.6678
11635TIP3    H256321   0.240   2.053   2.178 -0.2768  1.1111  0.2266
11636TIP3   OH256322   4.935   3.568   1.072 -0.2484  0.4033 -0.6405
11636TIP3    H156323   4.839   3.560   1.066 -0.4778  1.9314  0.4577
11636TIP3    H256324   4.951   3.577   1.166  0.9384  0.6054 -0.8651
11637TIP3   OH256325   3.464   3.680   2.914  0.2690 -0.0401 -0.2634
11637TIP3    H156326   3.380   3.643   2.888 -0.1493  0.3495  0.5029
11637TIP3    H256327   3.518   3.675   2.835 -0.7743  0.5703 -1.0331
11638TIP3   OH256328   1.468   3.210   1.617 -0.2596  0.1101 -0.0040
11638TIP3    H156329   1.468   3.289   1.671 -0.9257  0.8588 -1.0906
11638TIP3    H256330   1.537   3.155   1.655 -0.6949  0.6378  1.5727
11639TIP3   OH256331   2.095   2.032   3.985  0.0487  0.5844 -0.0148
11639TIP3    H156332   2.064   2.025   4.075 -0.6800 -0.2156 -0.3190
11639TIP3    H256333   2.183   2.069   3.993  0.1783  0.0739  1.0542
11640TIP3   OH256334   3.951   1.111   2.289 -0.6172 -0.3821  0.3180
11640TIP3    H156335   3.914   1.155   2.366 -1.3395 -0.6994  0.1634
11640TIP3    H256336   4.005   1.178   2.247 -1.3696  0.2404  0.3199
11641TIP3   OH256337   3.226   6.383   0.391 -0.1785  0.1824  0.9327
11641TIP3    H156338   3.208   6.361   0.299  1.6392 -0.8696  0.7955
11641TIP3    H256339   3.169   6.457   0.410  0.2214  1.1101 -1.3817
11642TIP3   OH256340   5.484   0.046   0.424  0.0761  0.3789 -0.0778
11642TIP3    H156341   5.426   0.073   0.496  2.2336  1.5152  1.3042
11642TIP3    H256342   5.569   0.035   0.466  1.4254  1.2673 -2.5043
11643TIP3   OH256343   4.260   1.560   5.125 -0.0515  0.4298  0.2359
11643TIP3    H156344   4.310   1.622   5.178  0.3151 -0.2726  0.7186
11643TIP3    H256345   4.288   1.575   5.035  3.0614 -1.8256  0.7645
11644TIP3   OH256346   5.148   0.940   0.914  0.2741  0.3808  0.1642
11644TIP3    H156347   5.199   0.892   0.849  0.2926  1.3731 -0.5646
11644TIP3    H256348   5.181   1.029   0.910 -0.3355  0.6488  0.9109
11645TIP3   OH256349   5.597   0.409   1.459  0.5023 -0.1331 -0.1642
11645TIP3    H156350   5.555   0.369   1.383 -1.4712  0.9149  0.3341
11645TIP3    H256351   5.559   0.363   1.534 -0.4131  1.3949  0.3287
11646TIP3   OH256352   4.848   2.236  15.262  0.6250 -0.0002  0.2332
11646TIP3    H156353   4.910   2.235  15.190  0.1009 -2.8100 -0.2468
11646TIP3    H256354   4.762   2.238  15.221  0.2902 -3.0718  0.6880
11647TIP3   OH256355   3.010   5.846   2.317 -0.1663 -0.6932  0.0172
11647TIP3    H156356   3.010   5.772   2.256 -1.0093 -1.7571  1.2661
11647TIP3    H256357   3.023   5.805   2.403  1.3626  0.8069  0.5184
11648TIP3   OH256358   6.244   4.594   4.119  0.4567  0.5923 -0.3479
11648TIP3    H156359   6.169   4.638   4.158 -0.1069 -0.7185  0.0808
11648TIP3    H256360   6.316   4.657   4.127 -0.1840  1.1946  0.8038
11649TIP3   OH256361   6.512   1.678   0.140  0.2738 -0.5115  0.1719
11649TIP3    H156362   6.495   1.629   0.221 -0.0732 -0.9181 -0.1435
11649TIP3    H256363   6.591   1.637   0.104  0.1753 -0.6206  0.0794
11650TIP3   OH256364   5.470   5.880   1.054  0.1438  0.4218 -0.1075
11650TIP3    H156365   5.405   5.950   1.049 -0.1740  0.2325  1.2175
11650TIP3    H256366   5.551   5.924   1.078 -0.2138  0.2644  1.4495
11651TIP3   OH256367   2.461   3.894  14.632  0.6514  0.1417 -0.2802
11651TIP3    H156368   2.390   3.842  14.594 -0.1333  1.2136 -0.2891
11651TIP3    H256369   2.522   3.828  14.667 -1.0496 -0.7918  1.0318
11652TIP3   OH256370   4.469   2.628   1.018 -0.2513 -0.3559  0.7487
11652TIP3    H156371   4.503   2.545   1.051  1.1327 -0.0876  0.0516
11652TIP3    H256372   4.403   2.602   0.953  0.0331 -0.9021  0.6718
11653TIP3   OH256373   6.200   3.446   0.153 -0.0191 -0.5596  0.2744
11653TIP3    H156374   6.147   3.404   0.221 -0.3253  0.4190  0.6393
11653TIP3    H256375   6.147   3.441   0.074 -0.8483  0.7983  0.7318
11654TIP3   OH256376   3.730   3.906   1.931  0.1067 -0.1708  0.1192
11654TIP3    H156377   3.673   3.974   1.897 -2.8907 -1.3953  2.5013
11654TIP3    H256378   3.734   3.840   1.861 -0.5281  0.4181 -0.4723
11655TIP3   OH256379   1.194   3.591  12.243  0.3632  0.6162 -0.6829
11655TIP3    H156380   1.160   3.669  12.285 -0.0640  0.3002 -0.4473
11655TIP3    H256381   1.287   3.591  12.265  0.2972  0.8715 -0.3998
11656TIP3   OH256382   3.061   4.560   3.486 -0.2073 -0.1104  0.6856
11656TIP3    H156383   3.069   4.545   3.392 -2.6448 -1.0448  0.5981
11656TIP3    H256384   3.124   4.630   3.504  0.5780 -0.1834 -1.5491
11657TIP3   OH256385   0.391   6.372  12.398  0.1611  0.5349 -0.4277
11657TIP3    H156386   0.329   6.419  12.341  0.4646  2.5272  0.8677
11657TIP3    H256387   0.394   6.423  12.478  1.4879 -1.0206  0.5454
11658TIP3   OH256388   2.474   7.175  14.548  0.1345  0.1170  0.0245
11658TIP3    H156389   2.407   7.120  14.509 -0.5924 -0.0343  1.4658
11658TIP3    H256390   2.499   7.131  14.629  1.4010  0.5845 -0.0855
11659TIP3   OH256391   2.891   0.186   2.217 -0.2676  0.1360 -0.7134
11659TIP3    H156392   2.843   0.265   2.244  0.7716  1.2591 -2.0414
11659TIP3    H256393   2.884   0.127   2.291 -1.7731  1.1629 -0.0037
11660TIP3   OH256394   6.367   2.813  14.292  0.4117 -0.1354  0.0409
11660TIP3    H156395   6.373   2.776  14.204  0.9958  0.8395 -0.3319
11660TIP3    H256396   6.447   2.785  14.336 -0.9438 -2.5865  1.0402
11661TIP3   OH256397   5.928   7.053   2.144  0.0669 -0.7299  0.2147
11661TIP3    H156398   5.838   7.024   2.131 -0.0355  0.5533 -1.9988
11661TIP3    H256399   5.977   7.016   2.070  1.1464 -0.3966  0.7414
11662TIP3   OH256400   6.082   3.182  15.380 -0.3007 -0.2642  0.6680
11662TIP3    H156401   6.139   3.147  15.312  1.0258  1.5303  0.8067
11662TIP3    H256402   6.000   3.202  15.334  0.6427  1.1113 -0.4948
11663TIP3   OH256403   3.156   3.495   3.610 -0.0298  0.3703 -0.1178
11663TIP3    H156404   3.147   3.580   3.567 -0.7846  0.7259  0.7380
11663TIP3    H256405   3.091   3.496   3.680  2.5393  0.6261  2.3803
11664TIP3   OH256406   3.764   2.611  13.952  0.0394  0.5392  0.0277
11664TIP3    H156407   3.759   2.578  14.042  0.9566  0.1182 -0.0698
11664TIP3    H256408   3.801   2.699  13.961 -0.6816  0.8315  0.1356
11665TIP3   OH256409   3.319   4.507   2.957 -0.1382 -0.6798 -0.1915
11665TIP3    H156410   3.372   4.437   2.995 -0.8299 -0.2887  1.5713
11665TIP3    H256411   3.229   4.483   2.980 -0.3165  1.2390  1.2338
11666TIP3   OH256412   3.001   5.894   1.020 -0.2101  0.2237  0.2047
11666TIP3    H156413   3.073   5.846   1.060 -0.1605  1.7614  1.9878
11666TIP3    H256414   2.976   5.840   0.945  1.3724 -1.4019  0.8064
11667TIP3   OH256415   5.929   1.188   2.042 -0.1267 -0.7108 -0.3463
11667TIP3    H156416   5.834   1.190   2.034 -0.2812  0.5869  1.4236
11667TIP3    H256417   5.960   1.243   1.970 -0.7593 -0.4344 -0.4121
11668TIP3   OH256418   7.278   0.850   0.483  0.0129  0.7276  0.6443
11668TIP3    H156419   7.248   0.899   0.407 -2.0790 -1.6877 -0.1747
11668TIP3    H256420   7.235   0.892   0.558 -2.0159  0.0193 -0.0777
11669TIP3   OH256421   4.447   2.254  13.415  0.3397 -0.3641  0.7890
11669TIP3    H156422   4.405   2.191  13.358  0.1060  0.3488  0.1659
11669TIP3    H256423   4.486   2.318  13.356  1.3039 -0.3891  1.3888
11670TIP3   OH256424   5.797   3.771   4.497  0.6698 -0.2138  0.4614
11670TIP3    H156425   5.854   3.840   4.463  1.5465 -0.8520  0.6017
11670TIP3    H256426   5.738   3.751   4.424  0.2293  0.8700  0.5175
11671TIP3   OH256427   5.851   3.201   4.337  0.0066  0.0048  0.1592
11671TIP3    H156428   5.928   3.167   4.292  0.5042  1.6547 -0.2855
11671TIP3    H256429   5.800   3.244   4.268  0.3426  1.7985  1.0026
11672TIP3   OH256430   1.681   2.448  15.793  0.3625  0.0746 -0.6254
11672TIP3    H156431   1.685   2.417  15.883  1.1504 -0.3788 -0.8106
11672TIP3    H256432   1.772   2.460  15.767  0.1399  0.2946 -1.3346
11673TIP3   OH256433   5.004   4.723  11.536 -0.1383 -0.4508  0.3118
11673TIP3    H156434   4.962   4.652  11.487 -2.0201  1.8546 -1.5449
11673TIP3    H256435   4.948   4.737  11.612 -1.2274  0.7530 -0.6937
11674TIP3   OH256436   4.715   4.134   2.276 -0.0876 -0.7365  0.0006
11674TIP3    H156437   4.804   4.126   2.310 -0.3532  1.5435  1.3142
11674TIP3    H256438   4.660   4.142   2.354 -1.0923  1.0114 -0.8708
11675TIP3   OH256439   5.166   1.908   2.684  0.1875  0.1817  0.2662
11675TIP3    H156440   5.213   1.864   2.755 -1.0097 -0.6023  0.5898
11675TIP3    H256441   5.103   1.964   2.728  0.3580  0.7278 -0.1732
11676TIP3   OH256442   4.405   6.343   2.249  0.1664  0.2485 -0.1383
11676TIP3    H156443   4.481   6.375   2.201 -1.2069  0.6479 -2.1154
11676TIP3    H256444   4.372   6.420   2.295  0.1558  0.4001 -0.3962
11677TIP3   OH256445   3.443   0.186  15.046 -0.5691  0.2249 -0.2739
11677TIP3    H156446   3.518   0.169  14.990 -0.2130 -0.1709  0.3213
11677TIP3    H256447   3.375   0.128  15.013 -0.0335 -0.7739  0.3745
11678TIP3   OH256448   6.441   3.908   1.807 -0.5332 -0.3924 -0.3983
11678TIP3    H156449   6.528   3.884   1.774 -0.8141 -0.3023 -1.2221
11678TIP3    H256450   6.434   3.864   1.891  0.7765  0.5177  0.2175
11679TIP3   OH256451   7.297   1.636  15.708 -0.2711  0.3575  0.0130
11679TIP3    H156452   7.327   1.616  15.797  0.1930 -0.2215 -0.2712
11679TIP3    H256453   7.216   1.586  15.698 -1.9100  2.6649  1.1215
11680TIP3   OH256454   0.350   2.498  13.887  0.2242  0.2273 -0.1213
11680TIP3    H156455   0.398   2.417  13.902 -2.2033 -1.0668  1.1060
11680TIP3    H256456   0.416   2.561  13.860  2.5150 -1.5663  1.1105
11681TIP3   OH256457   3.720   1.677  15.066 -0.2559 -0.1306  0.7740
11681TIP3    H156458   3.726   1.725  14.983 -0.8810 -2.5281 -0.7164
11681TIP3    H256459   3.705   1.745  15.132  1.0572  1.9056 -0.9498
11682TIP3   OH256460   1.476   5.854   0.945 -0.4640  0.2754 -0.6544
11682TIP3    H156461   1.383   5.877   0.944 -0.4996  0.0954 -1.7069
11682TIP3    H256462   1.479   5.762   0.920  0.0352  0.4289 -1.1735
11683TIP3   OH256463   5.933   4.174  14.188  0.2188 -0.1554  0.1187
11683TIP3    H156464   5.991   4.238  14.147 -0.0678  0.4985  0.7258
11683TIP3    H256465   5.920   4.107  14.121 -1.1941  1.4927 -1.2745
11684TIP3   OH256466   1.547   2.320   1.378 -0.3787  0.4696  0.2295
11684TIP3    H156467   1.538   2.414   1.361 -1.0088  0.5478  0.9303
11684TIP3    H256468   1.482   2.279   1.322 -1.9639  0.6722  1.8665
11685TIP3   OH256469   1.887   1.709   2.846  0.3354 -0.1218 -0.1714
11685TIP3    H156470   1.976   1.677   2.863  0.6124  1.0821  0.7848
11685TIP3    H256471   1.856   1.738   2.932 -0.5128  0.6126 -0.7199
11686TIP3   OH256472   2.787   3.698  13.166  0.3867  0.9136 -0.0190
11686TIP3    H156473   2.827   3.638  13.103  0.6030  1.0433 -0.0077
11686TIP3    H256474   2.856   3.761  13.185  0.1859  1.1194  0.0289
11687TIP3   OH256475   5.626   4.662   3.333  0.4248 -0.3961 -0.3822
11687TIP3    H156476   5.667   4.578   3.352  1.2405  0.0773 -0.0231
11687TIP3    H256477   5.578   4.684   3.413  1.6220  0.2925  0.1612
11688TIP3   OH256478   5.072   0.654   1.880 -0.2396 -0.4813  0.9243
11688TIP3    H156479   5.093   0.579   1.825 -2.1280 -1.7956  1.9358
11688TIP3    H256480   5.050   0.616   1.965 -1.4197  1.1991  1.4019
11689TIP3   OH256481   2.913   1.625   3.030  0.2488 -0.1964 -0.2387
11689TIP3    H156482   2.987   1.621   2.969  0.7526 -1.1211  0.4392
11689TIP3    H256483   2.879   1.714   3.020  1.2162  0.1089 -0.8205
11690TIP3   OH256484   3.816   2.840   1.051  0.8254 -0.0015  0.2388
11690TIP3    H156485   3.876   2.904   1.089 -0.6139  0.6285  1.4839
11690TIP3    H256486   3.869   2.792   0.988  2.2545  1.5460  0.2420
11691TIP3   OH256487   5.138   5.322  15.726 -0.0278 -0.4444  0.1069
11691TIP3    H156488   5.204   5.345  15.791  0.6635  0.1583 -0.7832
11691TIP3    H256489   5.056   5.314  15.775  0.6651 -0.9301  1.1770
11692TIP3   OH256490   6.209   3.902   1.638  0.1385 -0.0026 -0.0898
11692TIP3    H156491   6.265   3.936   1.708 -0.0841 -0.8314  0.4878
11692TIP3    H256492   6.189   3.980   1.585 -0.8490  0.8940  1.5524
11693TIP3   OH256493   1.233   6.074   2.566 -0.3033 -0.0082 -0.6079
11693TIP3    H156494   1.300   6.113   2.622 -2.5713  1.9946  0.7845
11693TIP3    H256495   1.282   6.038   2.492  2.5004 -0.4325  1.3718
11694TIP3   OH256496   2.883   6.150   0.713 -0.2269  0.1221  0.1024
11694TIP3    H156497   2.977   6.131   0.714 -0.4618 -1.0926 -0.3403
11694TIP3    H256498   2.864   6.182   0.801  1.2377  3.6055 -0.7294
11695TIP3   OH256499   3.855   1.374   1.533 -0.7417 -0.0029 -0.2061
11695TIP3    H156500   3.858   1.289   1.489  0.1655 -0.0819  0.0051
11695TIP3    H256501   3.934   1.376   1.588 -1.2960  0.5432  0.5847
11696TIP3   OH256502   4.902   2.806   4.607 -0.0303 -0.7232  0.3223
11696TIP3    H156503   4.935   2.757   4.682 -1.8244 -1.4333  0.6899
11696TIP3    H256504   4.857   2.881   4.646 -0.8183 -1.0065 -0.0182
11697TIP3   OH256505   3.031   6.235   1.903  0.1994 -0.0013  0.5536
11697TIP3    H156506   3.004   6.195   1.985  0.6289  0.2540  0.8207
11697TIP3    H256507   3.080   6.167   1.857 -0.0464 -0.1449  0.5046
11698TIP3   OH256508   5.904   6.843   0.163  0.9349  0.2456 -0.1355
11698TIP3    H156509   5.841   6.901   0.206  1.0390  1.2102 -1.2705
11698TIP3    H256510   5.870   6.831   0.075  2.0658  0.3429 -0.5906
11699TIP3   OH256511   5.250   0.952   0.492 -0.2023  0.1258  0.8599
11699TIP3    H156512   5.158   0.973   0.508  0.3186  1.7701  1.8500
11699TIP3    H256513   5.276   0.901   0.569 -0.9532 -2.6875 -0.6552
11700TIP3   OH256514   4.075   1.985   0.057  0.0078 -0.8533 -0.5060
11700TIP3    H156515   4.042   2.054   0.114  3.2803  0.8003 -0.5009
11700TIP3    H256516   4.000   1.962   0.001 -1.9031  0.7432  1.3096
11701TIP3   OH256517   2.993   5.722   3.792  0.1057 -0.4219  0.1931
11701TIP3    H156518   2.972   5.810   3.825  1.6678 -0.2956  0.8697
11701TIP3    H256519   3.063   5.735   3.729  1.5439 -1.3368  1.5541
11702TIP3   OH256520   0.132   3.657   1.359 -0.4602  0.0216  0.3386
11702TIP3    H156521   0.171   3.570   1.364 -1.7018 -0.5116  0.8628
11702TIP3    H256522   0.104   3.676   1.448  1.1081  1.5884  0.5299
11703TIP3   OH256523   2.338   2.230   1.815  0.0973 -0.3833 -0.2832
11703TIP3    H156524   2.327   2.195   1.726 -0.4363 -1.8428  0.3324
11703TIP3    H256525   2.413   2.289   1.809 -0.8349  0.6639 -2.0169
11704TIP3   OH256526   7.123   2.388   0.997 -0.3677 -0.8025 -0.3763
11704TIP3    H156527   7.092   2.470   0.958 -0.6068 -0.4021  0.6345
11704TIP3    H256528   7.216   2.385   0.976 -0.5593 -0.7662 -1.2669
11705TIP3   OH256529   5.793   0.428   4.344 -0.3215  0.0356  0.3852
11705TIP3    H156530   5.815   0.421   4.251  1.7786  2.1961  0.6751
11705TIP3    H256531   5.697   0.432   4.346 -0.5278 -2.9249 -1.4404
11706TIP3   OH256532   3.792   3.145   2.309 -0.0592 -0.2929 -0.0006
11706TIP3    H156533   3.724   3.123   2.245  0.7347  0.2930 -1.0599
11706TIP3    H256534   3.836   3.221   2.271 -0.7935  1.2314  2.1332
11707TIP3   OH256535   4.774   5.356   2.275 -0.1918 -0.1513  0.8496
11707TIP3    H156536   4.843   5.290   2.269  1.2969  1.4079  0.2283
11707TIP3    H256537   4.753   5.378   2.184  1.3396  2.2257  1.0273
11708TIP3   OH256538   3.957   2.700  15.902 -0.3458 -0.0414 -0.2960
11708TIP3    H156539   4.027   2.636  15.911 -0.2209  0.0281 -0.7488
11708TIP3    H256540   3.951   2.742  15.987 -0.3114 -0.5367 -0.0481
11709TIP3   OH256541   6.485   4.127   0.005  0.6338 -0.7723 -0.0764
11709TIP3    H156542   6.403   4.081   0.016 -0.0643  0.5496  0.4557
11709TIP3    H256543   6.552   4.059   0.003 -0.4224 -1.8139  0.0968
11710TIP3   OH256544   5.169   3.198  15.834  0.1391 -0.4219  0.0956
11710TIP3    H156545   5.237   3.157  15.781  1.6659 -0.4041  1.9740
11710TIP3    H256546   5.168   3.289  15.805 -0.5217 -0.8838 -1.3539
11711TIP3   OH256547   7.079   3.550  14.846  0.1146  0.1005  0.1391
11711TIP3    H156548   7.047   3.557  14.756  0.6041  1.4633  0.0541
11711TIP3    H256549   7.157   3.605  14.849 -0.2274  0.5538  1.5402
11712TIP3   OH256550   1.447   6.431   0.038 -0.1172 -0.0343 -0.4294
11712TIP3    H156551   1.533   6.453   0.004 -0.3174  0.5189 -0.5829
11712TIP3    H256552   1.421   6.353  -0.011  0.1507 -0.0039 -0.6212
11713TIP3   OH256553   4.596   2.722   2.843 -0.1996 -0.2951  0.6926
11713TIP3    H156554   4.516   2.723   2.790 -0.4958 -0.2927  1.1371
11713TIP3    H256555   4.667   2.729   2.780 -0.5870  0.6103  0.3567
11714TIP3   OH256556   0.854   3.508  14.831  0.7147 -0.0257  0.2498
11714TIP3    H156557   0.770   3.550  14.815 -0.1670 -1.9345 -0.3052
11714TIP3    H256558   0.850   3.479  14.922  1.1498  0.6864  0.5017
11715TIP3   OH256559   2.314   3.331  15.915  0.3270  0.3143  0.2487
11715TIP3    H156560   2.235   3.345  15.864 -0.3806  0.5941  1.4099
11715TIP3    H256561   2.287   3.341  16.006  1.6400  0.1593  0.6776
11716TIP3   OH256562   4.200   1.691   0.422 -0.0976  1.0443  0.0475
11716TIP3    H156563   4.290   1.705   0.450  0.0127  0.8906 -0.2355
11716TIP3    H256564   4.197   1.724   0.332 -0.7172  2.5433  0.5970
11717TIP3   OH256565   4.757   4.515  15.073  0.1151 -0.2866 -0.3970
11717TIP3    H156566   4.807   4.593  15.048 -0.7832 -0.2114 -2.0859
11717TIP3    H256567   4.809   4.442  15.040 -0.8577 -0.2054 -2.2214
11718TIP3   OH256568   4.797   3.963   0.410  0.3794  0.5752 -0.6018
11718TIP3    H156569   4.748   4.039   0.443  0.8073  0.1663  1.0286
11718TIP3    H256570   4.815   3.984   0.318 -0.2027  2.0892 -0.3865
11719TIP3   OH256571   6.445   1.861  15.940  0.1212  0.1757  0.2792
11719TIP3    H156572   6.467   1.807  16.016  0.0860  0.4059  0.4517
11719TIP3    H256573   6.362   1.824  15.908  0.1301  0.0859  0.3578
11720TIP3   OH256574   1.447   1.061   2.247 -0.7017  0.2441 -0.0130
11720TIP3    H156575   1.447   1.146   2.293 -5.0437 -0.3562  1.2913
11720TIP3    H256576   1.387   1.073   2.174 -0.4667 -1.3770 -0.4871
11721TIP3   OH256577   5.107   3.178   1.216  0.1365  0.4589 -0.3562
11721TIP3    H156578   5.199   3.190   1.190  0.1155 -1.5970 -1.4746
11721TIP3    H256579   5.097   3.235   1.292  2.0669  1.4828 -0.8071
11722TIP3   OH256580   1.077   5.686   1.346  0.2379 -0.2700  0.0332
11722TIP3    H156581   1.172   5.695   1.339  0.3543 -0.5730  1.0522
11722TIP3    H256582   1.053   5.627   1.274  0.8292 -0.2096 -0.2129
11723TIP3   OH256583   6.833   4.376  15.607 -0.3598  0.0142 -0.5294
11723TIP3    H156584   6.779   4.307  15.646 -1.2172 -1.1331 -3.5759
11723TIP3    H256585   6.921   4.339  15.602 -0.4878 -0.2635 -0.7198
11724TIP3   OH256586   5.395   6.871   2.799 -0.3524  0.3848  0.1449
11724TIP3    H156587   5.454   6.799   2.822 -0.1844  0.9992  1.6576
11724TIP3    H256588   5.341   6.835   2.729  0.8333 -0.6691 -0.2548
11725TIP3   OH256589   1.614   2.734  15.884 -0.1002  0.2172  0.7483
11725TIP3    H156590   1.658   2.679  15.820 -2.2827  0.7587 -1.2975
11725TIP3    H256591   1.633   2.694  15.969  1.4377 -1.4856 -0.3831
11726TIP3   OH256592   1.077   0.148   2.617 -0.3541 -0.0771 -0.0021
11726TIP3    H156593   1.013   0.203   2.663 -2.0277 -1.8543 -0.1181
11726TIP3    H256594   1.097   0.195   2.537  0.5494  1.7809  1.2795
11727TIP3   OH256595   1.325   1.653  15.124 -0.1831  0.4839  0.0526
11727TIP3    H156596   1.377   1.701  15.189 -0.2939  1.7328 -0.7598
11727TIP3    H256597   1.261   1.604  15.175  1.2642 -0.4272  1.0197
11728TIP3   OH256598   6.598   3.245  14.213  0.1440 -0.1615  0.0578
11728TIP3    H156599   6.535   3.203  14.272 -1.0677  1.9442  0.2983
11728TIP3    H256600   6.576   3.211  14.126 -0.1304 -0.8325  0.3904
11729TIP3   OH256601   6.050   1.012   1.106 -1.0845  0.2655  0.5104
11729TIP3    H156602   5.999   0.993   1.184 -0.0596  0.5974  1.2615
11729TIP3    H256603   6.060   1.107   1.105  1.2523  0.0728  1.4884
11730TIP3   OH256604   3.395   6.912   1.007  0.2954  0.2526  0.5545
11730TIP3    H156605   3.363   6.827   0.976 -0.9474  0.9667 -0.1198
11730TIP3    H256606   3.472   6.930   0.952 -2.6093  2.1020 -3.1080
11731TIP3   OH256607   6.881   6.491   1.511 -0.1410  0.0327 -0.0272
11731TIP3    H156608   6.925   6.411   1.483  0.2309 -0.5405  2.1147
11731TIP3    H256609   6.952   6.547   1.543 -0.5884  0.5349  0.0946
11732TIP3   OH256610   1.744   4.906   1.087  0.3309  0.4492 -0.1184
11732TIP3    H156611   1.740   4.966   1.012 -0.3193 -1.1897 -1.4379
11732TIP3    H256612   1.833   4.915   1.121  0.8423  0.7431 -1.5149
11733TIP3   OH256613   5.428   3.165   1.440 -0.1740 -0.0826 -0.2045
11733TIP3    H156614   5.343   3.139   1.475 -0.2016 -1.0529 -0.9760
11733TIP3    H256615   5.411   3.187   1.348  0.8451 -2.8257 -1.0960
11734TIP3   OH256616   4.257   3.602   0.944 -0.2979 -0.5344 -0.1895
11734TIP3    H156617   4.177   3.552   0.927  0.6406 -1.9342 -0.5273
11734TIP3    H256618   4.229   3.673   1.002 -1.8250 -0.8987 -0.4669
11735TIP3   OH256619   4.826   2.143  11.862  0.1627 -0.3578 -0.5730
11735TIP3    H156620   4.835   2.185  11.776  1.9564  0.2334 -0.1211
11735TIP3    H256621   4.741   2.173  11.894  0.0931  0.5361 -1.5439
11736TIP3   OH256622   5.740   7.052   0.400 -0.2671  0.3331 -0.3042
11736TIP3    H156623   5.658   7.003   0.406  0.3256 -0.8187 -1.2885
11736TIP3    H256624   5.730   7.124   0.463 -2.7453  1.2891 -1.7310
11737TIP3   OH256625   0.546   4.629   1.497 -0.4428  0.0624  0.1653
11737TIP3    H156626   0.490   4.571   1.447 -2.0922  0.8106  1.0917
11737TIP3    H256627   0.607   4.571   1.542  0.2951 -0.6874 -1.7508
11738TIP3   OH256628   4.870   2.956   5.284 -0.4593  0.4339  0.3968
11738TIP3    H156629   4.943   2.899   5.258  1.0424  1.4370  2.2990
11738TIP3    H256630   4.871   3.026   5.219 -0.1150  0.1270  0.0600
11739TIP3   OH256631   6.365   0.975   1.074 -0.0916 -0.5613 -0.0717
11739TIP3    H156632   6.273   0.985   1.097 -0.3477  0.3579 -1.4507
11739TIP3    H256633   6.412   1.019   1.145 -0.6956 -1.0953  0.6719
11740TIP3   OH256634   2.648   0.884   0.475 -0.2771 -0.5387 -0.0951
11740TIP3    H156635   2.676   0.844   0.558 -0.1502  2.7584  1.5584
11740TIP3    H256636   2.673   0.821   0.408  0.4741 -2.8956  2.2998
11741TIP3   OH256637   6.687   1.652   0.809  0.3484  0.1652 -0.2358
11741TIP3    H156638   6.597   1.617   0.814  0.4010  0.0584 -0.0357
11741TIP3    H256639   6.688   1.702   0.728  0.0123  0.4289 -0.0780
11742TIP3   OH256640   1.298   4.053   0.389 -0.1419 -0.2193  0.9771
11742TIP3    H156641   1.359   4.094   0.450  1.6401  0.8634 -1.4410
11742TIP3    H256642   1.353   4.024   0.316 -1.9407 -3.2695  0.7503
11743TIP3   OH256643   0.541   1.727   0.933  0.2238  0.0064  0.1057
11743TIP3    H156644   0.629   1.743   0.898 -0.5670  3.2275 -0.5226
11743TIP3    H256645   0.554   1.722   1.027  1.2497 -0.7587 -0.0612
11744TIP3   OH256646   5.959   2.364   1.223  0.5510  0.0086  0.3806
11744TIP3    H156647   5.879   2.383   1.174  1.4420 -0.7596 -1.4368
11744TIP3    H256648   5.954   2.420   1.300 -2.9907 -1.9120  1.6561
11745TIP3   OH256649   1.824   4.040   2.433 -0.0013  0.2656 -0.3549
11745TIP3    H156650   1.912   4.033   2.396 -0.4944  3.8141 -2.4555
11745TIP3    H256651   1.833   4.100   2.506 -0.6229  0.4571 -0.4279
11746TIP3   OH256652   6.283   4.467   0.409 -0.2081  0.5004 -0.2199
11746TIP3    H156653   6.264   4.498   0.320  2.7375  2.3814 -0.2606
11746TIP3    H256654   6.340   4.392   0.396  0.4501  0.9455  0.0710
11747TIP3   OH256655   7.181   4.354  15.774 -0.1265 -0.1307  0.3689
11747TIP3    H156656   7.273   4.377  15.786 -0.3773  0.9952  0.1755
11747TIP3    H256657   7.147   4.346  15.863 -0.0017  0.1015  0.4379
11748TIP3   OH256658   6.513   1.575   0.386  0.4527 -0.7686  0.0296
11748TIP3    H156659   6.417   1.571   0.382  0.3649 -1.6615  2.2016
11748TIP3    H256660   6.532   1.664   0.417  0.2989 -0.8081  0.2403
11749TIP3   OH256661   7.161   1.523   1.601  0.0184 -0.2433  0.6433
11749TIP3    H156662   7.087   1.583   1.612 -0.3652 -0.3579 -1.1547
11749TIP3    H256663   7.221   1.546   1.672  0.1442  2.6710 -0.3338
11750TIP3   OH256664   6.335   1.090  14.695  0.6294  0.2561 -0.4330
11750TIP3    H156665   6.307   1.000  14.711 -0.6091  0.8980  1.1378
11750TIP3    H256666   6.337   1.130  14.782 -1.7645  2.5754 -1.3638
11751TIP3   OH256667   5.499   0.407  15.857 -0.3917 -0.7145 -0.6262
11751TIP3    H156668   5.477   0.500  15.868  1.6949 -0.1127 -1.3436
11751TIP3    H256669   5.498   0.394  15.762 -0.1623 -1.3063 -0.5493
11752TIP3   OH256670   4.234   7.037   2.779 -0.1530 -1.0838  0.5114
11752TIP3    H156671   4.275   7.076   2.702  0.2167  1.3074  1.8763
11752TIP3    H256672   4.144   7.068   2.777  0.4518  0.9108  2.2459
11753TIP3   OH256673   6.770   0.175   1.610  0.2664  0.7677  0.4871
11753TIP3    H156674   6.699   0.215   1.661  0.1664  0.6384  0.4504
11753TIP3    H256675   6.813   0.115   1.671 -1.8946 -1.8496 -0.4605
11754TIP3   OH256676   6.765   3.988   0.899  1.0173 -0.1369 -0.2207
11754TIP3    H156677   6.720   3.913   0.940  0.1369  0.5906  0.1594
11754TIP3    H256678   6.748   3.978   0.806 -1.0839  0.8604  0.0310
11755TIP3   OH256679   0.938   2.911   0.629 -0.2106  0.0885 -0.0320
11755TIP3    H156680   0.992   2.957   0.693 -0.5175  1.0911 -0.4939
11755TIP3    H256681   0.849   2.943   0.644 -0.2765  0.3646 -0.9948
11756TIP3   OH256682   3.463   2.416   5.170  0.1835  0.0849  0.0347
11756TIP3    H156683   3.476   2.384   5.259 -0.2495 -0.0495  0.0504
11756TIP3    H256684   3.476   2.511   5.176 -1.4119  0.2793  0.5457
11757TIP3   OH256685   1.260   5.562  14.363  0.1569 -0.7272  0.6049
11757TIP3    H156686   1.251   5.482  14.310 -0.4078 -1.2884  1.5351
11757TIP3    H256687   1.173   5.602  14.362  0.5568  0.1511 -0.2623
11758TIP3   OH256688   2.592   5.964   2.736  0.1224 -0.2183 -0.6308
11758TIP3    H156689   2.626   5.895   2.793  1.5576  0.5682 -0.5250
11758TIP3    H256690   2.530   6.011   2.791 -0.3278 -0.9751 -0.4801
11759TIP3   OH256691   4.885   2.701  15.469  0.0146 -0.0972 -0.0622
11759TIP3    H156692   4.887   2.703  15.565 -3.0766  1.2660  0.0374
11759TIP3    H256693   4.945   2.630  15.446  0.1978 -1.0101  2.9228
11760TIP3   OH256694   5.505   2.880   2.318 -0.0061 -0.2396  0.5982
11760TIP3    H156695   5.560   2.830   2.257  2.1855  0.4565  1.9551
11760TIP3    H256696   5.548   2.966   2.323 -2.8352  1.2933 -0.4942
11761TIP3   OH256697   6.680   5.722   2.109  0.5954  0.0677 -0.0860
11761TIP3    H156698   6.677   5.772   2.191 -1.2634  0.8737 -0.6295
11761TIP3    H256699   6.727   5.779   2.048 -0.3406  0.5791 -0.3271
11762TIP3   OH256700   4.420   2.781   2.375 -0.2369  0.8727 -0.1995
11762TIP3    H156701   4.394   2.756   2.286 -0.8169  1.8480 -0.3159
11762TIP3    H256702   4.373   2.863   2.391 -0.9400  0.1792  1.3918
11763TIP3   OH256703   0.693   4.006   3.050  0.4803  0.0429  0.1690
11763TIP3    H156704   0.728   3.922   3.078  1.0174  0.3708  0.4867
11763TIP3    H256705   0.634   4.033   3.120 -0.9044 -0.7958 -0.6417
11764TIP3   OH256706   5.579   4.297   3.761 -0.1981 -0.3720  0.2125
11764TIP3    H156707   5.522   4.265   3.831 -1.8402 -0.4422 -1.1083
11764TIP3    H256708   5.555   4.389   3.750  0.6372 -0.1409  0.2976
11765TIP3   OH256709   7.158   3.289   1.686  0.4313 -0.1880 -0.2278
11765TIP3    H156710   7.217   3.226   1.645  2.5949  0.0053  2.4951
11765TIP3    H256711   7.080   3.288   1.630  3.1992  0.0690 -4.3209
11766TIP3   OH256712   6.420   2.705   3.181 -0.3007  0.0840  0.0994
11766TIP3    H156713   6.435   2.752   3.099 -2.0210 -0.8534 -0.7922
11766TIP3    H256714   6.499   2.652   3.194  0.3237  0.8518 -0.5290
11767TIP3   OH256715   1.440   2.473  15.233  0.0189  0.2596  0.2853
11767TIP3    H156716   1.432   2.381  15.211 -1.0546  0.8971 -2.1352
11767TIP3    H256717   1.515   2.503  15.180 -1.5143  1.4204 -1.2883
11768TIP3   OH256718   6.070   4.470  15.224  1.3058  0.1612  0.2611
11768TIP3    H156719   6.143   4.408  15.221  1.5982  0.5043  0.1753
11768TIP3    H256720   5.992   4.416  15.210  1.6829  0.0298 -1.5053
11769TIP3   OH256721   3.608   5.270   2.898 -0.3328 -0.4667 -0.2143
11769TIP3    H156722   3.684   5.233   2.854  0.2432 -0.0552  0.4202
11769TIP3    H256723   3.644   5.338   2.954 -0.9364 -1.8008  1.8188
11770TIP3   OH256724   5.973   4.152   0.137 -0.4153 -0.2624  0.1114
11770TIP3    H156725   5.994   4.237   0.099 -0.3013 -1.0232 -1.5351
11770TIP3    H256726   6.047   4.133   0.195  0.4739 -0.0884 -0.9456
11771TIP3   OH256727   0.739   3.294   0.440  0.0595 -0.6023 -0.1268
11771TIP3    H156728   0.751   3.305   0.534 -2.4023  0.1366  0.1475
11771TIP3    H256729   0.647   3.318   0.425  0.7861  0.6826 -2.9050
11772TIP3   OH256730   4.596   1.526   3.709  0.0516  0.0391  0.5269
11772TIP3    H156731   4.647   1.581   3.769  2.8626 -1.7070 -0.2130
11772TIP3    H256732   4.651   1.449   3.694 -1.5559 -0.5585 -2.5904
11773TIP3   OH256733   4.238   3.662  15.713 -0.6571 -0.2918 -0.6725
11773TIP3    H156734   4.206   3.573  15.699  0.1730 -0.4347 -1.7908
11773TIP3    H256735   4.230   3.704  15.627 -0.7772  0.6289 -0.2215
11774TIP3   OH256736   5.274   1.537   0.799 -0.3785  0.0080  0.3073
11774TIP3    H156737   5.334   1.473   0.837  0.0491 -0.0394 -0.4369
11774TIP3    H256738   5.297   1.539   0.706 -0.1809  1.4593  0.3746
11775TIP3   OH256739   2.012   3.374   2.675 -0.5286  0.5140  0.6896
11775TIP3    H156740   1.944   3.373   2.607 -0.3886  0.2421  0.5543
11775TIP3    H256741   2.040   3.283   2.683  2.2155  1.0735 -1.6843
11776TIP3   OH256742   5.438   3.556   3.733 -0.1580  0.7941 -0.4193
11776TIP3    H156743   5.481   3.472   3.716 -0.9421  0.5859 -1.4710
11776TIP3    H256744   5.375   3.565   3.661  1.9634  3.6987 -2.0288
11777TIP3   OH256745   5.277   5.159   2.790  0.3441  0.1631 -0.1328
11777TIP3    H156746   5.312   5.083   2.742 -0.5740  0.6516 -1.6058
11777TIP3    H256747   5.280   5.230   2.726  2.8480  1.8293  1.7608
11778TIP3   OH256748   5.374   5.561  15.126 -0.4726 -0.4767  0.0040
11778TIP3    H156749   5.314   5.596  15.192 -1.8507  0.3832 -1.6630
11778TIP3    H256750   5.319   5.505  15.072  0.4926 -0.5873 -0.8709
11779TIP3   OH256751   2.211   4.061   1.728 -0.5796  0.1817 -0.0429
11779TIP3    H156752   2.182   3.976   1.697 -0.8867 -0.3197  1.5968
11779TIP3    H256753   2.306   4.061   1.712 -0.4245 -0.8641  0.9086
11780TIP3   OH256754   4.774   1.417   0.645 -0.5499 -0.1881  0.3404
11780TIP3    H156755   4.777   1.492   0.586  1.6818 -0.6072 -0.1384
11780TIP3    H256756   4.842   1.435   0.710  1.0335 -2.4223 -0.6146
11781TIP3   OH256757   6.394   4.876  15.403  0.7052  0.6923  0.4744
11781TIP3    H156758   6.406   4.818  15.478  0.2422  0.8485  0.6699
11781TIP3    H256759   6.323   4.835  15.353 -0.8852  2.0461  1.5625
11782TIP3   OH256760   5.814   2.476  15.149 -0.1960 -0.2861 -0.0309
11782TIP3    H156761   5.810   2.564  15.187  0.0441 -0.3953  0.2492
11782TIP3    H256762   5.726   2.441  15.158 -0.2009 -0.2135  0.1843
11783TIP3   OH256763   1.708   3.208   2.657 -0.2060  0.3748 -0.2880
11783TIP3    H156764   1.764   3.135   2.684  1.6613  1.8555 -0.0812
11783TIP3    H256765   1.643   3.168   2.599 -0.4528 -1.7876  1.4317
11784TIP3   OH256766   5.797   1.795   2.425 -0.2717  0.2612  0.1943
11784TIP3    H156767   5.839   1.880   2.414  1.6261 -0.6613  0.1181
11784TIP3    H256768   5.813   1.771   2.516  0.2971 -0.5786 -0.1205
11785TIP3   OH256769   3.613   1.815   2.290 -0.2775  0.3752  0.2109
11785TIP3    H156770   3.594   1.829   2.197 -1.8655 -1.3383  0.2419
11785TIP3    H256771   3.628   1.720   2.296 -2.3290  0.1440  2.0537
11786TIP3   OH256772   6.544   2.017   2.541  0.1462  0.1753  0.4717
11786TIP3    H156773   6.451   2.019   2.564  0.2427  0.5442  0.8362
11786TIP3    H256774   6.587   1.981   2.618  0.2990 -0.0424  0.2836
11787TIP3   OH256775   0.615   6.153   1.327 -0.1983  0.2000  0.3752
11787TIP3    H156776   0.542   6.191   1.277  1.0697  0.4153 -1.3479
11787TIP3    H256777   0.589   6.062   1.342 -1.0526  0.4117  0.2279
11788TIP3   OH256778   6.046   2.812  14.675 -0.2788 -0.4845 -0.0692
11788TIP3    H156779   6.101   2.843  14.748 -1.2501  0.6229  0.1994
11788TIP3    H256780   6.028   2.891  14.624 -1.1315 -0.9556 -0.4926
11789TIP3   OH256781   4.118   0.838   1.689 -0.4407 -0.1707  0.2920
11789TIP3    H156782   4.197   0.788   1.668 -0.2444  0.3384 -0.1937
11789TIP3    H256783   4.093   0.879   1.607 -2.0272 -1.4518  0.1007
11790TIP3   OH256784   6.685   6.715   0.466 -0.4616  0.0430  0.5348
11790TIP3    H156785   6.725   6.639   0.423  1.0160  0.5786  0.9388
11790TIP3    H256786   6.751   6.743   0.530 -0.3684  2.5507 -0.6138
11791TIP3   OH256787   5.221   1.246   2.270 -0.6872 -0.0829  0.3555
11791TIP3    H156788   5.208   1.159   2.234 -1.9158 -0.2523  1.1764
11791TIP3    H256789   5.291   1.236   2.335  1.4839  0.2117 -1.8952
11792TIP3   OH256790   1.075   1.767   1.372 -0.0241 -0.7221  0.5051
11792TIP3    H156791   1.011   1.839   1.374  0.1788 -0.5365  0.3402
11792TIP3    H256792   1.098   1.753   1.464  1.6049  0.9228  0.3958
11793TIP3   OH256793   7.119   4.315  14.781 -0.1921 -0.6263 -0.5325
11793TIP3    H156794   7.163   4.350  14.858 -0.1045  0.8948 -1.2392
11793TIP3    H256795   7.122   4.220  14.792  0.6195 -0.4512  0.8795
11794TIP3   OH256796   1.868   5.692   3.200  0.4168 -0.6972  0.0783
11794TIP3    H156797   1.938   5.645   3.247  0.0210 -2.6332 -1.2333
11794TIP3    H256798   1.856   5.643   3.119 -1.7985  0.1969 -0.1671
11795TIP3   OH256799   4.910   0.950   3.848 -0.3389 -0.0780  0.1270
11795TIP3    H156800   4.971   0.989   3.911 -0.7889  0.2583  0.3516
11795TIP3    H256801   4.826   0.947   3.893 -0.4802 -0.6102 -0.1580
11796TIP3   OH256802   0.763   5.279  14.783  0.1387  0.1523 -0.0929
11796TIP3    H156803   0.800   5.320  14.705  1.6221 -1.2257 -0.1388
11796TIP3    H256804   0.838   5.266  14.841 -0.1320 -3.2246 -0.4225
11797TIP3   OH256805   3.835   0.857   1.800  0.0597 -0.0394 -0.3777
11797TIP3    H156806   3.914   0.867   1.747 -1.1242 -0.3920 -2.2278
11797TIP3    H256807   3.851   0.778   1.853  1.7950  1.0751  0.8134
11798TIP3   OH256808   5.365   2.033   1.017 -0.1063 -0.8294  0.1674
11798TIP3    H156809   5.449   1.988   1.020  0.3974  0.0625 -0.2243
11798TIP3    H256810   5.381   2.111   0.963 -1.5166 -1.3365 -1.0257
11799TIP3   OH256811   0.466   3.059   3.295  0.1876  0.0491  0.0611
11799TIP3    H156812   0.438   2.970   3.317  0.3277  0.4691  2.0195
11799TIP3    H256813   0.536   3.047   3.230  1.5941 -1.3900  1.7753
11800TIP3   OH256814   4.394   4.241   2.914 -0.3446  0.0589 -0.0872
11800TIP3    H156815   4.301   4.221   2.926 -0.6431  0.5021 -1.5323
11800TIP3    H256816   4.398   4.283   2.828  1.4272 -1.6064 -0.8535
11801TIP3   OH256817   0.647   2.489   1.453  0.1418  0.1129 -0.0622
11801TIP3    H156818   0.714   2.434   1.412  0.4288  0.4159 -0.0005
11801TIP3    H256819   0.647   2.570   1.402 -0.0195  0.2008  0.0758
11802TIP3   OH256820   0.105   7.127   0.885  0.1412  0.2820 -0.6306
11802TIP3    H156821   0.140   7.179   0.957 -1.3221 -0.0968  0.3842
11802TIP3    H256822   0.063   7.191   0.827 -0.0068  0.4356 -0.3569
11803TIP3   OH256823   4.571   3.199   3.351 -0.6907 -0.2897 -0.3353
11803TIP3    H156824   4.587   3.258   3.425  0.0042 -0.9406  0.0385
11803TIP3    H256825   4.598   3.113   3.382 -2.6380 -1.0093 -0.5322
11804TIP3   OH256826   5.760   6.409   0.390  0.3682  0.5202  0.3532
11804TIP3    H156827   5.708   6.480   0.351 -1.3476 -1.5602 -1.3054
11804TIP3    H256828   5.849   6.426   0.359  0.0214  2.0255  0.1001
11805TIP3   OH256829   1.399   6.123   3.279 -0.1161 -0.1469  0.0600
11805TIP3    H156830   1.392   6.073   3.360 -0.7772  0.0547  0.1315
11805TIP3    H256831   1.354   6.206   3.298  0.4467  0.2364 -0.2473
11806TIP3   OH256832   5.541   1.260   3.481  0.1649 -0.0191  0.4249
11806TIP3    H156833   5.548   1.342   3.433 -0.2001 -0.4204 -0.3297
11806TIP3    H256834   5.540   1.192   3.413  2.8573 -0.8221  1.1203
11807TIP3   OH256835   4.107   2.288   0.814 -0.4553  0.3611 -0.0458
11807TIP3    H156836   4.046   2.317   0.746 -0.4015  0.1802 -0.1710
11807TIP3    H256837   4.164   2.225   0.770 -0.5787  0.0570  0.2261
11808TIP3   OH256838   5.323   5.145   2.106  0.2148 -0.3318  0.0774
11808TIP3    H156839   5.414   5.175   2.096  0.0174  0.3841  0.4392
11808TIP3    H256840   5.284   5.159   2.020  0.1369  0.4058  0.2310
11809TIP3   OH256841   6.177   0.812   1.459  0.0575  0.5384  0.0525
11809TIP3    H156842   6.201   0.898   1.493 -0.8714  0.7092  0.2648
11809TIP3    H256843   6.252   0.787   1.404  0.8060  1.0075  0.8367
11810TIP3   OH256844   6.962   0.414  15.970 -0.2224  0.2594  0.2482
11810TIP3    H156845   6.945   0.423  16.064  1.5566 -1.6884  0.8149
11810TIP3    H256846   6.889   0.362  15.937  0.9132 -2.1295  1.3044
11811TIP3   OH256847   3.142   1.201   1.241 -0.4851  0.2306 -0.1074
11811TIP3    H156848   3.090   1.205   1.161  0.8700  0.0164 -1.0154
11811TIP3    H256849   3.089   1.148   1.301 -0.6949 -1.1677 -1.4897
11812TIP3   OH256850   5.217   1.625   1.588 -0.2289  0.4246  0.6957
11812TIP3    H156851   5.249   1.680   1.660 -0.4564  1.6482 -0.1367
11812TIP3    H256852   5.125   1.607   1.611 -0.4695  1.2961  0.4194
11813TIP3   OH256853   2.025   2.218   1.558  0.5519  0.5124  0.0996
11813TIP3    H156854   2.052   2.264   1.638  0.3898  1.0075 -0.1323
11813TIP3    H256855   2.089   2.147   1.550  0.3095  0.1927  0.9070
11814TIP3   OH256856   2.239   3.051  14.748  0.1673 -0.1043  0.7243
11814TIP3    H156857   2.315   2.998  14.774  0.8954 -0.7467 -2.5104
11814TIP3    H256858   2.231   3.037  14.654 -3.7349  0.3021  0.9085
11815TIP3   OH256859   3.714   5.889   1.194 -0.5067 -0.0356  0.4403
11815TIP3    H156860   3.685   5.892   1.285  0.9967 -0.1392  0.9317
11815TIP3    H256861   3.782   5.822   1.192  0.6841  1.1560 -0.3949
11816TIP3   OH256862   3.702   7.203  15.423  0.3435  0.4128  0.5295
11816TIP3    H156863   3.620   7.253  15.427  0.5132  0.7803 -0.4895
11816TIP3    H256864   3.747   7.237  15.346  1.3431  0.0290  0.9353
11817TIP3   OH256865   3.096   2.879   3.332 -0.6525  0.1592  0.1053
11817TIP3    H156866   3.086   2.963   3.376 -3.1384 -0.4800  0.8464
11817TIP3    H256867   3.189   2.857   3.344 -0.3894  1.8732  1.5517
11818TIP3   OH256868   0.750   3.639   4.391 -0.0767 -0.4298  0.0350
11818TIP3    H156869   0.754   3.702   4.318 -0.2851 -1.9719 -1.3441
11818TIP3    H256870   0.687   3.677   4.452  1.5764  1.8525  0.3803
11819TIP3   OH256871   2.819   3.606   1.209 -0.0268 -0.1708  0.1981
11819TIP3    H156872   2.906   3.627   1.242 -0.5054  1.9826  0.1447
11819TIP3    H256873   2.771   3.574   1.285 -0.0419  1.3746  0.8531
11820TIP3   OH256874   1.537   0.468   1.639  0.1583  0.1923 -0.3090
11820TIP3    H156875   1.542   0.552   1.684  1.0175 -0.0533  0.0749
11820TIP3    H256876   1.585   0.480   1.558 -1.7618  0.7611 -1.3963
11821TIP3   OH256877   6.392   3.014   0.991 -0.1866  0.0036  0.3985
11821TIP3    H156878   6.416   2.922   1.003 -0.7776 -0.3712 -1.2261
11821TIP3    H256879   6.300   3.018   1.015 -0.2461  0.1137  0.1456
11822TIP3   OH256880   0.563   3.265   0.777  0.1839  0.0608  0.0457
11822TIP3    H156881   0.652   3.300   0.772 -0.0213  0.4324 -1.0762
11822TIP3    H256882   0.546   3.257   0.871  0.8444  1.4034  0.2938
11823TIP3   OH256883   6.410   3.707   3.304  0.2955 -0.2392  0.1556
11823TIP3    H156884   6.445   3.676   3.387  0.6278 -0.2345  0.0196
11823TIP3    H256885   6.466   3.781   3.280  0.3540 -0.3899 -0.1889
11824TIP3   OH256886   0.355   3.007   1.580 -1.0496 -0.2563  0.0746
11824TIP3    H156887   0.384   3.004   1.489  1.1713  0.8889  0.7261
11824TIP3    H256888   0.362   2.917   1.611 -1.6292 -0.6126 -0.8143
11825TIP3   OH256889   5.866   4.809  15.035  0.2907 -0.3463  0.3487
11825TIP3    H156890   5.907   4.770  14.958  0.1007  2.1587 -1.0461
11825TIP3    H256891   5.935   4.862  15.075  0.2547 -1.2618  1.6664
11826TIP3   OH256892   2.711   2.663   4.027  0.1947  0.0879  0.0807
11826TIP3    H156893   2.740   2.670   4.118 -1.8842  1.6203  0.6642
11826TIP3    H256894   2.685   2.572   4.017 -1.6875  0.4130  1.7191
11827TIP3   OH256895   3.263   1.703   4.518  0.4712  0.1150 -0.3573
11827TIP3    H156896   3.350   1.663   4.515  1.3463  1.8277  1.4109
11827TIP3    H256897   3.265   1.768   4.448  0.8585  0.6457  0.1472
11828TIP3   OH256898   6.184   4.080   3.604  0.5363 -0.0699  0.8857
11828TIP3    H156899   6.131   4.002   3.592 -0.2655  0.6901 -0.6328
11828TIP3    H256900   6.155   4.118   3.687 -1.4667  0.4501 -0.0245
11829TIP3   OH256901   7.242   0.071   0.377  0.1326  0.3737 -0.7988
11829TIP3    H156902   7.191   0.102   0.452  1.3047 -0.1096  0.2242
11829TIP3    H256903   7.181   0.072   0.304 -1.5936 -1.0243  0.5781
11830TIP3   OH256904   4.660   5.540  15.369  0.4017 -0.2022 -0.0127
11830TIP3    H156905   4.719   5.502  15.304  0.8690 -1.8941  1.3562
11830TIP3    H256906   4.573   5.530  15.330  0.5417 -2.4628  0.1777
11831TIP3   OH256907   3.798   4.450   5.031 -0.5508  0.0378 -0.3308
11831TIP3    H156908   3.837   4.522   5.081 -1.2507 -0.0921  0.4186
11831TIP3    H256909   3.716   4.487   4.996 -0.4222 -0.0946 -0.7707
11832TIP3   OH256910   6.930   4.942   1.346 -0.4008 -0.2938  0.0992
11832TIP3    H156911   6.859   4.920   1.286 -1.3490  0.8774  0.7635
11832TIP3    H256912   6.895   5.014   1.398  0.9590 -0.3043  1.0387
11833TIP3   OH256913   1.291   0.059   3.629 -0.1313  0.2475 -0.1625
11833TIP3    H156914   1.369   0.007   3.644 -1.3561 -1.1335  1.5532
11833TIP3    H256915   1.280   0.111   3.709 -0.6255  0.9026 -0.6439
11834TIP3   OH256916   3.711   5.438  15.387  0.0290 -0.6362  0.2506
11834TIP3    H156917   3.782   5.473  15.332 -1.6523  1.0429 -0.9289
11834TIP3    H256918   3.632   5.451  15.334 -1.2297 -1.9932  1.7588
11835TIP3   OH256919   4.992   4.368   2.562  0.0259  0.2829  0.1995
11835TIP3    H156920   4.897   4.384   2.570  0.4230  3.5044 -0.8019
11835TIP3    H256921   5.024   4.369   2.652 -0.9393 -1.2869  0.5790
11836TIP3   OH256922   0.321   4.699   1.223 -0.0065 -0.4376 -0.9792
11836TIP3    H156923   0.263   4.713   1.148  2.9475  1.1439 -3.0420
11836TIP3    H256924   0.370   4.781   1.231 -0.0556 -0.6747  2.5422
11837TIP3   OH256925   0.669   3.577   0.650 -0.2324  0.4780  0.0985
11837TIP3    H156926   0.635   3.556   0.564 -0.1573 -1.8392  0.6088
11837TIP3    H256927   0.718   3.658   0.637 -0.4627  0.3131 -1.9605
11838TIP3   OH256928   0.943   6.018   0.684 -0.1822  0.3269 -0.3263
11838TIP3    H156929   0.929   5.924   0.685 -2.5800  0.6228 -1.0451
11838TIP3    H256930   0.855   6.055   0.671  0.9895  2.5485 -2.5614
11839TIP3   OH256931   6.852   3.615   0.311 -0.1972  0.6682  0.2839
11839TIP3    H156932   6.800   3.538   0.334 -1.6070  2.3078  2.8682
11839TIP3    H256933   6.939   3.596   0.347 -0.2654 -0.1353  0.0356
11840TIP3   OH256934   5.143   6.225   1.217 -0.5788 -0.0220  0.5376
11840TIP3    H156935   5.204   6.288   1.256 -0.3574  1.0782 -1.5312
11840TIP3    H256936   5.103   6.180   1.292  0.5312  1.3849  1.9860
11841TIP3   OH256937   6.514   6.425   0.790 -0.1639 -0.1836 -0.1149
11841TIP3    H156938   6.521   6.518   0.771  1.1118 -0.7813 -2.8688
11841TIP3    H256939   6.488   6.385   0.707  0.3474 -2.4020  0.7402
11842TIP3   OH256940   1.711   0.380   2.443  0.0658  0.2025 -0.2502
11842TIP3    H156941   1.776   0.443   2.475  0.3896 -0.1729 -0.1634
11842TIP3    H256942   1.723   0.303   2.499 -0.2100 -0.0004 -0.4701
11843TIP3   OH256943   5.534   0.767   0.134 -0.0960 -0.3718 -0.6326
11843TIP3    H156944   5.623   0.732   0.126  0.0955  0.0506 -0.4167
11843TIP3    H256945   5.508   0.746   0.224 -1.0750 -2.4434 -1.3889
11844TIP3   OH256946   3.510   2.498   2.392  0.5722 -0.3286  0.7443
11844TIP3    H156947   3.561   2.579   2.391  0.9623 -0.5813 -0.7081
11844TIP3    H256948   3.473   2.495   2.480 -0.8150  2.2805  0.2962
11845TIP3   OH256949   3.942   4.800   3.839 -0.4706 -0.1300  0.1313
11845TIP3    H156950   3.852   4.772   3.823 -0.2696 -0.5575 -0.2829
11845TIP3    H256951   3.958   4.781   3.931 -0.7495 -0.2078  0.1626
11846TIP3   OH256952   6.177   4.955  14.607 -0.4487  0.0175 -0.1160
11846TIP3    H156953   6.129   5.035  14.626 -0.4259 -0.5304  2.4889
11846TIP3    H256954   6.260   4.965  14.655  0.9945 -0.1415 -2.4808
11847TIP3   OH256955   5.493   2.768   1.800 -0.8376  0.3977 -0.3570
11847TIP3    H156956   5.544   2.802   1.727 -2.3336  1.7459 -0.7774
11847TIP3    H256957   5.465   2.846   1.849  0.0936 -0.4675  1.6291
11848TIP3   OH256958   6.029   0.124   1.569 -0.4842  0.1038  0.1263
11848TIP3    H156959   6.053   0.088   1.483  1.4148 -0.2224  0.7720
11848TIP3    H256960   5.977   0.202   1.548  0.7169  0.5466 -1.3558
11849TIP3   OH256961   4.362   2.791   2.097  0.5911  0.0492  0.5271
11849TIP3    H156962   4.324   2.839   2.024 -2.4295 -3.9683 -0.7212
11849TIP3    H256963   4.440   2.749   2.060  1.1781  1.0330  0.6427
11850TIP3   OH256964   5.301   1.816   0.730  0.3619  0.4200  0.2349
11850TIP3    H156965   5.389   1.842   0.700  0.2867  1.5779  0.9943
11850TIP3    H256966   5.317   1.743   0.789  0.6417 -0.7924 -1.3079
11851TIP3   OH256967   0.796   4.146  13.781 -0.3281 -0.1059 -0.1813
11851TIP3    H156968   0.702   4.153  13.795 -0.0744  2.6018  0.4981
11851TIP3    H256969   0.829   4.108  13.862 -0.9823 -2.4627 -1.0007
11852TIP3   OH256970   6.743   3.876  11.764 -0.3596 -0.0229  0.0079
11852TIP3    H156971   6.786   3.926  11.694  0.9533 -1.2305 -0.0836
11852TIP3    H256972   6.650   3.879  11.743 -0.1926  1.4813 -0.5685
11853TIP3   OH256973   4.761   7.043   1.301 -0.0319 -0.2315  0.0563
11853TIP3    H156974   4.781   7.136   1.313 -1.5590  0.2950 -1.2493
11853TIP3    H256975   4.830   6.997   1.348  2.0637  1.5374 -1.1805
11854TIP3   OH256976   4.664   1.220   0.323  0.1097  0.0935 -0.2646
11854TIP3    H156977   4.623   1.146   0.277 -0.9758  1.2343 -1.1831
11854TIP3    H256978   4.590   1.271   0.356  0.7931  1.6491 -1.0706
11855TIP3   OH256979   4.316   3.949   0.568  0.2851  0.1899 -0.1369
11855TIP3    H156980   4.245   3.978   0.511 -0.1551 -0.5630  0.0282
11855TIP3    H256981   4.309   3.853   0.568  0.6793  0.1627  0.6783
11856TIP3   OH256982   6.456   2.925   2.338 -0.5954 -0.8302 -0.2120
11856TIP3    H156983   6.469   2.990   2.269 -0.5428 -0.3277  0.2673
11856TIP3    H256984   6.422   2.976   2.412 -0.8674 -1.4007  0.0579
11857TIP3   OH256985   7.006   4.265   2.428 -0.3781  0.0350 -0.5407
11857TIP3    H156986   6.934   4.315   2.390  0.5743  0.7187 -1.4745
11857TIP3    H256987   7.057   4.235   2.353 -0.3744 -1.5043  0.0574
11858TIP3   OH256988   3.009   5.141   1.507  0.0006 -0.1572  0.0500
11858TIP3    H156989   2.964   5.092   1.576  2.0553 -1.9523  0.1723
11858TIP3    H256990   3.087   5.178   1.550 -0.4497  1.5462 -0.5359
11859TIP3   OH256991   5.317   5.242  15.532 -0.2544  0.0648 -0.7256
11859TIP3    H156992   5.279   5.166  15.487 -0.1353 -0.2128 -0.3662
11859TIP3    H256993   5.258   5.256  15.607  1.3374 -1.4808  0.8503
11860TIP3   OH256994   0.908   3.835   3.175  0.0513  0.3256  0.0919
11860TIP3    H156995   0.975   3.836   3.107  0.3392  0.1599  0.3665
11860TIP3    H256996   0.941   3.895   3.242 -0.0239  0.1711  0.2719
11861TIP3   OH256997   1.594   4.272   3.695  0.8337 -0.1099  0.0842
11861TIP3    H156998   1.564   4.196   3.745 -1.0139 -0.9971 -2.2755
11861TIP3    H256999   1.600   4.240   3.605  0.8652  2.3132 -0.8011
11862TIP3   OH257000   1.715   4.466   3.542 -0.3804  0.3165 -0.2609
11862TIP3    H157001   1.655   4.420   3.601  1.6580  0.1043  1.7461
11862TIP3    H257002   1.801   4.430   3.564  0.6365  1.5523 -2.1535
11863TIP3   OH257003   5.865   6.464  15.769  0.4642  0.2324 -0.1369
11863TIP3    H157004   5.938   6.413  15.802 -1.2366 -0.4529  2.7164
11863TIP3    H257005   5.838   6.519  15.842 -2.6305 -0.4238 -0.7049
11864TIP3   OH257006   1.700   6.033   1.021 -0.9844 -0.7576  0.2811
11864TIP3    H157007   1.664   6.089   1.090 -0.6053  1.8157 -1.5306
11864TIP3    H257008   1.624   5.986   0.987 -2.3118  2.5602 -1.6447
11865TIP3   OH257009   5.167   5.627  14.422  0.1400 -0.1132 -0.1937
11865TIP3    H157010   5.223   5.685  14.369  1.4692 -1.0899  0.1171
11865TIP3    H257011   5.194   5.642  14.512 -1.3422  0.7057  0.1322
11866TIP3   OH257012   2.087   3.547   0.350  0.3984 -0.1178  0.1828
11866TIP3    H157013   2.003   3.537   0.396 -0.2366  0.0885 -0.9103
11866TIP3    H257014   2.133   3.615   0.399 -0.9356  1.2520 -0.3973
11867TIP3   OH257015   7.042   4.764  12.355 -0.4066 -0.1090 -0.0341
11867TIP3    H157016   7.108   4.816  12.309 -0.4839 -1.1340 -1.3149
11867TIP3    H257017   7.056   4.785  12.447  0.2484  1.3857 -0.4510
11868TIP3   OH257018   3.859   3.470   0.179  0.0533 -0.5821  0.2877
11868TIP3    H157019   3.815   3.389   0.203  0.3075 -0.2729  1.8618
11868TIP3    H257020   3.788   3.533   0.165 -0.0579 -0.2008  2.3851
11869TIP3   OH257021   2.252   3.086   1.485  0.0696  0.3197  0.2149
11869TIP3    H157022   2.328   3.141   1.467  1.8247 -1.6798  1.2251
11869TIP3    H257023   2.262   3.059   1.576  0.3446 -3.1970 -0.7519
11870TIP3   OH257024   0.342   3.873  15.335 -0.1262  0.2921 -0.2394
11870TIP3    H157025   0.427   3.884  15.293  0.2748  0.5939  0.6238
11870TIP3    H257026   0.331   3.953  15.387 -0.4665 -0.1895  0.4423
11871TIP3   OH257027   0.010   2.945  15.714 -0.0302 -0.5602 -0.1610
11871TIP3    H157028  -0.055   2.952  15.783 -1.1526 -0.4827 -1.1995
11871TIP3    H257029   0.092   2.929  15.759 -0.6194  0.2620  1.2201
11872TIP3   OH257030   2.335   5.457   3.279 -0.2822 -0.1237 -0.2483
11872TIP3    H157031   2.401   5.430   3.215 -0.1248  0.0900 -0.1791
11872TIP3    H257032   2.347   5.552   3.285  0.8600 -0.3530  1.3705
11873TIP3   OH257033   0.988   2.841   2.939  0.7393  0.3764  0.0252
11873TIP3    H157034   1.024   2.765   2.895  0.0410 -0.6889  1.2680
11873TIP3    H257035   0.894   2.836   2.925  0.7548  1.4341 -0.5392
11874TIP3   OH257036   2.483   3.925  14.957 -0.3427  0.8226 -0.0608
11874TIP3    H157037   2.449   3.931  14.867  1.7590  1.0456 -0.8516
11874TIP3    H257038   2.471   3.832  14.980 -1.1847  0.8292 -0.4397
11875TIP3   OH257039   3.023   3.850   0.245 -0.1515  0.2118  0.0100
11875TIP3    H157040   3.107   3.828   0.204 -0.0355 -0.0088  0.3673
11875TIP3    H257041   2.976   3.766   0.248 -0.0512  0.1805  0.5879
11876TIP3   OH257042   2.780   0.989   1.134  0.1935  0.1000 -0.2553
11876TIP3    H157043   2.753   0.906   1.095 -0.7363  1.6854 -3.0900
11876TIP3    H257044   2.708   1.012   1.193  0.5532 -1.1476  0.7187
11877TIP3   OH257045   1.050   3.024  14.700 -0.2775  0.3358  0.1447
11877TIP3    H157046   1.092   3.071  14.773 -3.6267 -0.1788  2.5366
11877TIP3    H257047   1.032   3.092  14.636 -1.0205  1.5647  1.6181
11878TIP3   OH257048   6.498   6.668   0.658 -0.1141 -0.4437  0.1206
11878TIP3    H157049   6.544   6.640   0.578  1.6723  0.8624  0.6659
11878TIP3    H257050   6.478   6.760   0.644  3.3307  0.7656  2.5491
11879TIP3   OH257051   2.968   5.460  14.637  0.7774 -0.0117 -0.5563
11879TIP3    H157052   2.894   5.478  14.579  0.6880 -3.3288 -1.5649
11879TIP3    H257053   3.045   5.472  14.582  0.8471  0.1091 -0.4338
11880TIP3   OH257054   7.022   4.973  13.641 -0.3475 -0.0136 -0.0632
11880TIP3    H157055   6.931   5.002  13.634 -0.3538  0.3395  1.3905
11880TIP3    H257056   7.056   5.019  13.717  0.9946 -0.3116 -0.4767
11881TIP3   OH257057   2.654   5.474   2.205 -0.5356  0.0807 -0.3781
11881TIP3    H157058   2.616   5.520   2.131 -0.5269 -0.9944 -1.0732
11881TIP3    H257059   2.735   5.522   2.224 -0.7587  0.6231 -0.7982
11882TIP3   OH257060   7.226   6.867   0.622  0.4261 -0.0645  0.0165
11882TIP3    H157061   7.193   6.826   0.703  1.0751 -2.1494 -0.7355
11882TIP3    H257062   7.272   6.945   0.652  0.1408 -0.4895  1.6150
11883TIP3   OH257063   0.892   3.306  14.244  0.6963  0.0620  0.0372
11883TIP3    H157064   0.851   3.262  14.170  3.0136 -1.5351 -0.3690
11883TIP3    H257065   0.916   3.392  14.211  0.4790 -0.1359 -0.6409
11884TIP3   OH257066   7.253   5.590   3.429 -0.0340 -0.0898 -0.0301
11884TIP3    H157067   7.171   5.639   3.441 -0.1830 -0.1875 -0.6159
11884TIP3    H257068   7.265   5.544   3.512  0.2515  1.1383  0.6370
11885TIP3   OH257069   2.577   4.264   0.097 -0.1512 -0.3908 -0.3529
11885TIP3    H157070   2.607   4.319   0.169 -0.8284  0.5757 -0.7992
11885TIP3    H257071   2.488   4.237   0.123 -0.4932  0.1655 -0.9410
11886TIP3   OH257072   1.501   5.560   3.741 -0.5430  0.0829  0.1651
11886TIP3    H157073   1.427   5.531   3.795  1.1259 -1.7121  1.5240
11886TIP3    H257074   1.534   5.638   3.787 -0.8611  0.2139  0.1770
11887TIP3   OH257075   0.665   4.441  15.648  0.0843 -0.2056  0.0943
11887TIP3    H157076   0.600   4.495  15.604  0.7370 -0.3347 -1.0445
11887TIP3    H257077   0.613   4.380  15.700 -0.7055 -0.1203 -0.5713
11888TIP3   OH257078   0.782   6.937   2.067  0.4577  0.1110 -0.2412
11888TIP3    H157079   0.806   7.018   2.111 -1.4878  0.2516  0.6077
11888TIP3    H257080   0.724   6.892   2.128  0.4229 -1.2860 -1.2696
11889TIP3   OH257081   4.924   0.888   0.373  0.1271 -0.0941 -0.3128
11889TIP3    H157082   4.940   0.926   0.459  0.3200 -0.8085 -0.0260
11889TIP3    H257083   4.836   0.850   0.380  0.8753 -1.7842  0.1780
11890TIP3   OH257084   5.703   4.903   0.720  0.2579 -0.3402  0.0531
11890TIP3    H157085   5.696   4.834   0.654  1.7476  1.3526 -1.9383
11890TIP3    H257086   5.773   4.873   0.778  0.7499 -0.6289 -0.6758
11891TIP3   OH257087   0.415   3.166   1.805 -0.4995  0.0689  0.1636
11891TIP3    H157088   0.422   3.101   1.735  0.3839 -0.3865  0.6675
11891TIP3    H257089   0.476   3.235   1.780  0.5559 -0.5584  0.9742
11892TIP3   OH257090   4.285   6.849   2.006 -0.2236 -0.3151  0.0211
11892TIP3    H157091   4.377   6.830   2.023 -0.6417 -1.4669  1.0151
11892TIP3    H257092   4.286   6.935   1.963  1.3902 -0.8778 -1.0884
11893TIP3   OH257093   0.209   5.795   2.143  0.8580  0.1262  0.3023
11893TIP3    H157094   0.213   5.861   2.213  1.9138  0.0818  0.2888
11893TIP3    H257095   0.134   5.740   2.167 -0.4415  1.7068 -0.0165
11894TIP3   OH257096   1.393   2.687   0.175  0.5447 -0.6669 -0.1145
11894TIP3    H157097   1.488   2.688   0.187  0.6794  0.7184 -1.2947
11894TIP3    H257098   1.361   2.762   0.225  0.2188 -0.2779 -0.8925
11895TIP3   OH257099   7.152   3.455  12.352 -0.0798  0.6283  0.2817
11895TIP3    H157100   7.117   3.482  12.437 -0.4713  1.0660 -0.0165
11895TIP3    H257101   7.076   3.457  12.293 -0.2232 -1.4765  0.3294
11896TIP3   OH257102   2.356   5.227   0.630 -0.0822  0.3658  0.3183
11896TIP3    H157103   2.447   5.215   0.602  0.1051  0.8164  0.7283
11896TIP3    H257104   2.305   5.173   0.570  0.4827 -0.1079  0.2646
11897TIP3   OH257105   2.828   1.119  14.178 -0.2974  0.5052 -0.0262
11897TIP3    H157106   2.906   1.105  14.123 -0.2013 -0.5307  0.3737
11897TIP3    H257107   2.779   1.037  14.171 -0.6493  0.6443  0.8578
11898TIP3   OH257108   1.417   4.083   1.341  0.0044 -0.4960  0.4256
11898TIP3    H157109   1.324   4.097   1.361 -0.4311 -1.7388 -0.6448
11898TIP3    H257110   1.464   4.139   1.403 -1.4824  0.7830  0.4228
11899TIP3   OH257111   0.078   3.354  13.483 -0.3792 -0.1706 -0.5111
11899TIP3    H157112   0.152   3.297  13.465 -0.8479 -0.6944 -0.8007
11899TIP3    H257113   0.004   3.311  13.441 -0.7934  0.4956 -0.4693
11900TIP3   OH257114   1.525   4.487   4.646  0.1450 -0.4429  0.0421
11900TIP3    H157115   1.590   4.472   4.577  0.9096 -0.1430  0.6860
11900TIP3    H257116   1.575   4.479   4.728 -0.2677  1.4077  0.5089
11901TIP3   OH257117   6.332   6.480   0.283 -0.5164  0.4053 -0.4164
11901TIP3    H157118   6.305   6.572   0.285 -0.8588  0.3442 -1.5044
11901TIP3    H257119   6.419   6.480   0.322 -0.9198  1.0396  0.5052
11902TIP3   OH257120   4.732   5.083   2.559  0.4958 -0.3104 -0.1667
11902TIP3    H157121   4.802   5.040   2.510 -0.0426 -0.1774 -1.0619
11902TIP3    H257122   4.768   5.095   2.647  0.9288 -1.8680 -0.1228
11903TIP3   OH257123   0.329   5.044  12.933 -0.1226 -0.9492 -0.4978
11903TIP3    H157124   0.305   5.128  12.972  1.3526 -1.0949  0.7759
11903TIP3    H257125   0.321   5.059  12.839 -1.0202  0.2501 -0.2553
11904TIP3   OH257126   2.529   4.730  15.863  0.6033  0.1089 -0.4025
11904TIP3    H157127   2.606   4.786  15.858  0.5589  0.0369 -2.0418
11904TIP3    H257128   2.465   4.771  15.805  0.0636 -0.8365 -0.4898
11905TIP3   OH257129   1.024   4.605   5.031  0.6152  0.7385  0.3308
11905TIP3    H157130   0.966   4.633   5.101 -0.4457 -0.1684 -0.1668
11905TIP3    H257131   1.111   4.605   5.070  0.3711  2.7191  0.8986
11906TIP3   OH257132   6.152   4.431   4.544  0.0397  0.0742 -0.1453
11906TIP3    H157133   6.194   4.449   4.628  0.6031 -1.6150 -0.0639
11906TIP3    H257134   6.109   4.347   4.555 -1.6014  0.7737 -0.9250
11907TIP3   OH257135   3.239   1.179   2.163  0.7202  0.3314 -0.1529
11907TIP3    H157136   3.269   1.245   2.225  0.9618  0.1999 -0.1304
11907TIP3    H257137   3.187   1.118   2.217  2.0699 -0.5394  0.1741
11908TIP3   OH257138   4.489   2.959   0.184  0.1942 -0.4394  0.0690
11908TIP3    H157139   4.577   2.924   0.192  1.3572  2.0622 -1.3249
11908TIP3    H257140   4.495   3.049   0.216 -1.4109  0.3632 -1.7655
11909TIP3   OH257141   4.863   2.133   0.581  0.2190  0.2020 -0.3395
11909TIP3    H157142   4.833   2.165   0.666 -1.3320 -1.9069 -0.0432
11909TIP3    H257143   4.905   2.049   0.601  1.5062  0.5669 -1.4506
11910TIP3   OH257144   0.998   4.879   1.371  0.0022 -0.6440  0.1291
11910TIP3    H157145   1.072   4.820   1.382  0.3827 -0.4279 -1.2088
11910TIP3    H257146   1.033   4.952   1.321 -0.9788 -0.2658 -0.0110
11911TIP3   OH257147   0.813   6.706   0.057  0.2497  0.1214  0.3257
11911TIP3    H157148   0.786   6.789   0.019  0.9260 -0.8840 -2.4131
11911TIP3    H257149   0.908   6.712   0.061  0.3431 -0.8070 -0.5447
11912TIP3   OH257150   2.805   4.882   2.413 -0.3474  0.9602  0.5069
11912TIP3    H157151   2.816   4.879   2.508  1.7411 -1.5091  0.2349
11912TIP3    H257152   2.738   4.816   2.394 -1.3116  1.9845  0.3251
11913TIP3   OH257153   4.959   7.256   1.002  0.1695  0.1693  0.0448
11913TIP3    H157154   4.952   7.285   0.911 -0.0133 -1.3032 -0.4203
11913TIP3    H257155   4.886   7.300   1.047  1.1885  2.1241 -0.1770
11914TIP3   OH257156   5.426   3.024   1.863 -0.3321 -0.0762 -0.3403
11914TIP3    H157157   5.499   3.056   1.809 -0.3880  0.2986 -0.1964
11914TIP3    H257158   5.351   3.023   1.804 -0.3058 -0.0497 -0.3744
11915TIP3   OH257159   5.859   2.392  14.482  0.1792  0.2747  0.0322
11915TIP3    H157160   5.887   2.386  14.391  1.7736  0.5628  0.4949
11915TIP3    H257161   5.898   2.316  14.525  0.3145  0.7105  0.6955
11916TIP3   OH257162   0.607   5.895   0.310 -0.4983  0.5807  0.1613
11916TIP3    H157163   0.519   5.858   0.305  0.2521 -1.0086 -2.0789
11916TIP3    H257164   0.602   5.977   0.262 -1.2662  1.5894  1.9298
11917TIP3   OH257165   3.620   2.913  15.266  0.1344  0.1274 -0.3792
11917TIP3    H157166   3.592   2.844  15.205 -3.1664 -1.3544  2.6378
11917TIP3    H257167   3.691   2.873  15.316  1.2119  0.5010 -1.5876
11918TIP3   OH257168   3.095   5.756  14.641 -0.2715 -0.0371  0.0067
11918TIP3    H157169   3.134   5.678  14.681 -0.3182  0.0124  0.1476
11918TIP3    H257170   3.036   5.721  14.574 -0.9317 -0.1564  0.6350
11919TIP3   OH257171   1.696   0.911   2.363  0.7580  0.0729 -0.5224
11919TIP3    H157172   1.778   0.922   2.315  1.1675  0.6058  0.2924
11919TIP3    H257173   1.628   0.926   2.298  1.2870 -1.6532 -1.5199
11920TIP3   OH257174   5.465   4.941   1.565 -0.0335 -0.4788  0.6197
11920TIP3    H157175   5.471   4.847   1.548 -1.6954 -0.6344  0.7770
11920TIP3    H257176   5.373   4.962   1.550  0.3515  1.1569  0.4443
11921TIP3   OH257177   0.895   4.781  15.450 -0.2939 -0.1950 -0.0567
11921TIP3    H157178   0.987   4.790  15.423 -0.4890 -0.1399 -0.7208
11921TIP3    H257179   0.846   4.789  15.368 -0.8841 -0.3315  0.2850
11922TIP3   OH257180   6.541   4.307   3.901  0.6079  0.0955  0.0014
11922TIP3    H157181   6.489   4.277   3.827 -0.9493 -0.9432  1.4887
11922TIP3    H257182   6.523   4.401   3.906  0.4795  0.1143 -0.7190
11923TIP3   OH257183   4.887   5.551  14.412 -0.0944  0.7374  0.0618
11923TIP3    H157184   4.830   5.601  14.353 -1.2927  1.3959  1.7191
11923TIP3    H257185   4.974   5.586  14.396 -0.2503  0.2794 -1.9417
11924TIP3   OH257186   2.185   5.000   3.463 -0.4731 -0.3614 -0.8289
11924TIP3    H157187   2.110   4.982   3.518  1.2595 -0.2165  1.6476
11924TIP3    H257188   2.189   5.096   3.459  0.5215 -0.3373  0.4180
11925TIP3   OH257189   3.259   4.376  13.555  0.3734 -0.0056 -0.1863
11925TIP3    H157190   3.241   4.405  13.644 -2.1154 -0.1604 -0.6031
11925TIP3    H257191   3.299   4.452  13.513 -0.4049  0.7658  0.4647
11926TIP3   OH257192   0.649   6.575   1.309 -0.5724  0.2866 -0.4346
11926TIP3    H157193   0.613   6.486   1.311 -0.1450  0.1199  1.8790
11926TIP3    H257194   0.609   6.618   1.384  1.7306  1.0254  0.3917
11927TIP3   OH257195   1.470   5.542   0.240  0.1332 -0.4680  0.4965
11927TIP3    H157196   1.436   5.618   0.287  0.2899  0.5403 -0.9894
11927TIP3    H257197   1.396   5.481   0.236 -0.4779  0.2815  0.2879
11928TIP3   OH257198   0.477   6.517  15.654  0.0244  0.5474 -0.2493
11928TIP3    H157199   0.486   6.558  15.740 -1.4875  1.7423 -0.6331
11928TIP3    H257200   0.478   6.591  15.592 -1.2050 -0.1061 -1.0709
11929TIP3   OH257201   3.087   2.390   1.870  0.5168  0.4470 -0.3021
11929TIP3    H157202   3.051   2.360   1.787 -1.0296 -1.9680  1.1639
11929TIP3    H257203   3.181   2.395   1.855  0.2238  0.3743 -2.2987
11930TIP3   OH257204   3.341   2.594   0.613 -0.2000  0.3144 -0.0246
11930TIP3    H157205   3.364   2.590   0.521  1.2310  0.8548  0.2868
11930TIP3    H257206   3.259   2.642   0.616 -1.3401 -1.5151 -1.1713
11931TIP3   OH257207   6.752   6.170  15.627  0.2489 -0.3396 -0.6008
11931TIP3    H157208   6.774   6.089  15.674 -0.0545 -0.2093 -0.2284
11931TIP3    H257209   6.694   6.141  15.556  0.7866 -0.5508 -0.9546
11932TIP3   OH257210   1.846   3.221   1.041 -0.8281 -0.3215  0.2920
11932TIP3    H157211   1.815   3.284   0.976 -0.6195  0.7669  1.2209
11932TIP3    H257212   1.824   3.261   1.125  0.5425 -0.8583  0.9235
11933TIP3   OH257213   1.708   6.410   0.469  0.1329  0.3820 -0.1192
11933TIP3    H157214   1.759   6.337   0.436 -1.5673 -1.2047  0.6882
11933TIP3    H257215   1.748   6.432   0.553  0.2666 -0.0088 -0.0835
11934TIP3   OH257216   1.755   5.450   1.362  0.1499  0.4323 -0.2511
11934TIP3    H157217   1.698   5.389   1.410  0.3867 -1.1321 -1.9101
11934TIP3    H257218   1.827   5.396   1.330  1.0379  1.8427 -0.6760
11935TIP3   OH257219   7.262   3.520   2.090 -0.6323 -0.4172 -0.2874
11935TIP3    H157220   7.268   3.437   2.042  2.2346 -0.0988 -0.5471
11935TIP3    H257221   7.197   3.503   2.159 -3.2788 -1.5068 -2.9497
11936TIP3   OH257222   2.829   4.883   0.381  0.3382 -0.0453 -0.1091
11936TIP3    H157223   2.886   4.817   0.420  0.1903 -0.1452 -0.0601
11936TIP3    H257224   2.870   4.903   0.297  1.4201  1.2006  0.7039
11937TIP3   OH257225   2.697   1.871  15.471 -1.1446 -0.3865 -0.7957
11937TIP3    H157226   2.672   1.949  15.519 -2.9923 -1.4496  0.0263
11937TIP3    H257227   2.793   1.876  15.465 -0.9039  0.0389  2.5651
11938TIP3   OH257228   2.752   1.823   0.671 -0.6027  0.1854 -0.5048
11938TIP3    H157229   2.744   1.886   0.599  0.3956 -0.9008 -1.6071
11938TIP3    H257230   2.845   1.824   0.693 -0.5616 -0.9137 -0.5705
11939TIP3   OH257231   0.121   4.143   0.325  0.5969 -0.5623  0.6463
11939TIP3    H157232   0.115   4.147   0.420 -1.0386  1.5032  0.4965
11939TIP3    H257233   0.034   4.115   0.297  1.1292 -1.3565 -0.2504
11940TIP3   OH257234   3.812   6.406   0.402 -0.2031  0.8347  0.2437
11940TIP3    H157235   3.838   6.390   0.311  0.1297 -0.9273  0.6299
11940TIP3    H257236   3.717   6.392   0.402 -0.0203 -0.3928  0.4259
11941TIP3   OH257237   6.810   0.139   0.773 -0.0807  0.8568 -0.3174
11941TIP3    H157238   6.739   0.124   0.836  0.4493 -0.8450 -0.1067
11941TIP3    H257239   6.829   0.052   0.738  5.1302  0.3892  3.0731
11942TIP3   OH257240   0.631   5.746   0.570 -0.8814  0.0247  0.1238
11942TIP3    H157241   0.711   5.714   0.612 -0.9095  2.2943  2.0055
11942TIP3    H257242   0.662   5.787   0.489 -0.1732  0.5223  0.6384
11943TIP3   OH257243   3.794   3.831  15.561  0.2168  0.4073  0.0149
11943TIP3    H157244   3.705   3.824  15.526  0.6460 -0.8858 -0.8450
11943TIP3    H257245   3.838   3.893  15.503  0.8363 -1.4979 -1.6146
11944TIP3   OH257246   0.346   3.051   2.050  0.0165  0.4322  0.5088
11944TIP3    H157247   0.373   3.104   1.975  2.6927 -0.2219  0.9502
11944TIP3    H257248   0.428   3.030   2.095 -1.2853 -1.4938  2.0661
11945TIP3   OH257249   6.349   0.734   0.974  0.4192  0.2020  0.4666
11945TIP3    H157250   6.425   0.699   0.927  0.8382  1.0279  0.5233
11945TIP3    H257251   6.373   0.824   0.995 -0.1966  0.1728  1.3264
11946TIP3   OH257252   4.352   2.043   3.603 -0.1393 -0.6076  0.4838
11946TIP3    H157253   4.286   2.053   3.671 -0.8968 -0.8596 -0.1994
11946TIP3    H257254   4.399   1.963   3.627  0.4042 -0.0175  1.3739
11947TIP3   OH257255   7.219   0.748   0.092 -0.3558  0.5750 -0.3308
11947TIP3    H157256   7.308   0.779   0.112 -0.4413  0.3698  0.3802
11947TIP3    H257257   7.230   0.694   0.014  0.2768 -0.0879  0.2023
11948TIP3   OH257258   3.835   6.186   0.614 -0.2414 -0.1467  0.3090
11948TIP3    H157259   3.869   6.259   0.564 -0.7597 -1.0481 -1.3805
11948TIP3    H257260   3.825   6.115   0.551 -3.5870 -0.4622  1.0698
11949TIP3   OH257261   3.035   6.641   2.904  0.5458 -0.2959  0.7965
11949TIP3    H157262   3.076   6.556   2.923  0.7301 -0.2327  0.6894
11949TIP3    H257263   3.082   6.673   2.826 -0.3375 -0.6518  0.1125
11950TIP3   OH257264   7.119   6.995   0.344 -0.1196 -0.1017  0.2667
11950TIP3    H157265   7.154   6.906   0.355  2.7520  0.8077 -1.0181
11950TIP3    H257266   7.069   6.991   0.263  0.3502 -0.4702 -0.0104
11951TIP3   OH257267   4.019   6.706  15.782 -0.0405  0.3984 -0.2671
11951TIP3    H157268   4.039   6.800  15.786 -0.8522  0.6091 -1.1062
11951TIP3    H257269   4.104   6.664  15.794  0.8243  1.2832 -2.8050
11952TIP3   OH257270   3.149   3.457   1.439  0.5438 -0.9660  0.3852
11952TIP3    H157271   3.105   3.379   1.405 -0.6468 -0.1817  0.0701
11952TIP3    H257272   3.230   3.424   1.477  0.5340 -2.2303 -0.6331
11953TIP3   OH257273   1.235   6.467   0.262  0.3389  0.5913  0.4312
11953TIP3    H157274   1.165   6.481   0.198  0.3103  2.4092  0.8193
11953TIP3    H257275   1.314   6.498   0.217  0.8576 -1.1160  0.1269
11954TIP3   OH257276   7.085   0.525   2.709 -0.2641  0.5660 -0.3509
11954TIP3    H157277   7.178   0.527   2.729 -0.5360 -0.5536  1.1148
11954TIP3    H257278   7.059   0.617   2.708  0.1500  0.7851  2.8673
11955TIP3   OH257279   5.808   3.847  15.622  0.1209 -0.0895 -0.2593
11955TIP3    H157280   5.871   3.819  15.555  1.3913  0.7160  0.5724
11955TIP3    H257281   5.841   3.931  15.652 -0.9213 -0.0339  0.7669
11956TIP3   OH257282   4.396   6.799  14.193 -0.1858 -0.2137 -0.3652
11956TIP3    H157283   4.403   6.845  14.277  0.2849  0.6752 -0.8923
11956TIP3    H257284   4.311   6.754  14.198  0.6990 -1.7897  1.3800
11957TIP3   OH257285   2.079   4.455  15.753  0.7562  0.5380  0.2298
11957TIP3    H157286   2.163   4.472  15.796  1.3299 -1.6258  0.0042
11957TIP3    H257287   2.027   4.410  15.819  0.1621  0.8697 -0.0065
11958TIP3   OH257288   3.097   0.718  15.999  0.0069 -0.3210  0.3969
11958TIP3    H157289   3.143   0.761  15.927 -1.3831 -0.8018 -0.7911
11958TIP3    H257290   3.160   0.720  16.072  1.0320  1.1138 -0.4940
11959TIP3   OH257291   3.476   0.176  12.388 -0.0022  0.0214 -0.3941
11959TIP3    H157292   3.520   0.163  12.305  0.6985  0.9318 -0.1777
11959TIP3    H257293   3.384   0.190  12.365  0.1490  0.0280 -0.9868
11960TIP3   OH257294   0.758   0.923  14.650 -0.1718 -0.4499 -0.5880
11960TIP3    H157295   0.692   0.991  14.637  0.6195  0.0573 -2.0788
11960TIP3    H257296   0.793   0.906  14.563  3.0935  0.7189  0.4000
11961TIP3   OH257297   4.295   3.166  15.099 -0.2986 -0.8285 -0.0338
11961TIP3    H157298   4.283   3.186  15.192 -0.9050  1.7377 -0.6179
11961TIP3    H257299   4.359   3.230  15.069 -1.1448 -0.7087 -1.6730
11962TIP3   OH257300   4.798   4.183   3.359 -0.5792  0.4792 -0.2581
11962TIP3    H157301   4.821   4.157   3.448 -1.4995  0.6482  0.0380
11962TIP3    H257302   4.719   4.237   3.369  0.1371  1.7198 -1.0349
11963TIP3   OH257303   5.630   6.870  14.970 -0.7975  0.3079  0.0485
11963TIP3    H157304   5.569   6.810  14.926 -3.6596  2.4097  1.0305
11963TIP3    H257305   5.578   6.949  14.987  2.2675  2.2229  0.7947
11964TIP3   OH257306   1.712   6.958   1.272  0.4342 -1.1121 -0.1230
11964TIP3    H157307   1.619   6.947   1.253  0.3001 -0.3007  0.0329
11964TIP3    H257308   1.752   6.976   1.187  0.0414  1.1651  0.1583
11965TIP3   OH257309   6.505   4.158   2.305  0.5504 -0.5483  0.8846
11965TIP3    H157310   6.558   4.083   2.333  0.1337 -2.2287 -2.5438
11965TIP3    H257311   6.556   4.199   2.236 -1.1034 -0.1549 -0.1207
11966TIP3   OH257312   1.871   6.397  15.932  0.3661  0.2389  0.5427
11966TIP3    H157313   1.960   6.420  15.904  0.2528  1.2016  0.9451
11966TIP3    H257314   1.879   6.379  16.025  0.2755 -0.4380  0.4217
11967TIP3   OH257315   2.499   5.551  15.678  0.0431  0.0176  0.1729
11967TIP3    H157316   2.482   5.604  15.600  0.9183 -0.9152 -0.6606
11967TIP3    H257317   2.552   5.477  15.646 -1.7900 -1.7673  1.1902
11968TIP3   OH257318   5.096   4.316  14.695 -0.6418 -0.0126 -0.0522
11968TIP3    H157319   5.070   4.258  14.623 -1.4427 -1.5584  1.4162
11968TIP3    H257320   5.149   4.260  14.752  1.9837  1.8287 -0.5892
11969TIP3   OH257321   2.172   4.668   0.890 -0.3485 -0.5647 -0.2228
11969TIP3    H157322   2.209   4.679   0.803  0.3713 -2.1326 -0.1321
11969TIP3    H257323   2.233   4.608   0.934  0.2100  1.4622  1.8902
11970TIP3   OH257324   0.667   4.630   0.024 -0.1921  0.8687 -0.1933
11970TIP3    H157325   0.580   4.607  -0.007 -0.4534 -0.3731  1.4609
11970TIP3    H257326   0.715   4.548   0.027  0.8773  1.4645 -0.5702
11971TIP3   OH257327   4.433   5.024   0.177 -0.0833 -0.2157  0.0550
11971TIP3    H157328   4.392   4.999   0.260 -0.8937  0.5921 -0.0909
11971TIP3    H257329   4.439   4.942   0.128  0.3686 -0.6911  0.8893
11972TIP3   OH257330   2.125   6.478  15.553 -0.2090  0.0124  0.3232
11972TIP3    H157331   2.133   6.383  15.565 -2.0970 -0.2706 -0.4983
11972TIP3    H257332   2.063   6.506  15.620 -0.9212  0.4012 -0.4862
11973TIP3   OH257333   2.304   4.059   2.032 -0.7388 -0.4128  0.1095
11973TIP3    H157334   2.232   4.088   1.975 -1.2390 -2.1442 -0.1703
11973TIP3    H257335   2.382   4.100   1.995 -1.5049  1.0876  0.1177
11974TIP3   OH257336   2.177   2.975  15.472 -0.1595  0.1867 -0.2304
11974TIP3    H157337   2.082   2.963  15.474 -0.1056 -0.5359 -1.4170
11974TIP3    H257338   2.196   3.003  15.382  0.9075 -1.1071 -0.4165
11975TIP3   OH257339   1.886   4.348   1.681 -0.0049  0.1066 -0.1950
11975TIP3    H157340   1.935   4.393   1.750 -1.3056  2.0420 -0.4952
11975TIP3    H257341   1.950   4.335   1.611  0.4766  1.2876  0.0074
11976TIP3   OH257342   4.512   5.117  14.499 -0.2545 -0.3934 -0.3870
11976TIP3    H157343   4.509   5.075  14.585 -0.4901  0.8763  0.2331
11976TIP3    H257344   4.602   5.148  14.491  0.1139 -1.6245 -1.1517
11977TIP3   OH257345   4.412   5.455   1.011 -0.0384 -0.4794 -0.6159
11977TIP3    H157346   4.417   5.428   0.919 -1.8049 -1.2159 -0.5077
11977TIP3    H257347   4.462   5.388   1.058  1.3394  0.1997 -1.0848
11978TIP3   OH257348   5.786   3.434  14.398  0.6175  0.3116 -0.6967
11978TIP3    H157349   5.738   3.386  14.331  1.4825 -0.1802 -0.9554
11978TIP3    H257350   5.749   3.403  14.481  0.4892 -0.0573 -0.8935
11979TIP3   OH257351   2.235   3.998   0.630  0.3261  0.7160 -0.2515
11979TIP3    H157352   2.302   4.019   0.695  0.3096  1.3384 -0.4333
11979TIP3    H257353   2.158   3.973   0.681  0.8478 -0.5076 -0.0403
11980TIP3   OH257354   2.406   3.083   2.337 -0.0224 -0.1188 -0.3500
11980TIP3    H157355   2.352   3.007   2.315  0.3311  0.1119 -2.0657
11980TIP3    H257356   2.369   3.154   2.284  1.0541  0.3825 -0.4319
11981TIP3   OH257357   2.777   6.072   3.222 -0.2070 -0.0314  0.6270
11981TIP3    H157358   2.716   6.087   3.294 -1.1500 -1.3157  0.1184
11981TIP3    H257359   2.782   6.156   3.177  0.6174  0.8695  2.3395
11982TIP3   OH257360   1.169   6.481  14.042  0.8134  0.1801 -0.5815
11982TIP3    H157361   1.205   6.478  13.953  0.2854  0.3543 -0.7990
11982TIP3    H257362   1.174   6.573  14.067  3.0868 -0.1982  0.4445
11983TIP3   OH257363   2.526   5.195  15.768  0.1663 -0.3094  0.3987
11983TIP3    H157364   2.559   5.159  15.686  0.4476 -1.0304  0.8245
11983TIP3    H257365   2.437   5.162  15.775  0.1636 -0.3000  0.4108
11984TIP3   OH257366   0.580   4.409   0.166  0.3125  0.1647 -0.4631
11984TIP3    H157367   0.521   4.403   0.092 -0.9131 -0.4060  0.5430
11984TIP3    H257368   0.607   4.319   0.183  2.2301  0.5104 -1.4960
11985TIP3   OH257369   2.508   6.245   1.187  0.5088  0.0108  0.5066
11985TIP3    H157370   2.413   6.251   1.176  0.7629  1.9668 -0.8907
11985TIP3    H257371   2.524   6.153   1.209 -1.2973 -1.3915 -3.5911
11986TIP3   OH257372   3.191   0.656   0.955 -0.2006 -0.5296 -0.5656
11986TIP3    H157373   3.207   0.562   0.962  1.0077 -0.3397 -0.6398
11986TIP3    H257374   3.208   0.690   1.042 -0.6318 -0.3761 -0.5411
11987TIP3   OH257375   2.652   4.966   1.332  0.3717 -0.0432  0.0958
11987TIP3    H157376   2.620   4.909   1.263 -0.0488  1.1317 -0.6991
11987TIP3    H257377   2.618   5.053   1.309  2.0705  0.7684  0.5951
11988TIP3   OH257378   5.547   5.392  15.572 -0.1193 -0.0896 -0.1149
11988TIP3    H157379   5.482   5.323  15.586  2.1187 -2.0058  1.1400
11988TIP3    H257380   5.529   5.424  15.483 -1.4959 -1.9576 -0.5436
11989TIP3   OH257381   2.566   4.308   3.826 -0.2327 -0.0694  0.4582
11989TIP3    H157382   2.610   4.246   3.768  0.1073  1.4576 -0.9469
11989TIP3    H257383   2.566   4.391   3.778 -0.7855  1.0042  2.2520
11990TIP3   OH257384   1.181   5.316   2.541 -0.4304 -0.4380 -0.2814
11990TIP3    H157385   1.121   5.296   2.468  0.5268  0.5969 -1.3861
11990TIP3    H257386   1.268   5.300   2.505  0.0939  0.8516  0.3693
11991TIP3   OH257387   5.988   7.235   4.225 -0.4765 -0.0363 -0.0783
11991TIP3    H157388   6.067   7.187   4.203 -1.2503 -0.6711 -1.5588
11991TIP3    H257389   6.019   7.317   4.264  0.8809 -0.6085  0.0568
11992TIP3   OH257390   6.446   5.244   2.300  0.1235  0.0094 -0.0631
11992TIP3    H157391   6.486   5.228   2.386  3.5147 -0.5093 -1.6319
11992TIP3    H257392   6.434   5.157   2.263  0.3290  0.2853 -0.7923
11993TIP3   OH257393   3.856   3.509   1.488 -0.0943  0.1178 -0.2414
11993TIP3    H157394   3.845   3.600   1.461  0.4544 -0.1749 -1.4837
11993TIP3    H257395   3.927   3.511   1.552  0.1579  0.5024 -0.5367
11994TIP3   OH257396   6.495   6.974   0.915 -0.1412 -0.8938  0.4369
11994TIP3    H157397   6.562   6.918   0.875  0.3787 -1.0971  1.5626
11994TIP3    H257398   6.445   7.008   0.841  2.0434  0.3276 -0.5127
11995TIP3   OH257399   2.092   7.272   0.751  0.0601  0.5074 -0.0106
11995TIP3    H157400   2.104   7.362   0.779  1.1856  0.3145  0.1434
11995TIP3    H257401   2.000   7.253   0.770  0.7874  0.3519  3.5911
11996TIP3   OH257402   6.617   7.164   1.436  0.1993 -0.1192  0.3283
11996TIP3    H157403   6.651   7.102   1.501 -0.6312  0.2571  1.1189
11996TIP3    H257404   6.537   7.198   1.475 -0.1215  0.3635 -0.7495
11997TIP3   OH257405   1.163   1.931   0.551  0.2033 -0.4344  0.3290
11997TIP3    H157406   1.183   1.843   0.581  1.1850 -0.2628  0.1978
11997TIP3    H257407   1.232   1.951   0.487  2.0620  1.7590  2.9109
11998TIP3   OH257408   2.712   4.180   5.472 -0.0757 -0.2980 -0.3781
11998TIP3    H157409   2.747   4.215   5.390 -1.1803  0.5799 -0.5041
11998TIP3    H257410   2.783   4.130   5.510  0.3266 -1.0507 -2.0810
11999TIP3   OH257411   3.257   5.780   1.548  0.3378 -0.0043  0.5116
11999TIP3    H157412   3.172   5.743   1.524  0.9349 -0.3920 -1.0539
11999TIP3    H257413   3.296   5.715   1.606 -0.1092 -0.1767  0.6242
12000TIP3   OH257414   2.077   5.331   1.824 -0.8911 -0.2919  0.2400
12000TIP3    H157415   2.100   5.295   1.910 -1.1420  0.7984  0.7783
12000TIP3    H257416   1.988   5.299   1.808 -0.5843 -1.0678  0.0627
12001TIP3   OH257417   0.281   3.735   1.772 -0.8923  0.8858  0.0795
12001TIP3    H157418   0.281   3.666   1.838  2.4101 -2.2318 -2.9347
12001TIP3    H257419   0.356   3.790   1.796 -0.3750  0.4031 -0.4203
12002TIP3   OH257420   3.983   4.460  15.721 -0.0763  0.1839  0.1818
12002TIP3    H157421   3.888   4.459  15.710 -0.2202  0.6371  1.3076
12002TIP3    H257422   4.009   4.368  15.712 -0.6922 -0.0136  0.3914
12003TIP3   OH257423   1.134   5.965   0.124  0.0992 -0.0526 -0.6456
12003TIP3    H157424   1.215   5.949   0.172  0.1372  0.4598 -0.5431
12003TIP3    H257425   1.096   5.878   0.112 -0.2351 -0.1248  0.8681
12004TIP3   OH257426   0.074   3.397   0.683 -0.3329  0.4773 -0.5084
12004TIP3    H157427   0.046   3.396   0.592  1.1326 -0.0360 -0.9591
12004TIP3    H257428   0.168   3.380   0.680 -0.1666  1.0436  1.0590
12005TIP3   OH257429   2.820   4.992  15.060 -0.3738  0.3730  0.0572
12005TIP3    H157430   2.807   5.017  15.152 -0.9372  2.7294 -0.6201
12005TIP3    H257431   2.731   4.991  15.024 -0.1028 -0.0466 -0.5929
12006TIP3   OH257432   3.916   4.164   0.376  0.0250  0.7005  0.3029
12006TIP3    H157433   3.941   4.108   0.303 -0.4248  3.0886 -1.7291
12006TIP3    H257434   3.982   4.146   0.443 -0.9685 -3.3150  0.2934
12007TIP3   OH257435   2.112   3.832   2.470  1.0501  0.2121 -0.5660
12007TIP3    H157436   2.042   3.775   2.500 -0.7207  1.7830 -1.5956
12007TIP3    H257437   2.106   3.910   2.526  1.1668  0.8874 -1.4725
12008TIP3   OH257438   7.248   3.232   2.726 -0.0869 -0.0223  0.2172
12008TIP3    H157439   7.329   3.282   2.734  1.2235 -1.5599 -2.7130
12008TIP3    H257440   7.184   3.294   2.693  0.4702  0.6591  0.4087
12009TIP3   OH257441   3.251   2.883   3.981 -0.0499  0.0833  0.1940
12009TIP3    H157442   3.194   2.896   3.905  0.7553 -2.0578 -0.8284
12009TIP3    H257443   3.270   2.972   4.012 -1.1263  0.9630 -1.5454
12010TIP3   OH257444   5.788   6.405  15.523  0.0195  0.5517 -0.0728
12010TIP3    H157445   5.735   6.330  15.549 -0.1907  0.3503 -1.0401
12010TIP3    H257446   5.795   6.459  15.601  1.4629 -1.2436  1.0589
12011TIP3   OH257447   2.336   5.472   4.045 -0.1593 -0.0346 -0.0186
12011TIP3    H157448   2.347   5.409   3.974 -1.0758 -0.4992  0.2369
12011TIP3    H257449   2.242   5.490   4.046  0.0409  0.9936  0.2021
12012TIP3   OH257450   7.139   5.002   0.645  0.1910  0.4239 -0.1329
12012TIP3    H157451   7.213   5.057   0.618  0.4961  1.1401  2.0620
12012TIP3    H257452   7.168   4.962   0.727 -0.8920 -1.3210 -0.5691
12013TIP3   OH257453   1.233   7.191   5.698  0.5265  0.2855  0.1863
12013TIP3    H157454   1.223   7.271   5.645 -3.7169  0.0764  0.5145
12013TIP3    H257455   1.260   7.223   5.784 -0.8690  1.3567  0.2423
12014TIP3   OH257456   1.380   5.826  15.692  0.4719 -0.0583  0.0630
12014TIP3    H157457   1.371   5.809  15.598  0.2115 -0.6348  0.1902
12014TIP3    H257458   1.395   5.740  15.731 -1.3180 -0.0784  0.7692
12015TIP3   OH257459   1.344   6.274   0.503  0.1566 -0.2375 -0.0185
12015TIP3    H157460   1.425   6.325   0.514  0.8725 -0.9475 -1.7035
12015TIP3    H257461   1.322   6.286   0.410 -1.1698 -0.8119  0.2136
12016TIP3   OH257462   5.195   6.516  14.569  0.0241 -0.3753 -0.8173
12016TIP3    H157463   5.210   6.422  14.576  2.9117  0.1909  1.6188
12016TIP3    H257464   5.238   6.542  14.487 -0.7602 -1.1364 -1.4794
12017TIP3   OH257465   2.353   0.020  12.062  0.2118  0.4109 -0.2796
12017TIP3    H157466   2.343   0.085  12.131 -0.8206  0.6590 -0.6488
12017TIP3    H257467   2.274   0.030  12.009  1.0118  0.2382 -1.5059
12018TIP3   OH257468   3.556   4.809   1.726 -0.5835  0.7510  0.6625
12018TIP3    H157469   3.540   4.766   1.642 -0.2868  1.3253  0.3048
12018TIP3    H257470   3.582   4.739   1.785  2.8831  0.8172 -0.6686
12019TIP3   OH257471   1.333   0.672   1.028 -0.6887  0.0729  0.6436
12019TIP3    H157472   1.254   0.721   1.047  0.2355  0.9428  2.3404
12019TIP3    H257473   1.376   0.661   1.113 -0.0180 -2.1829  0.0530
12020TIP3   OH257474   3.137   6.708   1.724  0.1570 -0.1239  0.0887
12020TIP3    H157475   3.090   6.713   1.641  0.4956 -1.1468 -0.1732
12020TIP3    H257476   3.117   6.790   1.769  0.0721  0.4813 -1.0561
12021TIP3   OH257477   2.873   6.826   0.947  0.3551 -0.2596  0.6143
12021TIP3    H157478   2.811   6.878   0.897 -1.6826 -2.3379  0.9139
12021TIP3    H257479   2.943   6.888   0.971 -1.1589  1.9043 -0.4496
12022TIP3   OH257480   2.971   5.529   0.952 -0.0219  0.0240  0.3584
12022TIP3    H157481   2.953   5.537   0.858  0.3219 -1.2404  0.1736
12022TIP3    H257482   3.035   5.459   0.958 -0.2738 -0.1141  1.5771
12023TIP3   OH257483   1.831   5.242  13.002 -0.1020  0.4070  0.0340
12023TIP3    H157484   1.904   5.188  12.971  0.6236  1.3370  0.0845
12023TIP3    H257485   1.862   5.279  13.085 -0.6273  0.8097  0.0569
12024TIP3   OH257486   0.129   5.678  15.135 -0.3083  0.1624 -0.2373
12024TIP3    H157487   0.070   5.736  15.184  0.3295  0.9914 -0.4352
12024TIP3    H257488   0.216   5.713  15.152  0.0174 -0.2623 -1.0098
12025TIP3   OH257489   1.415   6.209   4.057 -0.1465  0.0081  0.0663
12025TIP3    H157490   1.396   6.204   4.151 -2.7601 -1.3426 -0.4729
12025TIP3    H257491   1.413   6.118   4.028  0.0488  0.4704 -1.4138
12026TIP3   OH257492   1.897   5.839   1.091  0.6000  0.1586  0.0041
12026TIP3    H157493   1.871   5.881   1.009  0.1546 -1.0974 -0.5201
12026TIP3    H257494   1.836   5.765   1.099  2.7535 -1.6880 -0.2500
12027TIP3   OH257495   2.578   4.627   0.652 -0.5198 -0.2303  0.0669
12027TIP3    H157496   2.555   4.543   0.690 -2.2545  0.1288 -0.1548
12027TIP3    H257497   2.670   4.640   0.675 -0.1892 -2.2594 -0.0568
12028TIP3   OH257498   5.257   3.877   0.404 -0.6432 -0.1743 -0.2299
12028TIP3    H157499   5.288   3.922   0.326  2.2506 -1.6472 -0.0156
12028TIP3    H257500   5.215   3.945   0.456 -0.1279  1.3936 -1.8155
12029TIP3   OH257501   3.055   5.893   2.813 -0.1952  0.6434  0.0794
12029TIP3    H157502   3.006   5.922   2.890  0.2886  0.9205  0.2867
12029TIP3    H257503   3.132   5.849   2.849 -1.0809 -1.1915 -0.2327
12030TIP3   OH257504   0.912   2.825   3.622 -0.2019  0.9719  0.0921
12030TIP3    H157505   0.949   2.737   3.621  1.9049  1.7829  1.4909
12030TIP3    H257506   0.820   2.812   3.643 -0.2462 -0.9756 -1.1792
12031TIP3   OH257507   6.461   7.112   4.679 -0.2824 -0.0113  0.4999
12031TIP3    H157508   6.476   7.139   4.770  0.1645 -0.1346  0.4636
12031TIP3    H257509   6.488   7.188   4.627 -0.4144  0.0103  0.4640
12032TIP3   OH257510   4.015   0.527  14.045  0.4050 -0.6535  0.0701
12032TIP3    H157511   3.960   0.492  14.114 -0.5600 -1.8204 -1.2644
12032TIP3    H257512   4.053   0.450  14.003 -1.5944 -0.1446 -2.7795
12033TIP3   OH257513   1.178   4.039  15.160 -0.2902 -0.0971 -0.0534
12033TIP3    H157514   1.114   4.099  15.120  1.9785  1.5050 -1.4107
12033TIP3    H257515   1.175   4.061  15.253 -3.1762 -1.5056  0.2557
12034TIP3   OH257516   1.762   5.102   0.011  0.4024  0.1317  0.5383
12034TIP3    H157517   1.769   5.032   0.075 -2.3087 -1.0275 -0.3785
12034TIP3    H257518   1.736   5.179   0.063 -2.6486 -1.0037  0.7519
12035TIP3   OH257519   1.906   5.291   5.850 -0.4604 -0.4157 -0.5914
12035TIP3    H157520   1.886   5.362   5.789 -0.1578 -0.9459 -1.3279
12035TIP3    H257521   1.842   5.299   5.920 -1.3095 -0.2563 -1.3793
12036TIP3   OH257522   4.739   6.831   1.152 -0.3286 -0.1677 -0.5050
12036TIP3    H157523   4.647   6.807   1.160  0.2181 -1.8816  1.1355
12036TIP3    H257524   4.747   6.914   1.199 -1.1494  0.2866 -1.1656
12037TIP3   OH257525   7.084   3.511  13.195 -0.1964 -0.6567 -0.0509
12037TIP3    H157526   7.061   3.529  13.104 -3.5598 -2.5638  0.3306
12037TIP3    H257527   7.106   3.418  13.197 -0.9525 -0.8273  1.1943
12038TIP3   OH257528   3.379   2.809  15.450 -0.1103  0.3789 -0.6369
12038TIP3    H157529   3.432   2.857  15.514 -0.1210  0.3256 -0.5886
12038TIP3    H257530   3.442   2.753  15.404 -0.0288  0.7573 -0.9857
12039TIP3   OH257531   5.085   3.006   2.215  0.3120 -0.7086  0.0848
12039TIP3    H157532   5.088   2.919   2.255 -1.2454 -0.7468  0.1364
12039TIP3    H257533   4.992   3.026   2.207  0.6338  0.1361 -1.7398
12040TIP3   OH257534   1.107   1.990   5.160  0.0086 -0.2425  0.2755
12040TIP3    H157535   1.198   2.011   5.141  0.1297 -0.0883  1.0135
12040TIP3    H257536   1.083   2.048   5.232 -1.9975  2.8052 -2.6702
12041TIP3   OH257537   5.148   3.610   0.298 -0.1661  0.0535  0.1996
12041TIP3    H157538   5.157   3.691   0.347  2.4350 -0.5595  0.8311
12041TIP3    H257539   5.059   3.612   0.263 -0.4981  2.6383  1.1176
12042TIP3   OH257540   1.262   5.388   0.187 -0.6410  0.0376 -0.3109
12042TIP3    H157541   1.242   5.371   0.095  0.7386  1.4318 -0.8816
12042TIP3    H257542   1.176   5.400   0.227 -1.2246  0.1955 -1.5651
12043TIP3   OH257543   1.924   7.116   2.974  0.4838 -0.3221  0.1035
12043TIP3    H157544   1.833   7.144   2.971  0.0574 -1.4960  1.4800
12043TIP3    H257545   1.938   7.071   2.891  0.5020  1.8280 -1.1079
12044TIP3   OH257546   2.545   1.264   5.222  0.5657 -0.3608  0.9837
12044TIP3    H157547   2.497   1.347   5.222  1.6192  0.2579  0.7257
12044TIP3    H257548   2.635   1.289   5.243  0.9311 -1.4169  0.6774
12045TIP3   OH257549   7.092   0.632  14.747 -0.0648  0.8413  0.0263
12045TIP3    H157550   7.114   0.600  14.834 -0.7023  1.8983  0.5897
12045TIP3    H257551   7.160   0.597  14.690 -1.3444 -2.4511  0.4119
12046TIP3   OH257552   1.551   6.955   1.989  0.0121 -0.3359  0.3782
12046TIP3    H157553   1.641   6.988   1.982 -0.4763  1.1226  0.8087
12046TIP3    H257554   1.544   6.891   1.919  1.2541 -0.1435  0.0542
12047TIP3   OH257555   1.943   1.654   2.454  0.4317 -0.3867  0.1232
12047TIP3    H157556   2.012   1.587   2.450  0.0754 -0.9040  1.9743
12047TIP3    H257557   1.952   1.703   2.372  2.9377 -0.5150  0.2651
12048TIP3   OH257558   3.135   1.812   1.379 -0.2784  0.1506 -0.3675
12048TIP3    H157559   3.115   1.751   1.450 -0.4964 -1.9517 -2.1710
12048TIP3    H257560   3.086   1.892   1.401 -0.6408 -0.5958  1.6262
12049TIP3   OH257561   4.991   4.599   3.859  0.4722 -0.3284 -0.0323
12049TIP3    H157562   5.024   4.644   3.936  0.7132 -0.3981 -0.0924
12049TIP3    H257563   5.055   4.529   3.843  0.0794 -0.7164  0.0833
12050TIP3   OH257564   0.865   6.149  15.563 -0.9713  0.1916 -0.6918
12050TIP3    H157565   0.892   6.232  15.522  0.2889  1.1917  2.0233
12050TIP3    H257566   0.940   6.091  15.549 -0.6747  0.4317 -0.1425
12051TIP3   OH257567   5.884   4.783   5.275  0.3028 -0.2670 -0.5714
12051TIP3    H157568   5.853   4.870   5.301 -0.4385 -0.5693 -0.4204
12051TIP3    H257569   5.829   4.760   5.200  0.0647 -0.8634 -0.2240
12052TIP3   OH257570   3.408   6.876   2.084  0.0396  0.1262  0.2704
12052TIP3    H157571   3.466   6.927   2.028  0.5041 -0.1450  0.4989
12052TIP3    H257572   3.420   6.786   2.055 -1.5123  0.2455 -0.7823
12053TIP3   OH257573   1.689   2.952   4.527  0.1525  0.1842 -0.3179
12053TIP3    H157574   1.755   2.883   4.520 -0.3903 -0.3414 -0.2888
12053TIP3    H257575   1.606   2.906   4.520 -0.3222  0.3656  3.3893
12054TIP3   OH257576   2.246   7.231   1.772  0.2973 -0.5294 -0.3288
12054TIP3    H157577   2.259   7.163   1.706  2.9747 -1.3130  0.9327
12054TIP3    H257578   2.266   7.187   1.855  1.7109  1.7063  0.5362
12055TIP3   OH257579   4.315   2.638   1.455 -0.5173 -0.5876 -0.1615
12055TIP3    H157580   4.356   2.558   1.421  1.5494  0.5398 -0.4575
12055TIP3    H257581   4.268   2.675   1.380 -0.2141 -0.7527 -0.4334
12056TIP3   OH257582   3.764   4.997   1.804  0.2432 -0.0661 -0.8982
12056TIP3    H157583   3.789   5.000   1.711  2.1867  0.6138 -0.3835
12056TIP3    H257584   3.755   4.904   1.822  1.1117 -0.2760 -1.4711
12057TIP3   OH257585   1.254   4.736  15.055  0.5210  0.2969 -0.4154
12057TIP3    H157586   1.236   4.646  15.029  1.2637 -0.2302  0.8160
12057TIP3    H257587   1.277   4.781  14.974  1.2222 -0.8916 -0.8843
12058TIP3   OH257588   6.589   5.026  14.495 -0.1421  0.0247  0.3254
12058TIP3    H157589   6.635   5.037  14.412  0.6171  1.8074  0.9645
12058TIP3    H257590   6.575   5.115  14.527 -3.4913 -0.4898  0.4742
12059TIP3   OH257591   3.447   4.959   0.208 -0.4723  0.0482  0.8488
12059TIP3    H157592   3.435   4.977   0.115  0.4177  1.0191  0.8999
12059TIP3    H257593   3.470   5.044   0.245  2.2235 -0.8616  1.4081
12060TIP3   OH257594   0.325   2.900  15.744 -0.1298 -0.7055 -0.1582
12060TIP3    H157595   0.415   2.921  15.771  0.4466 -1.3241 -1.5112
12060TIP3    H257596   0.319   2.805  15.753 -0.3838 -0.7545 -0.8112
12061TIP3   OH257597   7.236   4.466  14.575  0.2896 -0.1878 -0.0855
12061TIP3    H157598   7.322   4.494  14.606 -1.1132  2.8529  1.2814
12061TIP3    H257599   7.188   4.441  14.654  0.0970 -2.5252 -0.9022
12062TIP3   OH257600   3.386   2.862   1.838 -0.2113  0.2556 -0.2057
12062TIP3    H157601   3.477   2.876   1.864 -0.0277  0.2936 -0.8584
12062TIP3    H257602   3.391   2.835   1.746 -0.8798  0.5804 -0.3418
12063TIP3   OH257603   0.012   0.561   0.562  0.0364 -0.0482 -0.1079
12063TIP3    H157604  -0.035   0.546   0.644 -2.1742  0.0897 -1.3180
12063TIP3    H257605  -0.017   0.647   0.533  0.6717 -0.1698 -1.1361
12064TIP3   OH257606   5.634   5.085  13.708  0.0988  0.5222  0.5690
12064TIP3    H157607   5.592   5.167  13.734 -1.4467 -0.5315  1.4709
12064TIP3    H257608   5.612   5.024  13.778  2.2632 -0.3537  0.5213
12065TIP3   OH257609   5.623   5.212   0.206  0.6502 -0.5790  0.0821
12065TIP3    H157610   5.628   5.297   0.163  0.0806  0.0401  1.2298
12065TIP3    H257611   5.651   5.228   0.296  2.3967 -1.9705 -0.1759
12066TIP3   OH257612   2.951   3.911  15.904  0.4304  0.0696  0.5078
12066TIP3    H157613   2.945   3.820  15.876 -0.5058  0.0841  0.6670
12066TIP3    H257614   2.861   3.939  15.917  0.6950  1.1184  0.1602
12067TIP3   OH257615   7.068   3.142   4.713  0.3765  0.1768 -0.0702
12067TIP3    H157616   7.018   3.191   4.648 -1.2965 -0.8608  0.4237
12067TIP3    H257617   7.128   3.207   4.751 -0.2264  1.3042 -1.0116
12068TIP3   OH257618   1.903   5.432  15.524 -0.1124  0.0654 -0.2200
12068TIP3    H157619   1.938   5.454  15.437 -0.4314 -1.2503 -0.6882
12068TIP3    H257620   1.950   5.491  15.583  1.1554 -0.0094 -1.1132
12069TIP3   OH257621   0.707   2.722   3.090 -0.5497 -0.0306 -0.1291
12069TIP3    H157622   0.615   2.696   3.092 -0.3164 -0.8080  0.8198
12069TIP3    H257623   0.745   2.672   3.017 -1.0481  0.9149 -1.0559
12070TIP3   OH257624   2.953   5.404   1.229 -0.3379  0.1271  0.1231
12070TIP3    H157625   2.970   5.458   1.152 -0.1985 -2.1326 -1.4632
12070TIP3    H257626   2.859   5.388   1.227 -0.6591  1.5971  1.5151
12071TIP3   OH257627   3.581   6.815   0.806 -0.5847  0.1449  0.8079
12071TIP3    H157628   3.674   6.793   0.798 -0.1525  2.7418 -2.3473
12071TIP3    H257629   3.540   6.734   0.836  2.1210 -2.3856 -1.9874
12072TIP3   OH257630   3.443   4.822  15.487 -1.1774 -0.5430 -0.3108
12072TIP3    H157631   3.458   4.914  15.467  1.0372 -0.7814  0.1463
12072TIP3    H257632   3.413   4.822  15.578  0.8115 -0.3970  0.3729
12073TIP3   OH257633   3.104   4.944   2.499 -0.4536  0.2784  0.2992
12073TIP3    H157634   3.085   5.011   2.565 -0.8079  0.9791 -0.5089
12073TIP3    H257635   3.070   4.979   2.417 -0.4501 -0.7975 -0.1825
12074TIP3   OH257636   2.565   6.109   3.731 -0.3483 -0.2345  0.0691
12074TIP3    H157637   2.657   6.098   3.706  0.2074  1.5441  1.2272
12074TIP3    H257638   2.542   6.028   3.777  0.2004 -1.2862 -1.4955
12075TIP3   OH257639   4.974   5.892   0.915 -0.4789  0.1199  0.4732
12075TIP3    H157640   4.960   5.886   1.009  0.8009 -0.2006  0.6459
12075TIP3    H257641   4.948   5.806   0.881 -0.7158  0.1587  0.5508
12076TIP3   OH257642   2.476   6.747   0.024 -1.0272  0.0804 -0.2760
12076TIP3    H157643   2.527   6.718  -0.051 -0.2091  0.9888 -0.0796
12076TIP3    H257644   2.429   6.668   0.053 -0.2533 -0.6082 -0.8679
12077TIP3   OH257645   4.588   5.971   5.210 -0.1736  0.3422  0.4713
12077TIP3    H157646   4.583   5.877   5.227 -1.0473  0.5067  1.1615
12077TIP3    H257647   4.530   5.984   5.134  1.2891  0.0769 -0.7155
12078TIP3   OH257648   5.318   5.494   0.643  0.5909 -0.1825 -0.7623
12078TIP3    H157649   5.268   5.419   0.610  0.6207 -0.3430 -0.4465
12078TIP3    H257650   5.256   5.567   0.642  0.6801 -0.1141 -1.4664
12079TIP3   OH257651   1.559   4.914   2.220 -0.2955  0.0099 -0.7083
12079TIP3    H157652   1.482   4.859   2.209  0.0205 -0.2114 -1.8050
12079TIP3    H257653   1.633   4.859   2.196 -0.1133  1.4199 -3.6083
12080TIP3   OH257654   3.725   4.598   1.790  0.2661  0.6678  0.3850
12080TIP3    H157655   3.743   4.588   1.697  1.0177  0.2808  0.5582
12080TIP3    H257656   3.686   4.514   1.816  3.0004 -0.4902  1.0494
12081TIP3   OH257657   0.751   3.292   1.057 -0.5050  0.3127 -0.1637
12081TIP3    H157658   0.719   3.374   1.021 -1.0431  0.2679  0.2083
12081TIP3    H257659   0.730   3.297   1.150 -0.8606 -0.3970 -0.2002
12082TIP3   OH257660   1.106   7.230   0.662 -0.2384  0.3773  0.7101
12082TIP3    H157661   1.104   7.136   0.683 -2.0527 -0.2961 -2.1302
12082TIP3    H257662   1.022   7.263   0.694 -0.3149  0.6677  0.2093
12083TIP3   OH257663   0.923   1.070   3.088  0.1963  0.1996  0.1176
12083TIP3    H157664   0.945   1.144   3.032 -2.4720 -0.6507 -2.1500
12083TIP3    H257665   0.872   1.012   3.033 -0.6120 -1.7723  2.8166
12084TIP3   OH257666   2.709   6.429   1.252 -0.6781  0.2842  0.3666
12084TIP3    H157667   2.665   6.375   1.187  1.3058 -1.5184  0.4845
12084TIP3    H257668   2.762   6.368   1.302 -1.3952  1.7756  3.0710
12085TIP3   OH257669   4.039   5.135   2.992  0.1751 -0.1563  0.0101
12085TIP3    H157670   3.981   5.068   2.955  0.1214  0.4763 -1.0714
12085TIP3    H257671   4.126   5.095   2.991 -0.0939 -0.7817  0.8220
12086TIP3   OH257672   6.449   4.655   2.517  0.0976 -0.3024 -0.2921
12086TIP3    H157673   6.387   4.588   2.489 -0.1019 -0.2564  0.0288
12086TIP3    H257674   6.455   4.715   2.443  0.4573 -0.8005 -0.6652
12087TIP3   OH257675   0.332   6.898   2.105 -0.0488  0.0541 -0.3052
12087TIP3    H157676   0.291   6.903   2.019  1.1658 -1.4634 -0.9799
12087TIP3    H257677   0.272   6.946   2.162 -1.6227 -0.2075 -1.7030
12088TIP3   OH257678   2.035   5.325   1.405 -0.2831  0.0466  0.4449
12088TIP3    H157679   2.076   5.296   1.323 -1.3416  0.4920 -0.2521
12088TIP3    H257680   2.016   5.244   1.452 -3.1055 -0.4502 -1.4366
12089TIP3   OH257681   1.943   5.559  14.385 -0.2436 -0.0419  0.2270
12089TIP3    H157682   1.915   5.646  14.414 -1.1895 -1.2140  3.0561
12089TIP3    H257683   1.861   5.511  14.371  0.2763 -0.6458 -0.7575
12090TIP3   OH257684   4.889   5.904   1.187 -0.0731 -0.1289 -0.1078
12090TIP3    H157685   4.920   5.854   1.263 -0.5845 -1.0539 -0.5060
12090TIP3    H257686   4.896   5.995   1.215  0.9821 -0.4022  0.5849
12091TIP3   OH257687   3.437   4.974   6.152 -0.3375 -0.6613  0.5654
12091TIP3    H157688   3.532   4.981   6.167 -0.4981  0.0794  1.2307
12091TIP3    H257689   3.418   4.881   6.167  0.6540 -1.2652 -1.7352
12092TIP3   OH257690   2.720   6.357   5.019  0.0606 -0.0249 -0.1064
12092TIP3    H157691   2.806   6.400   5.016  0.3345 -0.3750  1.9758
12092TIP3    H257692   2.738   6.270   5.053 -1.1377 -0.0646  0.4343
12093TIP3   OH257693   3.339   3.167   0.405  0.6162 -0.7665 -0.1573
12093TIP3    H157694   3.411   3.218   0.443 -0.1952 -0.5802  1.1533
12093TIP3    H257695   3.268   3.231   0.395 -0.4370 -1.6280  1.5797
12094TIP3   OH257696   0.804   6.237   4.245  0.3480  0.3117  0.6703
12094TIP3    H157697   0.890   6.261   4.280  0.7550 -0.4077  0.1783
12094TIP3    H257698   0.809   6.259   4.152  0.3926 -0.7760  0.4122
12095TIP3   OH257699   4.763   5.476   2.524 -0.0852  0.4081  0.1847
12095TIP3    H157700   4.816   5.414   2.574 -3.2035 -1.1550  1.6719
12095TIP3    H257701   4.771   5.447   2.433 -0.5165 -1.4747  0.7241
12096TIP3   OH257702   3.882   5.414   3.225 -0.0317  0.9268 -0.5809
12096TIP3    H157703   3.807   5.460   3.187 -0.4789 -0.0628 -0.9159
12096TIP3    H257704   3.843   5.341   3.273  0.5365  1.9300  1.4826
12097TIP3   OH257705   3.728   5.165   0.165 -0.2595  0.9650 -0.2973
12097TIP3    H157706   3.755   5.224   0.236  1.1377  1.3428 -1.1190
12097TIP3    H257707   3.651   5.208   0.127  0.8558  2.4073 -1.0117
12098TIP3   OH257708   3.425   0.599   0.789 -0.2057  0.0181  0.2662
12098TIP3    H157709   3.466   0.548   0.719 -0.9695 -0.3490  0.0861
12098TIP3    H257710   3.378   0.535   0.841 -0.5207  0.4368  0.4983
12099TIP3   OH257711   6.772   3.903   4.918  0.1430 -0.1091  0.1433
12099TIP3    H157712   6.766   3.912   5.013 -2.3759  1.9501 -0.1876
12099TIP3    H257713   6.735   3.816   4.900  0.3200 -0.3693  0.9983
12100TIP3   OH257714   2.886   3.743   1.834  0.1572  0.2376  0.1902
12100TIP3    H157715   2.903   3.674   1.770 -1.5615 -0.5854  0.6061
12100TIP3    H257716   2.972   3.760   1.873  0.8653 -0.6134 -0.9611
12101TIP3   OH257717   0.859   7.010   0.504 -0.1593  0.1248  0.8428
12101TIP3    H157718   0.813   6.948   0.448  0.2049 -0.2960  1.0068
12101TIP3    H257719   0.932   7.041   0.451 -0.5083  0.6295  0.6586
12102TIP3   OH257720   3.612   2.727   1.595 -0.6515  0.4820 -0.2157
12102TIP3    H157721   3.549   2.757   1.528 -0.0622  0.1167 -0.9413
12102TIP3    H257722   3.689   2.781   1.581  0.5565 -1.5727 -1.7677
12103TIP3   OH257723   2.453   3.387   3.253 -0.5088  0.0367  0.3898
12103TIP3    H157724   2.446   3.292   3.243 -0.6811 -0.2295  2.8098
12103TIP3    H257725   2.366   3.420   3.229  0.0888 -0.1924 -2.3196
12104TIP3   OH257726   4.994   0.992   4.300 -0.2964 -0.4571 -0.8631
12104TIP3    H157727   5.049   0.922   4.334 -2.4998 -2.0159 -0.3952
12104TIP3    H257728   4.998   1.060   4.366  0.6294 -0.7793 -0.5799
12105TIP3   OH257729   3.636   4.411   4.205  0.1656 -0.4130  0.3823
12105TIP3    H157730   3.680   4.368   4.278 -0.2123 -1.9962 -0.3064
12105TIP3    H257731   3.549   4.432   4.237  0.7075  0.8460  1.0694
12106TIP3   OH257732   1.203   5.157   2.925  0.4425 -0.3997 -0.4742
12106TIP3    H157733   1.119   5.110   2.921  0.4603 -0.4494 -0.2763
12106TIP3    H257734   1.259   5.100   2.978  0.8818 -0.7971 -1.3642
12107TIP3   OH257735   2.810   7.181   3.020 -0.1202 -0.4081  0.0368
12107TIP3    H157736   2.749   7.121   2.978 -2.1714  1.1956  0.5995
12107TIP3    H257737   2.825   7.250   2.955  0.9971 -0.7163 -0.0437
12108TIP3   OH257738   4.223   3.276   2.669 -0.4527 -0.1896  0.9043
12108TIP3    H157739   4.246   3.340   2.737 -0.6178  2.3208 -1.3394
12108TIP3    H257740   4.130   3.292   2.652 -0.1228  0.0543 -0.7662
12109TIP3   OH257741   4.976   5.534   2.105  0.4979 -0.8548  0.1702
12109TIP3    H157742   4.943   5.611   2.059  1.1440 -0.8064 -0.2185
12109TIP3    H257743   4.930   5.460   2.063 -0.0659 -0.6890  0.4938
12110TIP3   OH257744   3.506   1.479  14.976 -0.0690  0.3589 -0.2722
12110TIP3    H157745   3.507   1.448  15.066  0.8752 -0.4429 -0.5451
12110TIP3    H257746   3.524   1.573  14.983  1.0986  0.1027  0.3114
12111TIP3   OH257747   2.145   2.879   4.666  0.0690  0.3254 -0.4365
12111TIP3    H157748   2.138   2.795   4.713 -2.0513  0.0577 -1.1835
12111TIP3    H257749   2.152   2.855   4.574  2.0710  0.9265 -0.4722
12112TIP3   OH257750   1.755   6.522   0.744  0.7659  0.0498  0.5932
12112TIP3    H157751   1.688   6.456   0.761  1.3857 -0.5245  0.8488
12112TIP3    H257752   1.715   6.605   0.770  0.2534 -0.3218  0.9876
12113TIP3   OH257753   2.085   0.038   3.078  0.1979 -0.1060 -0.5973
12113TIP3    H157754   2.033   0.111   3.045  0.5919  0.4473 -0.0088
12113TIP3    H257755   2.039  -0.040   3.047 -0.9729  0.3701 -0.0786
12114TIP3   OH257756   1.095   2.605   1.859  0.2827  0.8606 -0.5066
12114TIP3    H157757   1.009   2.644   1.841 -0.8816 -0.6963  1.4762
12114TIP3    H257758   1.106   2.539   1.791 -2.6406 -2.7582  2.3022
12115TIP3   OH257759   4.417   7.175   0.511 -0.0548 -0.1959 -0.1229
12115TIP3    H157760   4.489   7.174   0.448  1.1116  0.0917  1.2055
12115TIP3    H257761   4.455   7.143   0.592 -1.3736  0.1741  0.6486
12116TIP3   OH257762   2.617   4.324   0.622 -0.6560  0.0521  0.1601
12116TIP3    H157763   2.623   4.294   0.713  3.4264 -2.1411 -0.7014
12116TIP3    H257764   2.550   4.268   0.584 -0.8555 -0.5259  1.3130
12117TIP3   OH257765   2.427   4.799  15.497 -0.1066 -0.1706 -0.2074
12117TIP3    H157766   2.378   4.767  15.421  1.5515 -0.1778 -1.3008
12117TIP3    H257767   2.482   4.725  15.521 -0.2451  0.0190  0.6812
12118TIP3   OH257768   2.559   3.426   0.322 -0.1877  0.1845 -0.4833
12118TIP3    H157769   2.574   3.483   0.246  3.7456 -0.2419 -0.1677
12118TIP3    H257770   2.515   3.349   0.286 -0.5005  1.0092 -1.9141
12119TIP3   OH257771   4.454   6.301   5.981 -0.5723 -0.0610  0.8119
12119TIP3    H157772   4.514   6.284   6.054 -0.8080 -0.3283  0.9478
12119TIP3    H257773   4.508   6.291   5.903 -0.8718 -2.2832  0.8430
12120TIP3   OH257774   0.984   0.771   4.812 -0.6493 -0.0262  0.7003
12120TIP3    H157775   0.969   0.807   4.899 -0.0636  2.4557 -0.1617
12120TIP3    H257776   0.912   0.711   4.797 -0.3540 -1.0360  3.1696
12121TIP3   OH257777   5.617   1.647   0.917  0.6548 -0.2561  0.1282
12121TIP3    H157778   5.574   1.601   0.989  0.1160  1.1204  0.6926
12121TIP3    H257779   5.613   1.585   0.844 -1.0943 -0.6648  0.5474
12122TIP3   OH257780   0.756   4.944  13.139  0.5916 -0.4957  0.5483
12122TIP3    H157781   0.684   4.948  13.076  1.2296 -1.6461 -0.2675
12122TIP3    H257782   0.716   4.970  13.222 -0.3654  0.5643 -0.2247
12123TIP3   OH257783   4.084   5.854  12.816  0.1258 -0.0908  0.2520
12123TIP3    H157784   4.133   5.907  12.753 -0.8800  0.1220 -0.3552
12123TIP3    H257785   4.125   5.874  12.901  0.8781  0.3222 -0.1998
12124TIP3   OH257786   6.906   2.755  13.734  0.0798  0.1311 -0.6395
12124TIP3    H157787   6.822   2.790  13.706  0.0822  0.9930  0.3983
12124TIP3    H257788   6.921   2.793  13.820 -1.0438 -4.2103  1.6414
12125TIP3   OH257789   6.867   5.001   0.599  0.7906 -0.6885 -0.3546
12125TIP3    H157790   6.832   5.049   0.674 -0.9584 -2.2786 -0.1040
12125TIP3    H257791   6.962   5.000   0.613  0.6996  1.1533  0.5297
12126TIP3   OH257792   0.941   5.087  12.754  0.5623 -0.1747 -0.9020
12126TIP3    H157793   0.901   5.007  12.721  3.2759 -2.2400  0.6843
12126TIP3    H257794   0.936   5.080  12.849  4.9810 -0.7337 -0.6235
12127TIP3   OH257795   2.931   2.234  15.499 -0.2143 -0.1011 -0.7722
12127TIP3    H157796   2.993   2.289  15.547 -0.8729 -1.3347  1.5393
12127TIP3    H257797   2.848   2.280  15.505 -0.6328 -1.0346  0.6328
12128TIP3   OH257798   2.469   2.493   2.136 -0.3665 -0.4682  0.1195
12128TIP3    H157799   2.401   2.497   2.069 -0.1326  0.1263 -0.0816
12128TIP3    H257800   2.531   2.427   2.104 -0.4563 -0.4693 -0.0517
12129TIP3   OH257801   2.799   4.879   3.608 -0.1404  0.1067  0.2764
12129TIP3    H157802   2.793   4.867   3.514 -0.2140  2.2472 -0.0161
12129TIP3    H257803   2.710   4.867   3.640 -0.6621  2.2003 -0.3107
12130TIP3   OH257804   2.558   3.697  13.334 -0.1154 -0.4293 -0.0464
12130TIP3    H157805   2.540   3.615  13.380  1.6184 -0.1154  1.2486
12130TIP3    H257806   2.643   3.683  13.293  0.0191  0.5985 -0.1215
12131TIP3   OH257807   2.393   4.249  11.748  0.8901 -0.6618  0.2422
12131TIP3    H157808   2.390   4.313  11.819 -0.5815  0.0953 -0.4737
12131TIP3    H257809   2.469   4.274  11.695 -0.6434  1.5391 -0.9741
12132TIP3   OH257810   1.526   2.142   0.950 -0.2922 -0.5640 -0.1582
12132TIP3    H157811   1.614   2.154   0.914 -0.2140 -0.5490  0.0396
12132TIP3    H257812   1.468   2.183   0.885 -0.2335 -1.4062 -0.7508
12133TIP3   OH257813   1.924   4.150  13.981  0.0290 -0.1096 -0.0317
12133TIP3    H157814   1.933   4.112  13.894  0.4291 -1.6169  0.6620
12133TIP3    H257815   1.829   4.155  13.995 -0.0249 -1.4985  0.1461
12134TIP3   OH257816   6.030   6.398   4.017 -0.1878  0.3448 -0.2339
12134TIP3    H157817   6.023   6.492   4.007 -1.5344  0.2676 -0.1662
12134TIP3    H257818   6.122   6.378   4.000  1.0542  2.1501  3.6276
12135TIP3   OH257819   1.809   4.902   0.196  0.3769  0.0896  0.0479
12135TIP3    H157820   1.835   4.887   0.287 -0.4114  1.6863  0.5630
12135TIP3    H257821   1.748   4.832   0.176  2.7290 -1.9647 -0.2080
12136TIP3   OH257822   1.315   2.045   2.141  0.0653  0.6505 -0.1477
12136TIP3    H157823   1.377   2.068   2.210 -0.3554  0.1969  0.3946
12136TIP3    H257824   1.357   1.973   2.094 -0.3796 -0.2033  0.7247
12137TIP3   OH257825   2.575   3.872   1.023  0.0246 -0.7051 -0.4490
12137TIP3    H157826   2.645   3.932   0.997  0.2681 -1.3127 -1.2262
12137TIP3    H257827   2.508   3.929   1.062 -0.6061  0.3551 -2.9310
12138TIP3   OH257828   0.463   3.406   5.820  0.2019  0.3332 -0.1881
12138TIP3    H157829   0.384   3.460   5.812 -0.3746 -0.6300 -0.9595
12138TIP3    H257830   0.465   3.382   5.913  0.7134  2.0495  0.2681
12139TIP3   OH257831   4.944   4.234  15.917 -0.3494  0.1560  0.2892
12139TIP3    H157832   4.965   4.151  15.960 -1.0285 -1.1866 -1.9124
12139TIP3    H257833   4.910   4.209  15.831 -0.6960  2.7149 -0.3600
12140TIP3   OH257834   1.395   6.197  14.871 -0.7070 -0.1015  0.4760
12140TIP3    H157835   1.466   6.261  14.860 -0.3808 -0.7638 -1.5948
12140TIP3    H257836   1.329   6.243  14.922  0.7916  0.8794  1.5798
12141TIP3   OH257837   6.079   4.699   1.881 -0.7118 -0.1702  0.4124
12141TIP3    H157838   6.071   4.632   1.949 -2.1327 -0.3175  0.1176
12141TIP3    H257839   6.044   4.657   1.803  4.1415 -1.2907 -1.3610
12142TIP3   OH257840   1.638   4.222   2.304  0.0033  0.0553 -0.6345
12142TIP3    H157841   1.685   4.153   2.351 -2.9036 -0.9201  0.9535
12142TIP3    H257842   1.681   4.226   2.218  3.5289 -0.1293  1.0393
12143TIP3   OH257843   0.904   6.641  14.652 -0.0225  0.2874 -0.2454
12143TIP3    H157844   0.927   6.690  14.731  2.1512 -0.1942 -0.5605
12143TIP3    H257845   0.900   6.707  14.583 -3.1813  0.9138  0.4350
12144TIP3   OH257846   3.773   6.803   2.810 -0.0283 -0.5110 -0.4446
12144TIP3    H157847   3.868   6.802   2.821 -0.1569 -2.1772  0.6487
12144TIP3    H257848   3.753   6.892   2.780  1.5992  0.6632  1.8191
12145TIP3   OH257849   4.779   3.694  15.681  0.0940  0.3538  0.8325
12145TIP3    H157850   4.731   3.662  15.757  0.5932 -2.8045 -0.1122
12145TIP3    H257851   4.714   3.695  15.611  0.3899  0.2151  0.5543
12146TIP3   OH257852   3.214   4.388   1.397 -0.0803 -0.0864 -0.3142
12146TIP3    H157853   3.180   4.477   1.389  1.4906  0.3763 -2.2382
12146TIP3    H257854   3.309   4.398   1.396  0.1256 -1.6960  0.6011
12147TIP3   OH257855   0.593   4.396   2.166  0.0771 -0.0670 -0.1887
12147TIP3    H157856   0.601   4.431   2.254  0.0126 -0.7827  0.1085
12147TIP3    H257857   0.669   4.339   2.155 -0.2427 -0.4721 -0.3603
12148TIP3   OH257858   2.629   4.932   1.649  0.2754  0.2229  0.1757
12148TIP3    H157859   2.682   4.963   1.575 -1.4933 -0.5499 -1.4505
12148TIP3    H257860   2.649   4.839   1.656 -0.8273 -0.0644 -0.4229
12149TIP3   OH257861   4.094   4.537   4.163  0.3683 -0.6517  0.1910
12149TIP3    H157862   4.036   4.503   4.230 -0.2614  1.7529  0.9090
12149TIP3    H257863   4.175   4.560   4.209 -0.2762  1.5538  0.2658
12150TIP3   OH257864   3.403   2.061  14.467  0.7249 -0.8306  0.3910
12150TIP3    H157865   3.471   2.035  14.405 -0.1129  0.1273 -0.9444
12150TIP3    H257866   3.451   2.094  14.543  1.7549 -2.2044  0.3498
12151TIP3   OH257867   5.784   4.388  14.651  0.0457 -0.3116  0.1836
12151TIP3    H157868   5.829   4.425  14.728  0.2836  0.2507 -0.2214
12151TIP3    H257869   5.774   4.295  14.672  3.7564 -1.0373 -0.8017
12152TIP3   OH257870   1.112   5.954  15.734  0.5747 -0.3170  0.0100
12152TIP3    H157871   1.185   5.893  15.728  0.1785 -0.9809  1.5946
12152TIP3    H257872   1.125   6.015  15.662  2.1622 -1.0029 -0.2934
12153TIP3   OH257873   6.779   0.035  15.269  0.3034  0.8311 -0.0710
12153TIP3    H157874   6.859  -0.016  15.282 -0.6173 -0.0377  2.3472
12153TIP3    H257875   6.731  -0.012  15.201  0.5959 -0.1272  0.3836
12154TIP3   OH257876   2.455   5.580   4.275  0.1115 -0.1439  0.4751
12154TIP3    H157877   2.457   5.510   4.210 -0.2484 -2.2536  2.6618
12154TIP3    H257878   2.381   5.635   4.249 -0.2733 -1.1642 -0.6505
12155TIP3   OH257879   5.064   3.518   1.317  0.4514 -0.3947  1.0650
12155TIP3    H157880   5.123   3.592   1.333  1.4704 -0.6937 -1.1190
12155TIP3    H257881   5.081   3.458   1.389  1.7527  0.2085  1.2766
12156TIP3   OH257882   4.406   4.927  13.977  0.0514  0.0519  0.1232
12156TIP3    H157883   4.327   4.921  14.031 -0.0969  0.1636 -0.0823
12156TIP3    H257884   4.478   4.921  14.040 -0.1192 -0.3779  0.2776
12157TIP3   OH257885   4.798   5.196  15.385 -0.1281  0.5885 -0.2179
12157TIP3    H157886   4.721   5.192  15.328  0.9625  0.2244 -1.6900
12157TIP3    H257887   4.862   5.138  15.343  0.6715  0.2379  1.4245
12158TIP3   OH257888   1.943   4.751   3.714  0.1833 -0.0871 -0.1116
12158TIP3    H157889   1.914   4.660   3.706  0.8441 -0.2570 -0.6277
12158TIP3    H257890   2.002   4.752   3.789 -0.4267  0.0682  0.3634
12159TIP3   OH257891   2.784   3.422   5.598 -0.3435  0.4879 -0.1492
12159TIP3    H157892   2.755   3.392   5.684  1.7966 -0.0299  0.4359
12159TIP3    H257893   2.756   3.514   5.593  1.2607  1.1229  1.9497
12160TIP3   OH257894   6.482   3.519   0.472  0.0230  0.3322 -0.0518
12160TIP3    H157895   6.511   3.529   0.563  1.1521  0.7158 -0.4529
12160TIP3    H257896   6.398   3.473   0.479 -0.0143  0.5727  1.1956
12161TIP3   OH257897   1.746   5.290   0.521  0.3273  0.2989  0.1120
12161TIP3    H157898   1.670   5.236   0.544  0.0907  0.1953 -0.8944
12161TIP3    H257899   1.721   5.332   0.438  1.4138  0.1751 -0.2796
12162TIP3   OH257900   4.673   2.980  15.192 -0.3752 -0.6562 -0.8260
12162TIP3    H157901   4.601   2.950  15.135 -1.8961 -0.5623  0.9881
12162TIP3    H257902   4.693   2.903  15.246 -0.7119  0.0211  0.2681
12163TIP3   OH257903   2.385   6.134   2.899  0.0581  0.2331  0.3169
12163TIP3    H157904   2.424   6.087   2.972 -1.1155  0.4209  1.0865
12163TIP3    H257905   2.317   6.075   2.867  1.3194 -0.3391 -1.3688
12164TIP3   OH257906   3.806   6.094  13.784 -0.0674  0.4856  0.1864
12164TIP3    H157907   3.793   6.106  13.878 -0.7575 -0.3506  0.2064
12164TIP3    H257908   3.901   6.100  13.773  0.2807 -2.1280  1.3607
12165TIP3   OH257909   2.952   5.419   1.661  0.3999  0.6644  0.0534
12165TIP3    H157910   2.883   5.484   1.651 -1.0440 -0.6713  1.0430
12165TIP3    H257911   2.952   5.371   1.578  1.5303  1.9547 -0.7126
12166TIP3   OH257912   4.837   2.351  14.977 -0.0385  0.0548  0.2767
12166TIP3    H157913   4.747   2.375  14.997 -0.8484 -0.3159 -2.6678
12166TIP3    H257914   4.876   2.431  14.941  0.7581  0.1511  1.3319
12167TIP3   OH257915   4.174   2.622   2.274  0.2156  0.1666  0.4915
12167TIP3    H157916   4.131   2.704   2.248 -0.8014 -0.7492 -0.7704
12167TIP3    H257917   4.240   2.607   2.206 -1.0787 -1.1855 -0.4802
12168TIP3   OH257918   2.262   7.014  14.387 -0.1375 -0.6350  0.1683
12168TIP3    H157919   2.313   6.948  14.340 -0.4571  0.1366 -1.2878
12168TIP3    H257920   2.171   6.996  14.362 -0.1554  0.8968 -0.9847
12169TIP3   OH257921   2.810   5.277  15.534 -0.2681  0.5248 -0.0317
12169TIP3    H157922   2.828   5.203  15.476 -1.2827 -0.8689  1.4003
12169TIP3    H257923   2.807   5.353  15.476  0.5030 -0.5882 -1.5572
12170TIP3   OH257924   2.833   6.816   1.775  0.3733 -0.1619 -0.0745
12170TIP3    H157925   2.900   6.791   1.839  0.6391 -1.7901 -0.9504
12170TIP3    H257926   2.759   6.759   1.794 -1.0918  2.1961  1.4054
12171TIP3   OH257927   3.539   1.184   4.504  0.7160 -0.1322  0.1753
12171TIP3    H157928   3.487   1.248   4.456  1.1826 -1.2070 -1.7798
12171TIP3    H257929   3.494   1.101   4.492  1.3412 -0.5749  0.8389
12172TIP3   OH257930   1.661   6.707   0.953  0.3946  0.4258 -0.0701
12172TIP3    H157931   1.593   6.716   0.886  0.5094  1.8393  0.0060
12172TIP3    H257932   1.633   6.631   1.005 -0.9099  0.7394 -0.3048
12173TIP3   OH257933   2.931   6.456   2.227 -0.2468  0.2068  0.4703
12173TIP3    H157934   2.875   6.533   2.218 -2.5115 -1.3501  0.8144
12173TIP3    H257935   2.875   6.390   2.269  1.3260 -1.9611 -0.7283
12174TIP3   OH257936   5.110   5.919   0.075 -0.3750 -0.3184 -0.1457
12174TIP3    H157937   5.183   5.939   0.017 -0.5127 -1.2147 -0.6414
12174TIP3    H257938   5.045   5.877   0.018 -1.5705  1.1056  0.1416
12175TIP3   OH257939   2.600   1.060  15.196 -0.2246  0.2045  0.1695
12175TIP3    H157940   2.568   1.148  15.176  0.5532  0.7769  1.3708
12175TIP3    H257941   2.678   1.050  15.141  1.1873  1.2881  1.9280
12176TIP3   OH257942   7.161   4.358  15.071 -0.4681  0.1352 -0.2731
12176TIP3    H157943   7.222   4.423  15.036 -0.6616  1.5797  1.9427
12176TIP3    H257944   7.213   4.310  15.136 -1.6218  1.3630  1.6116
12177TIP3   OH257945   2.074   0.186   3.530 -0.2042  0.4606  0.1997
12177TIP3    H157946   2.122   0.269   3.528 -0.8813  0.8253 -1.0528
12177TIP3    H257947   1.990   0.208   3.571  0.2654  0.0420  1.4067
12178TIP3   OH257948   3.991   5.381  15.827  0.2633 -0.0767 -0.2617
12178TIP3    H157949   3.910   5.407  15.872  0.8062  1.9334 -0.3745
12178TIP3    H257950   3.998   5.287  15.843 -0.4006  0.2902  2.5078
12179TIP3   OH257951   2.872   1.411  14.463 -0.6372  0.2703 -0.0633
12179TIP3    H157952   2.836   1.409  14.374  1.5799 -1.8650 -0.9932
12179TIP3    H257953   2.946   1.350  14.460  2.1812  3.3843  2.1203
12180TIP3   OH257954   3.874   6.403  13.083  0.6847 -0.7855  0.2592
12180TIP3    H157955   3.919   6.353  13.014 -0.1001 -0.8596 -0.2029
12180TIP3    H257956   3.781   6.385  13.068  0.4479  0.1645  0.5983
12181TIP3   OH257957   4.698   3.436   0.150  0.1712  0.1995 -0.0389
12181TIP3    H157958   4.740   3.482   0.222 -1.1782  0.1004  0.8349
12181TIP3    H257959   4.745   3.353   0.142 -0.0780 -0.0650  1.1609
12182TIP3   OH257960   2.096   6.112   2.431  0.2907 -0.3052  0.0388
12182TIP3    H157961   2.116   6.137   2.341 -0.3898  2.3156  0.5545
12182TIP3    H257962   2.004   6.085   2.428  0.6193 -1.3905 -0.2712
12183TIP3   OH257963   1.870   5.787  13.907 -0.4161 -0.8038 -0.0587
12183TIP3    H157964   1.873   5.857  13.972 -1.6109 -1.5670  0.8334
12183TIP3    H257965   1.882   5.832  13.823  2.1950  0.0631  0.7208
12184TIP3   OH257966   2.437   0.497   3.162  0.7886 -0.1305  0.7855
12184TIP3    H157967   2.453   0.470   3.071 -0.5000  1.4537  0.0630
12184TIP3    H257968   2.364   0.441   3.190 -0.8160  1.4301 -0.1802
12185TIP3   OH257969   3.163   4.428   0.591  0.1196 -0.4086 -0.1340
12185TIP3    H157970   3.085   4.373   0.595 -0.8286  1.0049  1.5824
12185TIP3    H257971   3.129   4.517   0.576  1.2935  0.3685  1.5812
12186TIP3   OH257972   2.479   6.786   1.920 -0.1775  0.4580  0.3375
12186TIP3    H157973   2.559   6.733   1.925 -0.7448 -0.4034  0.5196
12186TIP3    H257974   2.412   6.732   1.962 -1.5282 -0.1611 -2.4720
12187TIP3   OH257975   6.327   5.215  14.502 -0.1076 -0.1240  0.5516
12187TIP3    H157976   6.377   5.195  14.424 -1.6844  0.1625 -0.5684
12187TIP3    H257977   6.390   5.212  14.574  0.7227 -3.7683 -0.2634
12188TIP3   OH257978   1.723   5.942   4.929  0.3607  0.0916  0.1272
12188TIP3    H157979   1.655   5.977   4.988  0.9157  0.0659  0.7857
12188TIP3    H257980   1.800   5.931   4.985  0.9279  0.1715 -0.6312
12189TIP3   OH257981   6.816   5.485   0.642  0.0935 -0.6979  0.4777
12189TIP3    H157982   6.901   5.444   0.625  0.0220 -1.1578  1.2188
12189TIP3    H257983   6.789   5.519   0.557  0.2006 -2.1088 -0.1317
12190TIP3   OH257984   3.072   2.980   2.644 -0.3130 -0.1873 -0.3356
12190TIP3    H157985   3.121   3.026   2.576  3.2369 -1.4352  1.2326
12190TIP3    H257986   3.072   2.888   2.616 -0.5533 -0.3980  0.3343
12191TIP3   OH257987   2.539   5.161   2.855  0.4620  0.3599  0.3345
12191TIP3    H157988   2.479   5.092   2.828  2.9969 -1.0352 -1.9308
12191TIP3    H257989   2.514   5.237   2.803  0.8825 -0.3417 -0.9103
12192TIP3   OH257990   4.055   0.109   3.529 -0.0951  0.0776 -0.6197
12192TIP3    H157991   3.961   0.117   3.549 -0.2497  0.6139 -1.5422
12192TIP3    H257992   4.096   0.178   3.581  0.1233 -1.8532  1.8850
12193TIP3   OH257993   2.541   0.359   3.768  0.2964 -0.0856  0.5291
12193TIP3    H157994   2.564   0.448   3.743 -0.7080  0.6081  2.0242
12193TIP3    H257995   2.617   0.328   3.819 -0.9325  1.3196  3.3212
12194TIP3   OH257996   3.231   0.982  13.473  0.0689 -0.2820 -0.0829
12194TIP3    H157997   3.200   1.073  13.474 -1.4425 -0.7798  0.4753
12194TIP3    H257998   3.288   0.975  13.549  0.8900  0.4307 -0.6270
12195TIP3   OH257999   6.876   3.165   0.921 -0.2232 -0.3980  0.0943
12195TIP3    H158000   6.916   3.145   1.005  0.0048  2.5315  0.7546
12195TIP3    H258001   6.784   3.141   0.931  0.2024 -1.8834  0.4935
12196TIP3   OH258002   1.699   3.805   0.887 -0.3516 -0.5854 -0.4238
12196TIP3    H158003   1.697   3.824   0.793  1.2397 -0.7175 -0.4957
12196TIP3    H258004   1.693   3.891   0.928 -0.9329 -0.5181 -0.6310
12197TIP3   OH258005   5.184   6.223  15.393  0.3284  0.8236  0.3751
12197TIP3    H158006   5.222   6.202  15.478  0.8118  0.3513  0.0391
12197TIP3    H258007   5.194   6.318  15.386 -1.4290  1.1318  1.6718
12198TIP3   OH258008   4.159   0.080   4.584 -0.1975  0.6784  0.4891
12198TIP3    H158009   4.120   0.136   4.650  0.3613  2.4525 -0.6557
12198TIP3    H258010   4.253   0.084   4.602 -0.3075 -1.9552  1.9711
12199TIP3   OH258011   3.251   1.322   0.914  0.0678 -0.2279  0.1091
12199TIP3    H158012   3.267   1.242   0.963  3.1695  0.5040  0.3772
12199TIP3    H258013   3.186   1.369   0.966  0.2593 -1.3215  1.3599
12200TIP3   OH258014   1.207   3.145   1.720  0.1745 -0.1115  0.0060
12200TIP3    H158015   1.222   3.051   1.725 -0.6226 -0.3283 -1.6705
12200TIP3    H258016   1.272   3.177   1.657 -0.2906  0.3011 -0.2629
12201TIP3   OH258017   5.054   2.586   1.941  0.3352  0.5455  0.2237
12201TIP3    H158018   4.989   2.650   1.971 -0.5737  0.1480 -0.8857
12201TIP3    H258019   5.007   2.503   1.938  0.6359  0.4193 -1.4703
12202TIP3   OH258020   1.938   6.233   0.568 -0.2418 -0.0749  0.1274
12202TIP3    H158021   2.005   6.270   0.626  1.0468  0.8427 -1.8797
12202TIP3    H258022   1.873   6.195   0.627  0.3505  2.0051  2.1864
12203TIP3   OH258023   4.587   6.893   3.124 -0.4718  0.1127 -0.0546
12203TIP3    H158024   4.532   6.874   3.200 -1.1946  1.3153 -0.2736
12203TIP3    H258025   4.542   6.963   3.078 -0.5134 -1.2269 -2.1331
12204TIP3   OH258026   7.284   6.869   2.629 -0.0978 -0.8150  0.7979
12204TIP3    H158027   7.226   6.868   2.552  0.8139 -2.8715  0.1070
12204TIP3    H258028   7.224   6.882   2.703 -1.2927 -1.3056 -0.0480
12205TIP3   OH258029   2.481   6.711  14.434 -0.5183 -0.6631 -0.3217
12205TIP3    H158030   2.462   6.689  14.343 -0.8779  0.7716 -0.6036
12205TIP3    H258031   2.526   6.796  14.429 -0.4387 -0.6319  0.8303
12206TIP3   OH258032   0.820   2.516   0.920 -0.1552  0.2609 -0.2732
12206TIP3    H158033   0.765   2.460   0.866 -0.3723 -2.0971  2.2305
12206TIP3    H258034   0.762   2.548   0.989  0.9527  0.0282  0.7930
12207TIP3   OH258035   6.011   4.836  15.574 -0.1883  0.1630  0.4375
12207TIP3    H158036   6.016   4.910  15.634 -1.4539  0.0852  0.6657
12207TIP3    H258037   5.918   4.833  15.549  0.0525 -0.7189 -0.3543
12208TIP3   OH258038   5.846   2.491  14.881  0.2148  0.0398  0.5242
12208TIP3    H158039   5.774   2.434  14.855  0.3349  0.7559 -1.4487
12208TIP3    H258040   5.832   2.507  14.974 -2.6857  0.8948 -0.0260
12209TIP3   OH258041   5.366   6.023  14.470  0.9199  0.5142  0.2431
12209TIP3    H158042   5.429   6.093  14.484  0.6494  0.7562  0.2481
12209TIP3    H258043   5.287   6.052  14.515  1.4187 -0.6928  1.9780
12210TIP3   OH258044   1.551   5.963   1.863 -0.3701  0.2021  0.2196
12210TIP3    H158045   1.635   5.923   1.843  0.9319  1.7093  2.4489
12210TIP3    H258046   1.487   5.893   1.849  1.5953 -1.9702  1.7028
12211TIP3   OH258047   1.225   3.269   1.982 -0.2720 -0.0409  0.0472
12211TIP3    H158048   1.278   3.348   1.972  1.0130 -0.7399  1.2251
12211TIP3    H258049   1.237   3.221   1.900  1.0531 -0.2706  0.3651
12212TIP3   OH258050   2.825   4.817   5.218 -0.0418 -0.2914 -0.3074
12212TIP3    H158051   2.745   4.841   5.265  0.8093  0.0806  0.9652
12212TIP3    H258052   2.869   4.900   5.203  0.6876 -0.6131  0.0524
12213TIP3   OH258053   4.737   4.252   0.751 -0.2967  0.0228 -0.2224
12213TIP3    H158054   4.742   4.331   0.697  0.6850 -0.6305 -1.1276
12213TIP3    H258055   4.666   4.202   0.712  0.5851 -0.5689 -1.0997
12214TIP3   OH258056   6.375   5.379   0.335 -0.1982  0.8964 -0.1848
12214TIP3    H158057   6.289   5.409   0.366 -0.5081  1.2172 -1.3105
12214TIP3    H258058   6.364   5.371   0.240  0.9780  0.8005 -0.3171
12215TIP3   OH258059   5.591   5.076   3.644  0.5378 -0.0369 -0.1103
12215TIP3    H158060   5.601   5.154   3.699  0.6984  0.0557 -0.2716
12215TIP3    H258061   5.561   5.110   3.560  0.2045 -0.1877 -0.0512
12216TIP3   OH258062   4.762   2.165   1.270 -0.2183 -0.0721 -0.6192
12216TIP3    H158063   4.838   2.111   1.291 -1.4832 -1.9160 -0.6959
12216TIP3    H258064   4.740   2.208   1.353 -0.5218 -1.3561 -0.0245
12217TIP3   OH258065   6.390   3.790   1.079 -0.7087  0.4743  0.5806
12217TIP3    H158066   6.370   3.819   1.168 -1.2177 -0.7081  0.8567
12217TIP3    H258067   6.337   3.848   1.023  0.6394  2.1223  0.9517
12218TIP3   OH258068   1.116   4.462   3.780 -0.2642  0.3503  0.0432
12218TIP3    H158069   1.186   4.398   3.767 -2.0209 -2.3425  3.1588
12218TIP3    H258070   1.155   4.531   3.834 -0.0791 -1.4062  2.2329
12219TIP3   OH258071   3.383   5.645   4.647 -0.0299  0.8700 -0.3977
12219TIP3    H158072   3.337   5.728   4.657  1.2830  1.3111  2.2694
12219TIP3    H258073   3.333   5.584   4.701  1.7969  1.0737  1.5495
12220TIP3   OH258074   3.201   4.991  15.879  0.3156 -0.1051  0.2085
12220TIP3    H158075   3.162   4.985  15.967  0.8203  0.9378  0.5161
12220TIP3    H258076   3.263   5.064  15.886  0.0740  0.2400 -1.1255
12221TIP3   OH258077   0.981   2.140   0.346  0.0141 -0.3817 -0.0163
12221TIP3    H158078   0.925   2.089   0.287  3.3144 -0.9289 -2.8436
12221TIP3    H258079   1.052   2.079   0.368  0.6053  0.9504  1.7854
12222TIP3   OH258080   4.386   5.495  15.503 -0.4533 -0.1541 -0.8523
12222TIP3    H158081   4.356   5.586  15.502  0.8065  0.3135  1.3780
12222TIP3    H258082   4.476   5.500  15.535 -0.5630 -2.2478 -0.1755
12223TIP3   OH258083   1.048   0.318   0.824  0.1443  0.0511 -0.0939
12223TIP3    H158084   1.020   0.346   0.911 -1.3410 -1.1965 -0.1436
12223TIP3    H258085   1.129   0.269   0.838 -1.0825 -1.7738  0.8412
12224TIP3   OH258086   0.681   6.918  15.871 -0.1661  0.4090 -0.8001
12224TIP3    H158087   0.710   7.005  15.899  0.1302  0.1416 -0.2709
12224TIP3    H258088   0.751   6.887  15.815 -0.1254  0.3827 -0.7355
12225TIP3   OH258089   3.264   4.988  15.227  0.3630 -0.0745 -0.1641
12225TIP3    H158090   3.212   4.941  15.293  0.8276  1.3998  1.3060
12225TIP3    H258091   3.200   5.043  15.181  0.2789  0.1458  0.2076
12226TIP3   OH258092   0.490   3.348   2.778 -0.3471 -0.3041 -0.1695
12226TIP3    H158093   0.543   3.269   2.784  0.4107  0.1958 -0.2232
12226TIP3    H258094   0.489   3.371   2.685 -0.6218 -0.2862 -0.1641
12227TIP3   OH258095   5.486   5.720   2.353  0.2978  0.2278  0.3579
12227TIP3    H158096   5.426   5.672   2.295  0.0925  0.9815 -0.0662
12227TIP3    H258097   5.556   5.658   2.373  0.4495  0.0122 -0.8324
12228TIP3   OH258098   2.438   4.968   2.365  0.4671  0.2216  0.2262
12228TIP3    H158099   2.488   4.977   2.446  0.1180 -1.7189  0.6675
12228TIP3    H258100   2.394   5.053   2.355 -0.2159  0.1896  2.5549
12229TIP3   OH258101   3.481   0.784   4.148  0.2702 -0.2178 -0.4165
12229TIP3    H158102   3.496   0.785   4.243 -1.4029  1.3816 -0.1406
12229TIP3    H258103   3.478   0.877   4.124 -0.0693 -0.6078 -1.9050
12230TIP3   OH258104   5.350   5.789  14.293 -0.0087  0.2226  0.2024
12230TIP3    H158105   5.373   5.878  14.321 -1.6950  0.9127 -0.5857
12230TIP3    H258106   5.421   5.734  14.328  1.3741  1.9471  0.1542
12231TIP3   OH258107   4.030   3.994   1.470  0.0134  0.0849  0.1376
12231TIP3    H158108   4.052   4.069   1.415 -1.2121 -0.6826 -1.4308
12231TIP3    H258109   4.064   4.017   1.556 -1.2955  2.9082 -0.0378
12232TIP3   OH258110   4.909   0.936   3.294  0.1720  0.0761 -0.5813
12232TIP3    H158111   4.941   0.992   3.365 -1.1754 -1.6311  1.4208
12232TIP3    H258112   4.958   0.855   3.304  1.0871  0.3554 -2.5875
12233TIP3   OH258113   4.760   6.308  12.204  0.3740 -0.4147 -0.1003
12233TIP3    H158114   4.827   6.327  12.139  0.0640  0.0088 -0.2942
12233TIP3    H258115   4.679   6.342  12.167 -0.1085 -1.7081 -0.2440
12234TIP3   OH258116   5.629   3.708  14.497 -0.0804 -0.0681 -0.3146
12234TIP3    H158117   5.588   3.623  14.484 -1.1947  0.3625  0.3564
12234TIP3    H258118   5.687   3.718  14.422 -0.5611 -1.0490 -0.8239
12235TIP3   OH258119   6.980   5.417  12.621 -0.0641  0.6304 -0.2642
12235TIP3    H158120   6.963   5.499  12.668 -0.9377 -0.0167  0.5766
12235TIP3    H258121   6.983   5.351  12.690  1.8213  0.1124 -0.8133
12236TIP3   OH258122   3.190   6.696   0.957  0.3369 -0.0450  0.4178
12236TIP3    H158123   3.115   6.649   0.995  0.3192  0.8251  1.4884
12236TIP3    H258124   3.151   6.767   0.906  0.3764 -0.9050 -0.8131
12237TIP3   OH258125   3.818   3.824   0.412 -0.0969 -0.0379  0.1652
12237TIP3    H158126   3.801   3.899   0.470 -2.7229  0.5729 -1.3139
12237TIP3    H258127   3.802   3.747   0.467 -3.4017  0.5285  0.1302
12238TIP3   OH258128   3.579   4.108   4.310  0.4465 -0.4950 -0.2466
12238TIP3    H158129   3.639   4.036   4.293 -0.3742 -0.9112 -1.4620
12238TIP3    H258130   3.492   4.068   4.312  0.2344  0.0355  1.9316
12239TIP3   OH258131   2.478   6.246   0.798 -0.5948 -0.2966  0.0361
12239TIP3    H158132   2.491   6.156   0.770 -0.6834 -0.6366  1.0392
12239TIP3    H258133   2.480   6.242   0.894  0.0878  0.8719  0.0867
12240TIP3   OH258134   1.829   4.843   0.460  0.2432  0.0259 -0.5441
12240TIP3    H158135   1.738   4.869   0.453  0.0344 -0.4844  0.2356
12240TIP3    H258136   1.829   4.767   0.518  1.2366  0.4350  0.0145
12241TIP3   OH258137   4.240   5.767  14.839  0.4982  0.0771 -0.0684
12241TIP3    H158138   4.174   5.800  14.779 -1.6912 -2.4233  0.8805
12241TIP3    H258139   4.323   5.791  14.799 -0.9427  2.7081 -1.6063
12242TIP3   OH258140   1.353   0.196   1.514 -0.1078  0.4377  0.2894
12242TIP3    H158141   1.406   0.270   1.483  1.2492 -0.9117 -0.6637
12242TIP3    H258142   1.309   0.229   1.592  1.6030  1.8146  0.6983
12243TIP3   OH258143   6.893   3.312   0.458 -0.2827 -0.2132 -0.2884
12243TIP3    H158144   6.951   3.374   0.503 -1.2372  1.2970 -1.0990
12243TIP3    H258145   6.877   3.243   0.523  1.9965 -0.4217  0.1209
12244TIP3   OH258146   2.958   4.377   3.676  0.0957  0.4291  0.4028
12244TIP3    H158147   2.982   4.411   3.590  0.7408  0.4378  0.5883
12244TIP3    H258148   2.967   4.451   3.735  2.9410 -0.3760  1.0697
12245TIP3   OH258149   3.308   2.572   1.145  0.0978  0.5111 -0.3883
12245TIP3    H158150   3.354   2.527   1.075 -0.8997 -0.0778 -0.6705
12245TIP3    H258151   3.370   2.638   1.176  0.8777  0.1687 -1.2083
12246TIP3   OH258152   3.690   4.723   2.977 -0.6160  0.2746 -0.3419
12246TIP3    H158153   3.697   4.638   2.932  0.2322  0.4085 -0.4719
12246TIP3    H258154   3.728   4.707   3.064 -1.0308  0.3642 -0.1428
12247TIP3   OH258155   2.185   5.097   4.181  0.6691 -0.0505 -0.0303
12247TIP3    H158156   2.231   5.090   4.098 -0.3566  2.2130 -0.8581
12247TIP3    H258157   2.220   5.177   4.221 -0.7786  0.3925  0.4117
12248TIP3   OH258158   3.358   4.793  15.740  0.4982 -0.2727  0.6298
12248TIP3    H158159   3.289   4.847  15.778  1.4422  0.6542  1.0787
12248TIP3    H258160   3.343   4.706  15.777 -0.5803 -0.1469  0.5049
12249TIP3   OH258161   2.766   0.787   1.761  0.2269  0.2080  0.3877
12249TIP3    H158162   2.814   0.708   1.736  0.5519  0.3360  0.6038
12249TIP3    H258163   2.731   0.767   1.848 -1.6206 -0.5578 -0.5193
12250TIP3   OH258164   0.567   6.822   0.661 -0.1082 -0.2372  1.0352
12250TIP3    H158165   0.598   6.737   0.631  0.7666  0.0106  1.2452
12250TIP3    H258166   0.626   6.847   0.731  1.5701  1.9641 -1.0594
12251TIP3   OH258167   4.764   3.315   2.399  0.7437 -0.1687  0.4824
12251TIP3    H158168   4.812   3.236   2.376 -0.3492 -1.0284  1.0669
12251TIP3    H258169   4.748   3.306   2.493 -1.5211 -0.4839  0.1130
12252TIP3   OH258170   1.899   3.843   3.488 -0.4491 -0.6660  0.2474
12252TIP3    H158171   1.842   3.827   3.563 -0.8480 -2.1173 -0.3410
12252TIP3    H258172   1.840   3.874   3.419 -0.3352 -0.8830  0.0503
12253TIP3   OH258173   2.459   6.379   1.621  0.0990  0.1310  0.3505
12253TIP3    H158174   2.365   6.372   1.634  0.4456 -0.9000  2.5863
12253TIP3    H258175   2.470   6.456   1.566 -2.0685  0.0651 -0.2081
12254TIP3   OH258176   2.537   6.432   0.131 -0.2048  0.6583  0.4804
12254TIP3    H158177   2.612   6.409   0.186  0.4669 -2.6134 -1.6828
12254TIP3    H258178   2.572   6.496   0.069 -0.2502  2.1329  1.9212
12255TIP3   OH258179   1.486   4.165  13.373 -0.1210  0.3777 -0.3445
12255TIP3    H158180   1.415   4.116  13.414  1.2632  0.2639  2.0276
12255TIP3    H258181   1.559   4.103  13.368  0.3877  1.0248 -1.0453
12256TIP3   OH258182   5.014   0.467  13.662 -0.1991  0.6079  0.3052
12256TIP3    H158183   4.948   0.414  13.615  0.1427 -0.8003  1.3795
12256TIP3    H258184   5.094   0.416  13.656  0.8907  2.4303 -1.1873
12257TIP3   OH258185   2.893   3.344   1.766 -0.4916  0.2170 -0.9918
12257TIP3    H158186   2.805   3.369   1.792 -0.2498  0.5371 -0.4762
12257TIP3    H258187   2.940   3.332   1.849 -0.0996 -0.1282 -1.2599
12258TIP3   OH258188   1.140   7.113   0.966  0.6713  0.4559 -0.2928
12258TIP3    H158189   1.183   7.175   0.907  0.6853 -0.8303 -1.6489
12258TIP3    H258190   1.064   7.161   1.000 -0.8114  0.3649 -3.3265
12259TIP3   OH258191   1.537   6.783   4.380  0.5712 -0.3317  0.0514
12259TIP3    H158192   1.619   6.817   4.343  0.6983  1.4897  1.9094
12259TIP3    H258193   1.557   6.770   4.473 -0.2861 -3.0240 -0.1018
12260TIP3   OH258194   2.056   5.811   2.113  0.3564  0.0743 -0.2515
12260TIP3    H158195   1.972   5.854   2.133  0.3470  0.2660 -0.7040
12260TIP3    H258196   2.031   5.732   2.066  0.2810 -1.2727  1.9894
12261TIP3   OH258197   0.818   4.042   1.910  0.5489  0.0147  0.3260
12261TIP3    H158198   0.861   4.078   1.833  0.2021 -0.2977 -0.0133
12261TIP3    H258199   0.834   3.948   1.905 -0.2002 -0.1092  0.1812
12262TIP3   OH258200   0.436   6.885   3.788  0.0598  0.0915 -0.1473
12262TIP3    H158201   0.368   6.892   3.721  0.0678 -1.3735 -0.3411
12262TIP3    H258202   0.390   6.853   3.866  0.1451  1.2614  0.3943
12263TIP3   OH258203   2.762   0.814   4.343 -0.3834  0.0554  0.1786
12263TIP3    H158204   2.795   0.746   4.285 -0.7358  0.3995 -0.4239
12263TIP3    H258205   2.837   0.837   4.398  0.8178  1.8571 -2.1564
12264TIP3   OH258206   2.104   4.407  14.578 -0.2623 -0.3142 -0.2590
12264TIP3    H158207   2.102   4.495  14.616  4.0375  0.6588 -2.1011
12264TIP3    H258208   2.024   4.401  14.526 -0.2998  2.7363 -0.6007
12265TIP3   OH258209   0.592   5.230  15.361 -0.1972 -0.2932  0.0294
12265TIP3    H158210   0.513   5.176  15.368 -0.6809  0.6852  2.4386
12265TIP3    H258211   0.597   5.276  15.444  1.7517  1.2848 -0.9311
12266TIP3   OH258212   4.068   3.415   2.407 -0.3564 -0.3541  0.1064
12266TIP3    H158213   4.029   3.339   2.449 -0.2855 -1.8546 -2.4117
12266TIP3    H258214   4.160   3.392   2.397 -0.2536  0.2284 -0.3034
12267TIP3   OH258215   4.437   6.397  13.493 -0.4861 -0.2815  0.2439
12267TIP3    H158216   4.353   6.443  13.493 -0.9187 -1.0508  0.7248
12267TIP3    H258217   4.429   6.332  13.424  0.1320  0.3736 -0.4487
12268TIP3   OH258218   4.726   4.408   4.954 -0.1721 -0.0602 -0.3295
12268TIP3    H158219   4.755   4.498   4.936  0.1704 -0.3429 -1.1951
12268TIP3    H258220   4.689   4.377   4.872 -0.7216 -0.5535  0.0992
12269TIP3   OH258221   5.981   1.884   3.499  0.2254  0.0469 -0.3166
12269TIP3    H158222   6.076   1.868   3.498  0.0396 -1.1386  0.5833
12269TIP3    H258223   5.944   1.808   3.456 -0.4089 -0.0875  0.4717
12270TIP3   OH258224   3.703   5.489   3.027 -0.4676  0.0354  0.0472
12270TIP3    H158225   3.636   5.543   3.069  0.2192  1.1259 -0.2649
12270TIP3    H258226   3.733   5.540   2.953 -0.9718 -1.4835 -1.2409
12271TIP3   OH258227   2.702   3.516   4.451  0.3253 -0.2503 -0.4430
12271TIP3    H158228   2.701   3.452   4.522  0.0323  0.0242 -0.2002
12271TIP3    H258229   2.694   3.464   4.372  0.3017 -0.5301 -0.2561
12272TIP3   OH258230   2.135   6.841  13.781  0.6419 -0.1363 -0.1329
12272TIP3    H158231   2.152   6.935  13.785  0.5430 -0.0548 -1.5362
12272TIP3    H258232   2.221   6.801  13.784  0.6219 -0.0862  2.1697
12273TIP3   OH258233   6.899   0.759  13.888 -0.2632  0.4779  0.4658
12273TIP3    H158234   6.862   0.671  13.884 -1.0750  0.6688  3.0794
12273TIP3    H258235   6.994   0.746  13.882 -0.4687 -0.3382 -1.6923
12274TIP3   OH258236   4.087   2.630   2.577  0.4711  0.2163  0.1373
12274TIP3    H158237   3.997   2.622   2.545  0.5811 -0.7492  0.0618
12274TIP3    H258238   4.125   2.701   2.525  0.1222 -0.1941 -0.6830
12275TIP3   OH258239   3.139   0.747   1.992 -0.0214  0.4425  0.2465
12275TIP3    H158240   3.222   0.784   1.963  0.5422 -0.7837  0.2806
12275TIP3    H258241   3.155   0.653   1.999 -1.4108  0.1942  0.2582
12276TIP3   OH258242   3.550   3.233   1.839  0.3234 -0.3780  0.3968
12276TIP3    H158243   3.564   3.163   1.903 -1.3395 -0.2942  0.8682
12276TIP3    H258244   3.570   3.192   1.755 -0.0953 -1.2623  0.7197
12277TIP3   OH258245   2.564   0.155  12.547 -0.0870  0.4748 -0.3031
12277TIP3    H158246   2.494   0.091  12.536 -0.8314  0.9609  1.3805
12277TIP3    H258247   2.524   0.239  12.525 -0.8894  1.1286  3.2596
12278TIP3   OH258248   0.231   4.445   0.524  0.1294  0.2304  0.2727
12278TIP3    H158249   0.205   4.474   0.436 -0.0557  0.3467  0.3650
12278TIP3    H258250   0.325   4.462   0.528  0.3706 -0.9027 -0.3457
12279TIP3   OH258251   3.601   6.086   0.839 -0.4889  0.1906  0.2366
12279TIP3    H158252   3.667   6.096   0.907 -0.5087 -0.3003  0.3274
12279TIP3    H258253   3.590   6.174   0.803  2.2325 -0.1519 -1.6656
12280TIP3   OH258254   4.648   4.880   1.080  0.3876  0.1015 -0.2404
12280TIP3    H158255   4.626   4.859   1.171  0.2806  0.3582 -0.2059
12280TIP3    H258256   4.615   4.805   1.029  0.5579 -0.0971 -0.0561
12281TIP3   OH258257   2.186   2.272  13.246 -0.4523  0.4764  0.6030
12281TIP3    H158258   2.141   2.188  13.259 -0.8898  0.6456  0.2016
12281TIP3    H258259   2.160   2.299  13.158  1.8402 -0.2967 -0.3587
12282TIP3   OH258260   2.367   1.165   3.741  0.0798  0.6917 -0.2348
12282TIP3    H158261   2.359   1.161   3.836 -1.2673  1.4198 -0.2970
12282TIP3    H258262   2.289   1.120   3.708  1.6442 -1.5157 -1.0224
12283TIP3   OH258263   5.951   6.709  13.100 -0.2071  1.1153  0.4071
12283TIP3    H158264   5.876   6.653  13.120 -0.3706  0.1749 -2.6357
12283TIP3    H258265   6.020   6.677  13.158 -1.0776 -0.5110  0.5772
12284TIP3   OH258266   2.571   6.520   0.817 -0.1973 -0.3293 -0.5528
12284TIP3    H158267   2.557   6.442   0.763  1.4494 -1.5893  0.7991
12284TIP3    H258268   2.633   6.492   0.885 -1.5207  1.4530  1.4672
12285TIP3   OH258269   5.259   3.120   1.702  0.8180  0.0185  0.1324
12285TIP3    H158270   5.233   3.198   1.751 -0.8529 -0.1592 -0.4396
12285TIP3    H258271   5.230   3.136   1.613  3.1778  0.0119 -0.6608
12286TIP3   OH258272   5.907   5.034   4.688  0.4350 -0.6153  0.4226
12286TIP3    H158273   5.883   4.942   4.703 -0.1341 -0.5153  0.1097
12286TIP3    H258274   6.003   5.032   4.683  0.3248 -1.6257 -2.4555
12287TIP3   OH258275   6.723   1.310   2.197 -0.5211  0.3308 -0.1553
12287TIP3    H158276   6.758   1.221   2.186 -0.0928  0.6067 -1.0586
12287TIP3    H258277   6.799   1.367   2.191 -0.7579  0.7461  0.7163
12288TIP3   OH258278   4.330   6.258   0.232  0.1216  0.0485  0.0212
12288TIP3    H158279   4.328   6.266   0.327 -1.2293 -0.6643  0.0693
12288TIP3    H258280   4.365   6.171   0.215  0.8539  0.3744 -0.1484
12289TIP3   OH258281   3.668   5.168   0.602 -0.1620 -0.8085  0.0551
12289TIP3    H158282   3.573   5.161   0.587  0.0760  0.2155 -2.0807
12289TIP3    H258283   3.676   5.198   0.692 -1.9715  1.5820 -0.5225
12290TIP3   OH258284   4.260   3.106  15.576  0.0585 -0.2511 -0.0474
12290TIP3    H158285   4.239   3.157  15.654  2.7184 -1.8041  1.8033
12290TIP3    H258286   4.336   3.151  15.539  1.5386 -1.9708  0.8065
12291TIP3   OH258287   3.469   6.720   1.608  0.6623 -0.0949 -0.1905
12291TIP3    H158288   3.410   6.749   1.677  1.5930  0.8325  0.2393
12291TIP3    H258289   3.475   6.626   1.620  1.0336  0.0837  1.1984
12292TIP3   OH258290   3.589   2.200   0.854 -0.7432 -0.2644 -0.5178
12292TIP3    H158291   3.597   2.196   0.758  2.2650 -0.9335 -0.2778
12292TIP3    H258292   3.654   2.138   0.886 -1.3198  0.3816  2.0176
12293TIP3   OH258293   3.780   2.517   2.143  0.7776 -0.3824 -0.2940
12293TIP3    H158294   3.761   2.425   2.163 -0.0244 -0.1091  0.1719
12293TIP3    H258295   3.832   2.512   2.062 -0.8753 -1.1506 -1.3496
12294TIP3   OH258296   3.756   3.735   1.724  0.0736 -0.0452  0.1344
12294TIP3    H158297   3.760   3.746   1.629  0.5467 -1.2601 -0.0000
12294TIP3    H258298   3.806   3.655   1.740 -1.4123 -0.7663  1.2419
12295TIP3   OH258299   0.117   2.718   0.479 -0.7709 -0.3173 -0.4041
12295TIP3    H158300   0.200   2.763   0.495 -0.7515 -0.2984 -0.5591
12295TIP3    H258301   0.141   2.627   0.466 -0.9119 -0.5684  0.9760
12296TIP3   OH258302   6.121   5.469   2.314  0.3036  0.1525  0.0681
12296TIP3    H158303   6.197   5.439   2.264  0.3961 -1.2429  1.0175
12296TIP3    H258304   6.138   5.561   2.331  1.9404 -0.2277  0.5437
12297TIP3   OH258305   6.428   2.693  15.045  0.0249  0.3779  0.6682
12297TIP3    H158306   6.421   2.602  15.074  1.0644  0.2552  0.5711
12297TIP3    H258307   6.419   2.745  15.126 -0.6011  0.1869  0.7182
12298TIP3   OH258308   4.590   2.996   1.389 -0.7820 -0.6126 -0.0018
12298TIP3    H158309   4.572   2.938   1.315  1.2280 -2.3151  0.7816
12298TIP3    H258310   4.567   2.945   1.466  0.2814 -0.0935  0.6758
12299TIP3   OH258311   1.332   5.170   4.670 -0.3431  0.2563  0.6973
12299TIP3    H158312   1.423   5.144   4.657 -0.1223  1.7672 -0.9488
12299TIP3    H258313   1.335   5.236   4.739  0.0770  1.7116 -0.6718
12300TIP3   OH258314   4.156   6.013   2.353  0.1559 -0.2908 -0.1529
12300TIP3    H158315   4.133   5.920   2.358 -1.0529  0.0365  0.6121
12300TIP3    H258316   4.249   6.014   2.330 -0.2001 -1.6743 -1.7818
12301TIP3   OH258317   5.172   4.145   3.149 -0.2628 -0.5442 -0.0326
12301TIP3    H158318   5.254   4.196   3.148 -0.6965  0.2177  2.0183
12301TIP3    H258319   5.201   4.054   3.153  0.4955 -0.4486 -2.1959
12302TIP3   OH258320   2.718   0.910  15.495  0.0859  0.5524 -0.1242
12302TIP3    H158321   2.646   0.854  15.466  0.3685 -0.2496  0.6905
12302TIP3    H258322   2.722   0.979  15.430 -0.8436  0.1065 -0.6674
12303TIP3   OH258323   4.336   6.343   0.531  0.4779  0.2251  0.0043
12303TIP3    H158324   4.373   6.419   0.486 -0.9180  0.7651 -0.2726
12303TIP3    H258325   4.242   6.362   0.536 -0.0185 -1.8764 -0.8829
12304TIP3   OH258326   6.691   4.553  14.423 -0.2145 -0.2137 -0.1419
12304TIP3    H158327   6.618   4.552  14.361 -0.3096 -2.7686 -0.0581
12304TIP3    H258328   6.752   4.488  14.388  0.8629  0.0939  1.1329
12305TIP3   OH258329   3.724   5.030   2.330  0.2819 -0.6146  0.0965
12305TIP3    H158330   3.795   4.966   2.327 -1.1322 -2.2474  0.6609
12305TIP3    H258331   3.670   5.003   2.404  0.2359  1.8936  1.0262
12306TIP3   OH258332   1.459   3.393   1.066  0.5745 -0.1252 -0.8410
12306TIP3    H158333   1.479   3.373   1.158 -1.1407 -0.9154 -0.6276
12306TIP3    H258334   1.389   3.457   1.070  0.7792  0.1498 -1.6087
12307TIP3   OH258335   2.988   3.571   1.627  0.6600 -0.7572  0.1855
12307TIP3    H158336   3.022   3.536   1.544  0.1868 -1.1429  0.1508
12307TIP3    H258337   2.981   3.495   1.684  0.5262 -0.5678  0.4232
12308TIP3   OH258338   4.496   5.549  15.038  0.2944  0.1516  0.1082
12308TIP3    H158339   4.552   5.626  15.044  0.6393 -0.1956  1.8630
12308TIP3    H258340   4.508   5.517  14.949  1.2128  1.3349 -0.2090
12309TIP3   OH258341   4.631   4.195  15.143  0.3028  0.1301  0.1381
12309TIP3    H158342   4.691   4.187  15.217 -1.6041 -0.1217  1.6901
12309TIP3    H258343   4.606   4.287  15.142 -0.6559 -0.1211  0.5997
12310TIP3   OH258344   4.175   5.231   1.096 -0.0110  0.6392  0.1244
12310TIP3    H158345   4.170   5.139   1.120  0.6188  0.3889 -0.6792
12310TIP3    H258346   4.161   5.279   1.178 -0.0275 -0.1704  0.5924
12311TIP3   OH258347   0.519   4.511  13.965 -0.4696  0.4918  0.5751
12311TIP3    H158348   0.473   4.537  14.045 -0.2123 -1.8473  1.5078
12311TIP3    H258349   0.611   4.506  13.991  0.1212  3.3324 -0.8219
12312TIP3   OH258350   6.008   4.454   1.365  0.0011  0.5235 -0.5690
12312TIP3    H158351   5.978   4.396   1.435 -1.0879 -1.5375 -2.6710
12312TIP3    H258352   5.965   4.537   1.384  0.0325  0.1311  1.4158
12313TIP3   OH258353   2.978   4.850   4.216  0.0261  0.2831 -0.3566
12313TIP3    H158354   2.949   4.758   4.216 -1.5905  0.7776 -1.6256
12313TIP3    H258355   2.968   4.878   4.306  0.1741 -0.6670 -0.0308
12314TIP3   OH258356   3.960   3.305  13.289  0.2503  0.0783  0.1743
12314TIP3    H158357   4.045   3.262  13.288  0.5487  0.6783 -2.0535
12314TIP3    H258358   3.980   3.399  13.290 -0.3724  0.2337 -1.2119
12315TIP3   OH258359   2.964   4.213   0.234  0.4420  0.4216 -0.6514
12315TIP3    H158360   2.985   4.247   0.147 -2.0051 -2.7521 -2.5878
12315TIP3    H258361   2.926   4.287   0.280  1.7869  2.1548 -2.2514
12316TIP3   OH258362   1.359   4.194  14.006  0.1444 -0.1452 -0.2177
12316TIP3    H158363   1.309   4.265  13.966  0.5283 -0.6108 -1.5676
12316TIP3    H258364   1.376   4.223  14.095 -2.6517 -0.0440  0.3222
12317TIP3   OH258365   3.547   5.495   0.384  0.5029  0.0439 -0.2355
12317TIP3    H158366   3.564   5.497   0.478  0.4502  0.5583 -0.2336
12317TIP3    H258367   3.521   5.405   0.366  0.3446 -0.0139  0.2703
12318TIP3   OH258368   3.891   4.277  14.151 -0.4914 -0.2143 -0.3225
12318TIP3    H158369   3.825   4.267  14.220  0.7088 -1.9864  0.6179
12318TIP3    H258370   3.957   4.335  14.189 -0.0629 -0.8110 -0.1462
12319TIP3   OH258371   2.948   3.265  14.844 -0.1024  0.1207  0.0070
12319TIP3    H158372   2.937   3.230  14.756 -0.6512 -0.2077  0.2014
12319TIP3    H258373   2.913   3.354  14.840 -0.9468 -0.1959  0.1007
12320TIP3   OH258374   2.716   3.932   1.647  0.5322 -0.2235  0.5555
12320TIP3    H158375   2.689   3.865   1.709  1.2243  1.5809  2.8472
12320TIP3    H258376   2.807   3.910   1.626  0.7365 -0.0366  1.2498
12321TIP3   OH258377   2.299   7.302  14.760  0.0978 -0.5825  0.0312
12321TIP3    H158378   2.386   7.332  14.735  0.8087 -1.1930  1.7103
12321TIP3    H258379   2.245   7.318  14.682  1.8034 -0.6630 -1.1992
12322TIP3   OH258380   4.977   6.059   0.256 -0.0057  0.2469  0.0465
12322TIP3    H158381   4.986   5.988   0.192  0.6566  0.5324 -0.1835
12322TIP3    H258382   5.019   6.134   0.214 -1.1472  0.9046  0.0829
12323TIP3   OH258383   4.947   6.492   2.186  0.4966 -0.5449 -0.0197
12323TIP3    H158384   4.911   6.529   2.267  0.8992  0.5695 -0.3458
12323TIP3    H258385   4.871   6.476   2.131  0.1987 -1.4870  0.6361
12324TIP3   OH258386   4.235   2.272   0.042 -0.2948 -0.2197  0.4619
12324TIP3    H158387   4.221   2.361   0.008 -1.1117  0.0187  1.4027
12324TIP3    H258388   4.228   2.216  -0.035 -0.2171  0.4905 -0.0726
12325TIP3   OH258389   6.300   2.201  15.970  0.4042  0.3800  0.3474
12325TIP3    H158390   6.259   2.253  16.038 -0.2358  1.2159 -0.6664
12325TIP3    H258391   6.230   2.186  15.906  1.1339  0.0494 -0.3823
12326TIP3   OH258392   1.967   4.294   2.436  0.2034  0.0147 -0.7768
12326TIP3    H158393   2.027   4.334   2.500 -0.6711 -1.3684  0.9462
12326TIP3    H258394   2.024   4.265   2.365  1.2412  1.2490 -0.4820
12327TIP3   OH258395   5.839   5.302  14.281 -0.0506 -0.8770 -0.0875
12327TIP3    H158396   5.748   5.283  14.257 -0.9350  1.5800  1.1867
12327TIP3    H258397   5.854   5.250  14.360 -0.5710 -0.7691  0.0855
12328TIP3   OH258398   5.258   4.256  15.243 -0.1379 -0.3128  0.3920
12328TIP3    H158399   5.226   4.311  15.171 -0.1890 -0.0451  0.6161
12328TIP3    H258400   5.184   4.198  15.262  0.1672 -0.9335 -0.3089
12329TIP3   OH258401   5.178   0.148  15.921  0.4149  0.8042 -0.1972
12329TIP3    H158402   5.219   0.194  15.847  1.4826  0.2474  0.0447
12329TIP3    H258403   5.084   0.156  15.904  0.6499 -0.1697 -2.1519
12330TIP3   OH258404   7.071   5.826   3.391 -0.0162  0.0914  0.0458
12330TIP3    H158405   7.011   5.890   3.352 -1.8008 -0.8518  1.1412
12330TIP3    H258406   7.098   5.865   3.474 -0.6456 -0.2956  0.4416
12331TIP3   OH258407   4.088   4.199  15.744  0.0066 -0.4469 -0.0848
12331TIP3    H158408   4.111   4.148  15.822 -2.1084 -1.3129 -0.0002
12331TIP3    H258409   4.164   4.189  15.686  0.3795 -2.2010  0.6675
12332TIP3   OH258410   4.258   4.929   0.433 -0.0657  0.1893 -0.0286
12332TIP3    H158411   4.305   4.985   0.494 -0.2022  0.3512 -0.0723
12332TIP3    H258412   4.166   4.951   0.446 -0.1131  0.0365 -0.1067
12333TIP3   OH258413   5.884   2.393  15.716  0.2278  0.5749  0.2761
12333TIP3    H158414   5.897   2.323  15.652 -1.3631 -1.3925  2.0522
12333TIP3    H258415   5.812   2.445  15.679 -0.7332 -0.5911  0.4696
12334TIP3   OH258416   1.841   1.388  14.724  0.0712  0.6566  0.0562
12334TIP3    H158417   1.809   1.377  14.634  0.1024  0.8860  0.0169
12334TIP3    H258418   1.862   1.481  14.731  1.3386  0.3943 -0.1268
12335TIP3   OH258419   3.761   6.641   1.518 -0.0703  0.4384 -0.6587
12335TIP3    H158420   3.813   6.571   1.558 -1.3539 -1.1701 -1.7840
12335TIP3    H258421   3.776   6.631   1.424 -1.2664  0.8901 -0.8972
12336TIP3   OH258422   3.199   2.413   0.816 -0.3945 -0.3999  0.3594
12336TIP3    H158423   3.255   2.425   0.740  0.0130  1.9644  0.9765
12336TIP3    H258424   3.257   2.379   0.884 -0.5710 -1.6803 -0.1209
12337TIP3   OH258425   3.751   5.191  15.511 -0.2349  0.4308 -1.1286
12337TIP3    H158426   3.711   5.167  15.594  1.4360  0.0828 -0.4216
12337TIP3    H258427   3.742   5.286  15.506 -0.3823  0.4444 -0.5909
12338TIP3   OH258428   4.742   4.073  14.218  0.2630  0.2878 -0.0892
12338TIP3    H158429   4.803   4.048  14.287 -0.8868 -0.8500  0.5453
12338TIP3    H258430   4.702   4.154  14.249  0.1133  0.0454  0.3555
12339TIP3   OH258431   3.478   3.805   3.173  0.1441  0.1588  1.0766
12339TIP3    H158432   3.479   3.757   3.091  0.5744  0.7199  0.7525
12339TIP3    H258433   3.545   3.762   3.227  0.3732  0.2630  0.8704
12340TIP3   OH258434   4.118   4.901   2.826 -0.0105  0.8706 -0.8186
12340TIP3    H158435   4.158   4.932   2.744  1.7864  3.0602  0.8088
12340TIP3    H258436   4.189   4.904   2.890 -1.6184  0.1184  1.0534
12341TIP3   OH258437   5.448   2.953   1.021  0.5496 -0.5067  0.0626
12341TIP3    H158438   5.362   2.953   0.978  0.2801  3.2432  0.4707
12341TIP3    H258439   5.509   2.981   0.953  0.4802  3.0112  1.3732
12342TIP3   OH258440   0.264   3.122  13.956  0.0454  0.4233  0.0514
12342TIP3    H158441   0.203   3.130  14.029  1.5494 -0.2891  1.4260
12342TIP3    H258442   0.297   3.032  13.962  0.1333  0.3428 -1.5460
12343TIP3   OH258443   3.131   4.821  14.027  0.7267  0.3084 -0.1386
12343TIP3    H158444   3.104   4.790  13.940  0.4244  0.7374 -0.1983
12343TIP3    H258445   3.109   4.749  14.086  1.2678 -0.1317 -0.4658
12344TIP3   OH258446   5.826   5.123  15.332 -0.0830  0.1133  0.1584
12344TIP3    H158447   5.761   5.103  15.398  0.3830 -0.4246  0.4514
12344TIP3    H258448   5.775   5.152  15.256 -0.7071 -1.3254  0.0259
12345TIP3   OH258449   4.180   4.247   1.668 -0.1389  0.2282  0.5409
12345TIP3    H158450   4.146   4.331   1.635 -0.6749  0.7708  2.4214
12345TIP3    H258451   4.194   4.195   1.589 -0.4324  1.8459 -0.6211
12346TIP3   OH258452   6.319   5.471  14.321 -0.1211  0.9567  0.4396
12346TIP3    H158453   6.275   5.413  14.258  0.7559  0.3639  0.3538
12346TIP3    H258454   6.401   5.425  14.342  0.1029  1.6807  1.1673
12347TIP3   OH258455   5.936   2.086   0.671 -0.0478  0.2061  0.0055
12347TIP3    H158456   5.842   2.082   0.692 -0.3728  1.5275 -1.1665
12347TIP3    H258457   5.978   2.038   0.743 -1.5825  0.0085  0.7968
12348TIP3   OH258458   5.589   5.977   3.461  0.4361  0.7810  0.7192
12348TIP3    H158459   5.675   5.934   3.459  0.8881  1.7028 -0.7755
12348TIP3    H258460   5.601   6.056   3.409 -1.1565  1.2561  1.0494
12349TIP3   OH258461   0.497   6.948   0.406 -0.9516  0.2417  0.0467
12349TIP3    H158462   0.548   6.914   0.479 -0.9912  0.5060  0.2022
12349TIP3    H258463   0.560   6.958   0.334 -1.1443 -1.1107 -0.3199
12350TIP3   OH258464   5.212   5.483  15.428 -0.3559 -0.0221  0.5354
12350TIP3    H158465   5.134   5.487  15.484 -0.8144  1.5110 -0.1987
12350TIP3    H258466   5.246   5.394  15.441 -1.4277 -0.2442  1.9315
12351TIP3   OH258467   0.814   6.305  12.461 -0.1839  0.1644  0.4991
12351TIP3    H158468   0.894   6.256  12.445 -0.2544 -0.1488  1.0626
12351TIP3    H258469   0.843   6.391  12.490 -0.0625  0.7721 -1.4107
12352TIP3   OH258470   5.923   6.249  12.948 -0.0015  0.0000 -0.5542
12352TIP3    H158471   5.899   6.275  13.037  1.6219 -1.3084  0.3070
12352TIP3    H258472   5.979   6.321  12.916  0.0140  0.1283 -0.2404
12353TIP3   OH258473   1.995   4.277  15.069  0.6588  0.1866 -0.8610
12353TIP3    H158474   2.054   4.350  15.051 -0.4021  1.3436  0.2641
12353TIP3    H258475   2.035   4.230  15.142  0.3992  0.7452 -0.3547
12354TIP3   OH258476   0.859   6.518   2.064  0.0353 -0.6596  0.1406
12354TIP3    H158477   0.855   6.592   2.004 -1.6595  0.7167  1.8823
12354TIP3    H258478   0.805   6.450   2.022  1.3310 -0.8264 -1.3011
12355TIP3   OH258479   5.734   4.909  15.508 -0.3151  0.3926  0.2574
12355TIP3    H158480   5.673   4.963  15.558 -0.9637  1.2308 -1.4157
12355TIP3    H258481   5.679   4.847  15.461  0.3029 -0.4640  0.6418
12356TIP3   OH258482   5.562   6.755   1.928 -0.5582 -0.1572  0.4704
12356TIP3    H158483   5.485   6.718   1.884 -0.3317  0.2107 -0.2468
12356TIP3    H258484   5.624   6.683   1.933 -1.4423 -0.8220  2.2466
12357TIP3   OH258485   3.244   5.967  15.498  0.5945  0.5363 -0.7567
12357TIP3    H158486   3.252   6.011  15.414  0.9982  0.4013 -0.7906
12357TIP3    H258487   3.320   5.997  15.548 -0.0995  1.2823 -0.1302
12358TIP3   OH258488   6.999   4.978  14.738  0.0357  0.2664  0.5698
12358TIP3    H158489   7.063   4.915  14.772  0.6582  2.0164  2.7628
12358TIP3    H258490   6.936   4.924  14.690  0.7612 -1.9804  2.0551
12359TIP3   OH258491   2.191   3.177   0.386  0.5746 -0.6647 -0.1169
12359TIP3    H158492   2.188   3.272   0.385  3.0550 -0.5344  0.9503
12359TIP3    H258493   2.190   3.152   0.294 -1.7994  0.2829 -0.3829
12360TIP3   OH258494   3.779   2.567   0.633  0.0168 -0.6991  0.1347
12360TIP3    H158495   3.697   2.532   0.670  0.6373 -2.7148 -0.2970
12360TIP3    H258496   3.816   2.622   0.702 -0.3943 -1.9025  1.3335
12361TIP3   OH258497   4.727   6.287   2.903  0.4296  0.5912  0.5289
12361TIP3    H158498   4.742   6.351   2.833 -0.5321 -2.0418 -2.2026
12361TIP3    H258499   4.632   6.278   2.907  0.5667 -0.8188  0.7122
12362TIP3   OH258500   6.581   6.475   2.147 -0.0306 -0.2132  0.2992
12362TIP3    H158501   6.554   6.445   2.060  1.4869 -1.6978  0.3005
12362TIP3    H258502   6.551   6.406   2.206  0.0314  0.1853  0.8005
12363TIP3   OH258503   3.030   3.027  15.905  0.1668  0.2298  0.1226
12363TIP3    H158504   2.971   2.952  15.911 -0.1205  0.3590 -1.0183
12363TIP3    H258505   3.114   2.994  15.936  0.0609 -0.5754 -0.4334
12364TIP3   OH258506   5.587   1.443   3.198  0.1455 -0.1166  0.2111
12364TIP3    H158507   5.551   1.532   3.199 -1.5266 -0.7715  0.7160
12364TIP3    H258508   5.566   1.410   3.110  0.9147  0.0284 -0.0353
12365TIP3   OH258509   5.709   3.029   2.033  0.5977 -0.1538 -0.2476
12365TIP3    H158510   5.626   3.070   2.057  0.5832  0.6167 -1.5487
12365TIP3    H258511   5.707   3.026   1.938  1.8040 -0.6969 -0.2606
12366TIP3   OH258512   0.113   4.606   0.074 -0.4396  0.2581 -0.3999
12366TIP3    H158513   0.047   4.672   0.097 -0.1844  0.2462  0.3979
12366TIP3    H258514   0.097   4.534   0.135 -0.2302 -0.0983 -0.7631
12367TIP3   OH258515   6.666   3.814  15.315  0.7149 -0.3046 -0.4281
12367TIP3    H158516   6.719   3.814  15.235  0.0229 -0.2792 -0.8932
12367TIP3    H258517   6.660   3.722  15.339  2.0542 -0.2072  0.3661
12368TIP3   OH258518   5.949   5.716   0.250  0.4480  0.6798  0.0988
12368TIP3    H158519   5.998   5.727   0.331 -0.3160  1.3254  0.4853
12368TIP3    H258520   6.010   5.673   0.190  1.7160  2.1187  0.3297
12369TIP3   OH258521   3.384   2.905   0.969  0.3453 -0.1341 -0.6747
12369TIP3    H158522   3.412   2.995   0.984  0.3630 -0.4712  1.5274
12369TIP3    H258523   3.341   2.906   0.884  1.2209  1.7513 -1.0997
12370TIP3   OH258524   5.385   4.327   0.224 -0.3071  0.5598 -0.3255
12370TIP3    H158525   5.319   4.368   0.168 -0.3077 -0.3554 -1.0044
12370TIP3    H258526   5.467   4.338   0.176 -0.3887 -0.7047 -0.7844
12371TIP3   OH258527   6.577   5.777   1.008 -0.9691  0.2362  0.2841
12371TIP3    H158528   6.607   5.839   0.942  0.2892 -1.5086 -0.8109
12371TIP3    H258529   6.523   5.714   0.961  0.9902 -1.7661  0.6334
12372TIP3   OH258530   3.852   6.720   4.225  0.0977  0.7583 -0.3104
12372TIP3    H158531   3.845   6.788   4.293 -0.7778 -0.0451  0.4195
12372TIP3    H258532   3.890   6.645   4.270 -1.2112 -0.0329 -0.4999
12373TIP3   OH258533   3.210   3.079  14.340 -0.7559 -0.1568  0.0176
12373TIP3    H158534   3.128   3.032  14.357 -0.7004 -0.0909  0.4798
12373TIP3    H258535   3.194   3.125  14.258 -1.3494  0.2320  0.3474
12374TIP3   OH258536   2.516   5.168   5.559  0.3762  0.3059 -0.2324
12374TIP3    H158537   2.432   5.130   5.533 -0.4126  1.4170  0.6640
12374TIP3    H258538   2.562   5.096   5.602 -0.3416 -0.1568 -0.2243
12375TIP3   OH258539   3.931   5.389  13.550  0.7568  0.0781 -0.3553
12375TIP3    H158540   3.932   5.377  13.645  1.5264 -2.0941 -0.6157
12375TIP3    H258541   4.002   5.452  13.533  2.2973 -1.4462  0.2879
12376TIP3   OH258542   1.615   6.004  14.819 -0.0430  0.6437  0.3019
12376TIP3    H158543   1.580   6.081  14.863  0.3631 -0.7278  3.1147
12376TIP3    H258544   1.546   5.979  14.757 -0.3553  2.9665 -0.3638
12377TIP3   OH258545   3.262   4.041   1.546  0.2232  0.1068  0.0588
12377TIP3    H158546   3.245   3.974   1.611 -0.7811 -1.7351 -2.0150
12377TIP3    H258547   3.197   4.109   1.563  1.2139  0.5560  2.1441
12378TIP3   OH258548   3.180   5.379  14.963  0.2383  0.0197  0.1017
12378TIP3    H158549   3.169   5.292  14.924 -0.4209  0.0590  0.1891
12378TIP3    H258550   3.114   5.433  14.919 -1.1912 -0.1650  1.9677
12379TIP3   OH258551   3.684   6.186   2.360 -0.6783  0.3284 -0.4301
12379TIP3    H158552   3.755   6.226   2.310 -1.5727  0.9644 -1.2076
12379TIP3    H258553   3.641   6.260   2.403  0.1559 -0.2106  1.4221
12380TIP3   OH258554   4.441   2.413   1.385  0.0912 -0.0923  0.1258
12380TIP3    H158555   4.533   2.388   1.395  0.6896  1.5301 -1.0426
12380TIP3    H258556   4.411   2.365   1.308  0.3913  0.4433 -0.3375
12381TIP3   OH258557   5.585   3.642   4.721  0.1032  0.0853  0.3287
12381TIP3    H158558   5.596   3.611   4.811  1.1237  0.3502  0.2972
12381TIP3    H258559   5.636   3.582   4.668 -1.2978 -0.6639 -0.1986
12382TIP3   OH258560   5.011   5.771   1.408 -0.2197 -0.3756 -0.2787
12382TIP3    H158561   4.970   5.744   1.490  1.0870 -1.4015  0.0459
12382TIP3    H258562   5.084   5.827   1.434 -0.1931 -0.1682 -0.7791
12383TIP3   OH258563   5.343   5.453  15.871  0.5448  0.4285 -0.1178
12383TIP3    H158564   5.436   5.473  15.859  0.4239  0.8045 -0.4382
12383TIP3    H258565   5.298   5.534  15.845  0.1282  0.2407  0.0230
12384TIP3   OH258566   4.994   1.955  15.010  0.1748 -0.0907 -0.5765
12384TIP3    H158567   5.013   1.864  15.035  2.3602 -0.3079 -2.8193
12384TIP3    H258568   5.032   1.964  14.922  0.5018  3.1727 -0.1440
12385TIP3   OH258569   4.563   4.332  15.770 -0.0409 -0.1081 -0.0280
12385TIP3    H158570   4.623   4.400  15.803 -0.7743  0.1893  0.7089
12385TIP3    H258571   4.518   4.374  15.697 -0.1374  0.0388  0.1147
12386TIP3   OH258572   3.364   6.107   2.202  0.0258  0.6132  0.1708
12386TIP3    H158573   3.294   6.168   2.223 -0.3159 -0.4031  2.1245
12386TIP3    H258574   3.341   6.026   2.248  0.1636 -1.2126 -2.8326
12387TIP3   OH258575   1.883   5.319  15.881  0.6503 -0.6815  0.4412
12387TIP3    H158576   1.846   5.234  15.902  0.2812 -0.4291  0.8292
12387TIP3    H258577   1.931   5.345  15.960 -2.8990  1.4479  2.0219
12388TIP3   OH258578   2.549   3.548  15.840  0.2444  0.1271  0.5615
12388TIP3    H158579   2.470   3.498  15.822  0.3666  0.3333 -0.5294
12388TIP3    H258580   2.617   3.507  15.787  0.6687  0.5351  0.7790
12389TIP3   OH258581   5.540   4.984  14.232 -0.1750 -0.1106 -0.3117
12389TIP3    H158582   5.452   4.948  14.239 -0.2119 -0.0991 -0.7679
12389TIP3    H258583   5.584   4.953  14.312 -0.8634  0.6546  0.3715
12390TIP3   OH258584   2.732   5.499   2.709  0.5733  0.3822  0.7818
12390TIP3    H158585   2.748   5.502   2.615  1.9326  1.3493  1.0309
12390TIP3    H258586   2.647   5.455   2.717  0.1597  0.8170 -0.9211
12391TIP3   OH258587   5.311   3.709   1.644  0.1818  0.1277  0.2274
12391TIP3    H158588   5.253   3.781   1.618 -0.2017 -0.5918 -0.9264
12391TIP3    H258589   5.383   3.712   1.581  1.3266  0.8882  1.5313
12392TIP3   OH258590   5.285   3.862  15.966  0.9600 -0.8825  0.3367
12392TIP3    H158591   5.360   3.919  15.984 -0.0447  0.2237  1.1268
12392TIP3    H258592   5.273   3.810  16.045  0.7547 -0.8944  0.3004
12393TIP3   OH258593   3.439   2.792   3.217 -0.4556  0.5576  0.2358
12393TIP3    H158594   3.469   2.838   3.138 -1.2451 -0.8305 -0.8876
12393TIP3    H258595   3.451   2.856   3.287  0.7892  1.6274 -0.9072
12394TIP3   OH258596   2.667   2.599  14.431 -0.2383  0.0847 -0.1402
12394TIP3    H158597   2.712   2.663  14.487  0.1422  1.2128 -1.7184
12394TIP3    H258598   2.583   2.585  14.474  0.8847 -0.6896  1.8726
12395TIP3   OH258599   4.990   4.703  15.050  0.5458 -0.2888 -0.1079
12395TIP3    H158600   5.021   4.785  15.088  0.0105 -0.8236  1.5388
12395TIP3    H258601   4.959   4.726  14.963  1.4562  1.0426 -0.0912
12396TIP3   OH258602   0.175   4.131  15.085  0.5408  0.1945  0.4364
12396TIP3    H158603   0.239   4.159  15.151  0.9059  0.2933  0.0402
12396TIP3    H258604   0.189   4.189  15.011 -1.2300  1.3817  1.0103
12397TIP3   OH258605   4.803   4.114  15.379 -0.1317 -0.0055 -0.6073
12397TIP3    H158606   4.843   4.104  15.465 -0.9245  0.4783 -0.1761
12397TIP3    H258607   4.741   4.041  15.373 -0.1894  0.0527 -0.7096
12398TIP3   OH258608   5.081   2.030   0.130  0.0826 -0.4723 -0.6244
12398TIP3    H158609   5.135   1.954   0.106 -0.0286 -0.3633 -1.2154
12398TIP3    H258610   5.144   2.102   0.135  0.2241 -0.6402  0.1538
12399TIP3   OH258611   4.797   3.666  14.526 -0.5435 -0.0014 -0.3027
12399TIP3    H158612   4.793   3.690  14.433 -2.0146 -0.0400 -0.2648
12399TIP3    H258613   4.819   3.573  14.525 -2.3377 -0.4515 -0.6952
12400TIP3   OH258614   6.516   0.643  15.362  0.6236  0.0275  0.0492
12400TIP3    H158615   6.550   0.555  15.351  1.6070  0.4123 -0.0721
12400TIP3    H258616   6.421   0.634  15.354  0.7038 -1.0525  0.3136
12401TIP3   OH258617   0.259   3.485  15.041  0.5145 -0.5736 -0.4640
12401TIP3    H158618   0.180   3.442  15.009  0.1292 -1.4749  1.6172
12401TIP3    H258619   0.228   3.569  15.074  0.7450 -0.1022 -1.4244
12402TIP3   OH258620   2.749   4.426   1.885  0.6179 -0.6779 -0.3543
12402TIP3    H158621   2.677   4.362   1.888  0.5299 -0.5274  1.6872
12402TIP3    H258622   2.799   4.408   1.965  0.4800  1.9561  0.3453
12403TIP3   OH258623   5.042   6.278   0.110 -0.3929  0.2501  0.3261
12403TIP3    H158624   5.030   6.368   0.141  1.1576  0.4561  0.3831
12403TIP3    H258625   5.137   6.267   0.105 -0.5902 -0.5423 -2.1768
12404TIP3   OH258626   3.698   3.752  15.009  0.6405 -0.0241 -0.0104
12404TIP3    H158627   3.760   3.740  14.937 -0.8179  0.7584 -1.4022
12404TIP3    H258628   3.624   3.695  14.987 -0.3237  1.1143  0.2711
12405TIP3   OH258629   2.159   4.934  14.010 -0.4737 -0.7509  0.0581
12405TIP3    H158630   2.100   4.946  14.084  0.1145 -1.6010  0.6738
12405TIP3    H258631   2.172   4.839  14.005 -0.2690 -0.6736 -0.9416
12406TIP3   OH258632   3.052   3.786   4.752  0.1412 -0.1389 -0.0606
12406TIP3    H158633   3.003   3.727   4.694 -0.0855 -0.2044  0.1945
12406TIP3    H258634   3.072   3.732   4.829  3.2574 -1.0191 -1.4511
12407TIP3   OH258635   4.488   6.791   1.320 -0.3343 -0.1275 -0.3864
12407TIP3    H158636   4.478   6.735   1.397  0.5877  2.0150  1.3437
12407TIP3    H258637   4.557   6.852   1.344 -1.0477  1.5097 -2.3817
12408TIP3   OH258638   4.399   5.285   1.950 -0.0878  0.3124  0.4520
12408TIP3    H158639   4.417   5.352   2.016  1.9719  0.9064 -0.6596
12408TIP3    H258640   4.312   5.306   1.916  0.0118  1.6663  1.0203
12409TIP3   OH258641   0.768   6.763   0.370 -0.1618  0.3552  0.1485
12409TIP3    H158642   0.770   6.767   0.274  1.6656  1.3466  0.1915
12409TIP3    H258643   0.819   6.685   0.391 -1.1035 -0.2235  0.3103
12410TIP3   OH258644   5.740   6.360   1.074 -0.6597 -0.2246  0.0792
12410TIP3    H158645   5.821   6.317   1.104  0.0923 -0.3258 -2.0098
12410TIP3    H258646   5.769   6.419   1.005 -2.5320 -1.1420 -1.5247
12411TIP3   OH258647   6.247   5.040   0.136  0.6059 -0.2709  0.7961
12411TIP3    H158648   6.260   5.134   0.126  2.0277 -0.3739  1.4707
12411TIP3    H258649   6.245   5.026   0.231  1.1014 -1.0020  0.7015
12412TIP3   OH258650   4.133   0.050   2.819  0.7406 -0.4566  0.1014
12412TIP3    H158651   4.212   0.006   2.787  0.4904 -0.2095 -0.8620
12412TIP3    H258652   4.164   0.133   2.854  1.2051 -1.3209  1.8300
12413TIP3   OH258653   5.214   6.058   1.010  0.3479  0.3066  0.5955
12413TIP3    H158654   5.134   6.017   0.977 -0.6636  2.2358  0.5949
12413TIP3    H258655   5.191   6.090   1.097  2.0936 -1.9536  1.9601
12414TIP3   OH258656   3.196   3.531   0.398  0.8762 -0.7673 -0.2990
12414TIP3    H158657   3.201   3.543   0.303  0.5728 -0.7196 -0.3103
12414TIP3    H258658   3.166   3.440   0.409 -0.1285 -0.4444 -0.2703
12415TIP3   OH258659   3.595   2.534   1.329 -0.8899  0.4952  0.5289
12415TIP3    H158660   3.575   2.618   1.287  2.9757  0.4836 -1.4783
12415TIP3    H258661   3.586   2.470   1.259 -0.3090 -0.3206  1.1994
12416TIP3   OH258662   4.064   6.745   1.174  0.4158 -0.0020  0.3742
12416TIP3    H158663   4.135   6.698   1.131 -0.1423 -0.0385 -0.5216
12416TIP3    H258664   4.078   6.730   1.268  0.4730 -1.6161  0.1258
12417TIP3   OH258665   2.605   2.498   5.010 -0.2603  0.2935 -0.3436
12417TIP3    H158666   2.654   2.529   5.086  0.3755  1.1459 -1.0987
12417TIP3    H258667   2.537   2.564   4.997 -0.2600  0.2375 -0.6250
12418TIP3   OH258668   2.806   2.300  15.899 -0.1071 -0.2629 -0.2285
12418TIP3    H158669   2.774   2.257  15.819  1.9558 -0.1721 -1.1302
12418TIP3    H258670   2.835   2.228  15.955  0.2060 -0.2219 -0.3394
12419TIP3   OH258671   5.492   3.655   0.016 -0.1661 -0.2712 -0.2754
12419TIP3    H158672   5.449   3.580  -0.024  0.0549 -0.3482 -0.3721
12419TIP3    H258673   5.554   3.685  -0.051  0.7613 -0.8797  0.2808
12420TIP3   OH258674   3.644   3.128  15.063 -0.0871 -0.6018  0.2316
12420TIP3    H158675   3.734   3.140  15.092  0.1537  0.3822 -0.9090
12420TIP3    H258676   3.619   3.043  15.099  1.4107 -1.0446  0.2677
12421TIP3   OH258677   4.209   4.191   0.135 -0.4313  0.5079  0.2027
12421TIP3    H158678   4.173   4.259   0.078  0.5394 -0.0467 -1.1137
12421TIP3    H258679   4.169   4.109   0.104  0.8355  0.0764 -0.3477
12422TIP3   OH258680   5.715   4.690  15.694  0.3198 -0.3041  0.2429
12422TIP3    H158681   5.767   4.763  15.660 -2.7698  1.6338 -0.5235
12422TIP3    H258682   5.677   4.650  15.617 -1.5101  0.0266  0.9566
12423TIP3   OH258683   4.006   6.748   5.118 -0.3015  0.2471  0.0892
12423TIP3    H158684   4.053   6.829   5.103  1.6022 -0.8068  0.2277
12423TIP3    H258685   3.926   6.757   5.067  1.2410  1.0071 -2.2665
12424TIP3   OH258686   2.939   5.232   0.804 -0.7870 -0.4426 -0.0669
12424TIP3    H158687   3.001   5.268   0.866 -0.7096 -0.0442 -0.3755
12424TIP3    H258688   2.990   5.169   0.753 -0.6193 -0.0762 -0.3558
12425TIP3   OH258689   2.091   1.780   0.654  0.1703  0.0021  0.8837
12425TIP3    H158690   2.118   1.730   0.731  0.3018 -0.1873  0.7133
12425TIP3    H258691   2.078   1.869   0.688 -1.7507 -0.5042  1.5359
12426TIP3   OH258692   4.159   2.216   0.324  0.0196  0.2237  0.1583
12426TIP3    H158693   4.080   2.162   0.333 -0.4764  0.8714 -0.2766
12426TIP3    H258694   4.172   2.224   0.230  0.9010 -0.3017  0.2323
12427TIP3   OH258695   4.574   1.364   2.539 -0.0788 -0.0897  0.1195
12427TIP3    H158696   4.501   1.303   2.544 -0.0382  0.0389  2.5568
12427TIP3    H258697   4.647   1.318   2.578  0.6966  0.4736 -0.6313
12428TIP3   OH258698   4.308   5.239  15.427  0.2297 -0.1663  0.2248
12428TIP3    H158699   4.345   5.323  15.454 -2.5923  0.8305  1.2144
12428TIP3    H258700   4.222   5.237  15.468 -0.3390 -2.9116 -1.0021
12429TIP3   OH258701   2.356   3.126   3.206 -0.2801 -0.3788 -0.1293
12429TIP3    H158702   2.383   3.137   3.115 -1.4952 -2.2097 -0.7348
12429TIP3    H258703   2.423   3.068   3.244 -0.5862 -0.8313 -0.2733
12430TIP3   OH258704   4.677   2.500   2.235 -0.2153  0.2954  0.0265
12430TIP3    H158705   4.621   2.510   2.312 -3.1444  0.8099 -2.0424
12430TIP3    H258706   4.621   2.454   2.171  1.6143  1.0952 -2.2312
12431TIP3   OH258707   2.825   0.589  15.574  0.1523  0.2753 -0.5455
12431TIP3    H158708   2.740   0.622  15.604  0.0412 -1.1330  0.7245
12431TIP3    H258709   2.878   0.668  15.561 -0.7463  1.0668  0.4946
12432TIP3   OH258710   4.284   2.401   2.557  0.7459 -0.7887 -0.0744
12432TIP3    H158711   4.207   2.348   2.539 -0.1361  0.3064  0.4395
12432TIP3    H258712   4.252   2.473   2.611  2.2057 -0.5733  0.5364
12433TIP3   OH258713   5.104   6.480   3.617 -0.3309  0.0431 -0.1314
12433TIP3    H158714   5.188   6.502   3.577 -0.6028  1.2835 -0.0589
12433TIP3    H258715   5.092   6.547   3.684  0.1913 -2.0650  2.1556
12434TIP3   OH258716   3.987   4.357   2.473 -0.0298 -0.3903 -0.3836
12434TIP3    H158717   3.935   4.403   2.538 -1.3841  0.9661 -2.3505
12434TIP3    H258718   3.923   4.314   2.416  0.9823  0.2823 -2.0989
12435TIP3   OH258719   3.598   5.890   4.906 -0.6301  0.4815 -0.3182
12435TIP3    H158720   3.654   5.864   4.979 -1.0611 -0.1856 -0.2176
12435TIP3    H258721   3.512   5.854   4.929 -0.4990 -0.7469 -1.7108
12436TIP3   OH258722   7.017   3.907   0.061  0.0104  0.1167 -0.1459
12436TIP3    H158723   7.080   3.922  -0.009 -0.8180  0.3850 -0.8286
12436TIP3    H258724   6.997   3.995   0.095  0.4566 -0.0145  0.4763
12437TIP3   OH258725   5.578   5.124   0.847 -0.0213 -0.1541 -0.0724
12437TIP3    H158726   5.599   5.040   0.806  0.5233  0.1278 -0.3748
12437TIP3    H258727   5.578   5.186   0.774  0.9246  0.3491  0.3473
12438TIP3   OH258728   4.716   3.249  15.843 -0.0297 -0.0046 -0.3732
12438TIP3    H158729   4.704   3.245  15.938  2.6915 -0.3569  0.0052
12438TIP3    H258730   4.783   3.316  15.829 -0.2698 -0.0734 -2.0315
12439TIP3   OH258731   3.658   7.084   0.364 -0.0177  0.1376 -0.4302
12439TIP3    H158732   3.618   7.016   0.310  0.3318 -0.0244 -0.4873
12439TIP3    H258733   3.642   7.056   0.454  0.0519  0.0245 -0.4533
12440TIP3   OH258734   4.181   4.042   1.857 -0.0036  0.6087  0.4947
12440TIP3    H158735   4.190   4.125   1.811 -2.1556  0.5897  0.0313
12440TIP3    H258736   4.123   4.061   1.930  1.1454 -0.0269  1.5964
12441TIP3   OH258737   4.452   1.822   0.208 -0.0275  0.0968 -0.1358
12441TIP3    H158738   4.472   1.915   0.215 -0.4091  0.0415  2.2795
12441TIP3    H258739   4.369   1.818   0.162 -1.0476  1.0928  1.5638
12442TIP3   OH258740   0.469   6.418   1.545  0.4493 -0.0305 -0.1844
12442TIP3    H158741   0.424   6.336   1.524 -2.7086  1.7435 -0.5709
12442TIP3    H258742   0.495   6.408   1.637 -0.1987 -1.3501 -0.1347
12443TIP3   OH258743   1.170   0.703  15.723 -0.1710 -0.2713  0.1544
12443TIP3    H158744   1.201   0.792  15.739  0.3359 -0.2935 -0.6577
12443TIP3    H258745   1.077   0.705  15.745 -0.2793  0.5962 -0.3480
12444TIP3   OH258746   5.897   6.352  14.543 -0.4924 -0.3389  0.0741
12444TIP3    H158747   5.872   6.295  14.471 -1.2066 -0.1506  0.1697
12444TIP3    H258748   5.824   6.346  14.605 -0.9846  1.3363 -0.2986
12445TIP3   OH258749   5.690   6.235   0.577 -0.5352 -0.2582  0.3254
12445TIP3    H158750   5.707   6.312   0.523 -3.6234 -0.1574 -0.6188
12445TIP3    H258751   5.644   6.268   0.654 -1.3041 -1.0723  0.2295
12446TIP3   OH258752   5.824   4.984   1.009  0.2469 -0.1100 -0.0017
12446TIP3    H158753   5.875   4.926   0.953 -1.5456 -1.0047 -0.7427
12446TIP3    H258754   5.740   4.940   1.019 -0.7712  1.8372  0.3114
12447TIP3   OH258755   4.120   1.348  14.708  0.3833  0.2943  0.1660
12447TIP3    H158756   4.201   1.375  14.666  0.0136  0.2178 -0.6133
12447TIP3    H258757   4.147   1.291  14.779  1.0475  0.8228  0.3388
12448TIP3   OH258758   5.288   0.933  14.575 -0.2825 -0.6002  0.1594
12448TIP3    H158759   5.297   0.858  14.515 -0.0489 -1.9566  1.8630
12448TIP3    H258760   5.356   0.919  14.641 -0.3287  1.0622  0.5689
12449TIP3   OH258761   7.273   4.912   1.665  0.1612 -0.5976 -0.0157
12449TIP3    H158762   7.329   4.946   1.735 -1.4196 -0.2767  1.1405
12449TIP3    H258763   7.275   4.979   1.597 -0.5870  0.4776  0.9913
12450TIP3   OH258764   4.344   6.181   0.857  0.1262 -0.1271  0.4011
12450TIP3    H158765   4.335   6.256   0.798 -0.8551 -0.3813  0.2200
12450TIP3    H258766   4.289   6.113   0.817  0.8821 -0.8819  0.6538
12451TIP3   OH258767   3.834   0.178  12.975 -0.0568 -0.0625 -0.3525
12451TIP3    H158768   3.762   0.152  13.032 -0.0822  0.3700 -0.1865
12451TIP3    H258769   3.808   0.147  12.888 -0.5592  0.3269 -0.3416
12452TIP3   OH258770   6.628   3.914   2.727  0.2973  0.2029 -0.0971
12452TIP3    H158771   6.619   3.820   2.742  0.7408 -0.1555 -1.8740
12452TIP3    H258772   6.545   3.952   2.755 -1.5305 -1.2708 -3.2858
12453TIP3   OH258773   4.060   3.834  13.215 -0.3314 -0.4306 -0.1572
12453TIP3    H158774   3.981   3.779  13.221  0.0870 -1.1585 -1.1688
12453TIP3    H258775   4.055   3.892  13.291 -1.6028 -0.7963  0.0508
12454TIP3   OH258776   6.468   5.081   0.619 -0.1549  0.1121 -0.1320
12454TIP3    H158777   6.432   5.154   0.669  0.6804  1.7026 -1.7868
12454TIP3    H258778   6.405   5.066   0.549  0.2267  0.0154 -0.4595
12455TIP3   OH258779   5.089   3.894   1.912  0.0495  0.2478 -0.0444
12455TIP3    H158780   5.126   3.980   1.889  0.3101  0.5170  1.3211
12455TIP3    H258781   5.026   3.913   1.982 -1.3194 -0.4445 -1.0811
12456TIP3   OH258782   4.991   5.503   2.956  0.0019  0.0328 -0.2436
12456TIP3    H158783   4.912   5.509   2.902  0.3863 -0.2713 -0.8349
12456TIP3    H258784   4.964   5.539   3.041 -0.8883 -0.4589 -0.3097
12457TIP3   OH258785   3.483   3.552   1.703  0.0567  0.0358 -0.5064
12457TIP3    H158786   3.544   3.601   1.758 -0.7176 -2.0385  2.3258
12457TIP3    H258787   3.399   3.560   1.747 -0.8762 -0.6432 -2.1074
12458TIP3   OH258788   1.138   4.368  12.485  0.1800 -0.0859 -0.4142
12458TIP3    H158789   1.106   4.457  12.473 -1.5586 -0.6791 -0.2908
12458TIP3    H258790   1.087   4.315  12.424  1.4078 -0.9754 -0.7069
12459TIP3   OH258791   0.560   5.427  14.956  0.4154  0.2754  0.2103
12459TIP3    H158792   0.640   5.376  14.968  0.5681  0.4995  0.1534
12459TIP3    H258793   0.546   5.429  14.862  1.1148  1.4064  0.1195
12460TIP3   OH258794   1.534   0.564   3.860  0.3698  0.0447 -0.2602
12460TIP3    H158795   1.535   0.630   3.792  2.1347  1.1711  0.8297
12460TIP3    H258796   1.514   0.482   3.814  1.5311  0.7845 -2.1160
12461TIP3   OH258797   5.749   3.938   2.245  0.3948 -0.5652  0.2042
12461TIP3    H158798   5.724   3.970   2.158  0.1644 -2.7747 -0.5515
12461TIP3    H258799   5.845   3.932   2.242  0.3373 -1.3518 -0.1566
12462TIP3   OH258800   6.821   3.409   0.745  0.2498 -0.2372 -0.1785
12462TIP3    H158801   6.857   3.357   0.816 -0.1395 -0.8605 -0.4376
12462TIP3    H258802   6.781   3.346   0.686  1.1934  0.2190 -1.3195
12463TIP3   OH258803   5.806   3.845  13.100 -0.4316 -0.1102  0.2581
12463TIP3    H158804   5.868   3.792  13.150 -1.3977 -2.4658 -0.9731
12463TIP3    H258805   5.852   3.866  13.019 -1.0291 -1.4159 -0.4304
12464TIP3   OH258806   5.686   4.904  14.524 -0.1109 -0.2650 -1.0366
12464TIP3    H158807   5.611   4.958  14.551  0.3756 -1.1662  2.2949
12464TIP3    H258808   5.650   4.816  14.515  0.3440 -0.5214 -0.3684
12465TIP3   OH258809   4.870   6.875   4.076 -0.4274 -0.6651  0.5091
12465TIP3    H158810   4.823   6.864   3.993 -0.5171 -0.1031  0.4854
12465TIP3    H258811   4.851   6.795   4.125 -1.6505 -0.3158  0.6202
12466TIP3   OH258812   2.363   0.284   5.771  0.2155 -0.2539 -0.0820
12466TIP3    H158813   2.386   0.376   5.757 -0.6949  0.2357  1.5055
12466TIP3    H258814   2.298   0.266   5.703 -1.2655  0.9519  0.9705
12467TIP3   OH258815   0.277   2.080   1.450  0.0746 -0.5224 -0.4174
12467TIP3    H158816   0.331   2.110   1.524 -0.4311  0.8619 -0.6051
12467TIP3    H258817   0.310   1.992   1.431  0.1638 -0.9377  1.5110
12468TIP3   OH258818   5.077   5.306   1.605 -0.2389 -0.2424  0.6410
12468TIP3    H158819   5.154   5.340   1.651 -1.1477  1.8320  0.6706
12468TIP3    H258820   5.109   5.287   1.516  0.1259  1.4327  0.3923
12469TIP3   OH258821   4.775   0.565   2.016 -0.0551 -0.3735  0.6494
12469TIP3    H158822   4.775   0.655   2.047  0.5874  0.2314 -1.0147
12469TIP3    H258823   4.849   0.524   2.061  2.1713  1.0550 -1.5814
12470TIP3   OH258824   5.249   2.792   0.670  0.0105 -0.5313  0.0769
12470TIP3    H158825   5.212   2.814   0.585  3.2106  0.6533 -1.0749
12470TIP3    H258826   5.217   2.703   0.688 -1.5645 -0.3884 -1.8280
12471TIP3   OH258827   2.984   5.425   2.786 -0.3035  0.9150  0.7150
12471TIP3    H158828   2.975   5.414   2.881 -1.8827  1.0882  0.5950
12471TIP3    H258829   2.895   5.444   2.755  0.3167  1.6014 -0.7042
12472TIP3   OH258830   3.062   6.129  15.968 -0.0180  0.1098  0.7237
12472TIP3    H158831   3.046   6.060  16.032 -1.3112 -0.6457 -0.3797
12472TIP3    H258832   3.138   6.099  15.918 -0.0772 -0.1236  0.7753
12473TIP3   OH258833   5.171   7.083   1.027 -0.5615 -0.1042  0.1082
12473TIP3    H158834   5.098   7.139   1.002 -0.3066  0.1662 -0.0254
12473TIP3    H258835   5.189   7.106   1.118  1.6122  2.3104 -0.8645
12474TIP3   OH258836   1.892   5.058   0.620  0.1628 -0.3271  0.1900
12474TIP3    H158837   1.873   4.983   0.564  1.6062  0.9191 -2.0220
12474TIP3    H258838   1.878   5.135   0.564 -0.3151  1.0378  2.1125
12475TIP3   OH258839   6.099   4.336   0.964 -0.2309 -0.1208  0.8263
12475TIP3    H158840   6.010   4.329   0.929  0.3043  0.9278 -0.8320
12475TIP3    H258841   6.129   4.422   0.935  2.2811 -1.5546 -1.0389
12476TIP3   OH258842   4.416   4.672   1.938  0.5334 -0.6611  0.1019
12476TIP3    H158843   4.491   4.723   1.909 -1.0788  1.2197 -0.9046
12476TIP3    H258844   4.407   4.693   2.031  0.7099 -0.1708  0.0117
12477TIP3   OH258845   5.781   3.996  12.710 -0.4967 -0.3006  0.1662
12477TIP3    H158846   5.846   3.945  12.759  2.1930  1.6886 -1.2153
12477TIP3    H258847   5.731   4.043  12.777  0.9739 -0.1367  1.1665
12478TIP3   OH258848   1.654   0.540   0.205 -0.6816 -0.0276  0.6373
12478TIP3    H158849   1.666   0.448   0.227 -0.3034 -0.1286  0.0102
12478TIP3    H258850   1.651   0.542   0.110  0.6150  0.7719  0.6045
12479TIP3   OH258851   4.969   4.543   3.178  0.1459  0.2553  0.6198
12479TIP3    H158852   4.962   4.462   3.127 -0.2717  0.1627  0.8178
12479TIP3    H258853   5.054   4.580   3.154  1.0866 -1.0957  1.7588
12480TIP3   OH258854   5.752   6.137  15.172 -0.4164 -0.0532 -0.7883
12480TIP3    H158855   5.821   6.074  15.193 -0.2641 -0.2455 -1.8446
12480TIP3    H258856   5.680   6.084  15.140 -0.2031  0.3280 -1.9065
12481TIP3   OH258857   6.709   5.808  15.276  0.2477 -0.1027 -0.3373
12481TIP3    H158858   6.692   5.764  15.359  1.2127 -0.1760 -0.1695
12481TIP3    H258859   6.804   5.798  15.263  0.2246  0.5819 -1.0542
12482TIP3   OH258860   4.026   4.600  14.992  0.2341 -0.1083  0.0327
12482TIP3    H158861   4.073   4.682  14.973  0.9703 -0.3043  0.9484
12482TIP3    H258862   3.991   4.613  15.080 -0.8574 -0.2376 -0.3797
12483TIP3   OH258863   7.009   2.965   1.261 -0.1350  0.1851 -0.7947
12483TIP3    H158864   7.098   2.944   1.233  0.6189 -1.3466  2.4536
12483TIP3    H258865   6.985   2.893   1.321 -1.7157  2.9489  2.0752
12484TIP3   OH258866   4.090   3.674   1.817  0.1552  1.0254  0.5527
12484TIP3    H158867   4.083   3.616   1.741  0.7274  0.8546  0.6307
12484TIP3    H258868   4.016   3.649   1.873  0.8985 -0.2236  0.9914
12485TIP3   OH258869   3.680   4.386   0.974  0.3795 -0.1548 -0.5712
12485TIP3    H158870   3.668   4.291   0.970  1.7559 -0.2877 -2.2207
12485TIP3    H258871   3.658   4.416   0.886 -2.2877  1.3744  0.5388
12486TIP3   OH258872   2.525   2.627  15.960  0.5436  0.3514  0.0074
12486TIP3    H158873   2.493   2.712  15.932  1.3269  0.4363 -0.6785
12486TIP3    H258874   2.617   2.625  15.931  0.0245 -1.4359 -1.6753
12487TIP3   OH258875   4.642   2.788  15.361 -0.0271 -0.3077 -0.4489
12487TIP3    H158876   4.616   2.729  15.290 -1.3222 -0.8838  0.4953
12487TIP3    H258877   4.717   2.744  15.403  0.2914 -0.3059 -1.0118
12488TIP3   OH258878   4.720   0.832   0.755 -0.3707  0.0380 -0.3205
12488TIP3    H158879   4.628   0.848   0.730 -0.1313  0.1090 -1.1905
12488TIP3    H258880   4.754   0.779   0.683  0.1947 -0.2213  0.1445
12489TIP3   OH258881   4.816   4.555  14.353 -0.5761  0.1931  0.2643
12489TIP3    H158882   4.818   4.592  14.441  1.7857 -2.5781  1.4530
12489TIP3    H258883   4.727   4.522  14.342 -0.9265  0.7068  1.5565
12490TIP3   OH258884   1.652   5.923   2.973 -0.8198  0.2225  0.2410
12490TIP3    H158885   1.650   5.851   2.909 -1.4454  0.2299  0.2520
12490TIP3    H258886   1.587   5.899   3.039  0.5374 -0.2815  1.4266
12491TIP3   OH258887   0.661   1.945  15.929 -0.1627  0.2688  0.0453
12491TIP3    H158888   0.596   2.015  15.939 -0.9576 -0.5497  0.8368
12491TIP3    H258889   0.611   1.865  15.945  0.7284 -0.4791 -0.8669
12492TIP3   OH258890   5.984   3.411   0.920  0.3993 -0.2037  0.0549
12492TIP3    H158891   5.925   3.340   0.944 -0.8891  1.2625  1.4063
12492TIP3    H258892   6.059   3.403   0.980 -0.9586  1.0708  2.0156
12493TIP3   OH258893   4.624   2.149   0.744  0.4495  0.7024  0.3174
12493TIP3    H158894   4.560   2.203   0.698 -0.2353  0.5517  1.0785
12493TIP3    H258895   4.637   2.193   0.828  2.2185  1.3618 -0.2826
12494TIP3   OH258896   3.611   6.118   3.711  0.5992 -0.1414 -0.0705
12494TIP3    H158897   3.655   6.083   3.789  1.2751 -2.8091 -1.5997
12494TIP3    H258898   3.682   6.144   3.653  0.1042  0.4333 -0.4251
12495TIP3   OH258899   2.115   0.499   0.823  0.0915  0.0347 -0.8168
12495TIP3    H158900   2.180   0.431   0.836 -0.9834 -1.1560 -1.5825
12495TIP3    H258901   2.037   0.453   0.794 -1.4525  1.3352  1.1517
12496TIP3   OH258902   4.517   5.404  14.723 -0.1613  0.3015 -0.3906
12496TIP3    H158903   4.517   5.309  14.739  0.5810  0.0461 -1.8090
12496TIP3    H258904   4.426   5.426  14.709 -0.1834 -0.4576 -1.4705
12497TIP3   OH258905   2.682   3.176   0.960  0.6235 -0.4359  0.6624
12497TIP3    H158906   2.727   3.111   0.908  0.8649 -1.5314  2.2265
12497TIP3    H258907   2.604   3.131   0.993 -0.2245  0.6421  0.1715
12498TIP3   OH258908   0.048   4.410   0.260  0.3428  0.3823  0.1834
12498TIP3    H158909   0.002   4.425   0.343  1.2196  1.4187  0.4928
12498TIP3    H258910   0.093   4.326   0.272 -1.5616 -0.7279 -0.1780
12499TIP3   OH258911   5.739   5.634  14.463 -0.5160 -0.2749  0.6422
12499TIP3    H158912   5.778   5.721  14.472 -1.1595 -0.0143  0.9811
12499TIP3    H258913   5.779   5.596  14.385 -1.1952  0.8387 -0.2557
12500TIP3   OH258914   2.048   5.569  15.726 -0.7601  0.2176  0.0618
12500TIP3    H158915   1.998   5.598  15.802  0.4521 -0.3681  1.1012
12500TIP3    H258916   2.133   5.541  15.762  0.2378  0.9773 -1.6323
12501TIP3   OH258917   3.059   4.596  14.196  0.1392 -0.1690 -0.8255
12501TIP3    H158918   3.083   4.618  14.286  0.0128  1.2249 -1.1303
12501TIP3    H258919   3.037   4.503  14.200  3.2393 -0.9161 -0.0448
12502TIP3   OH258920   4.801   0.073  14.375 -0.5204  0.3564 -0.0380
12502TIP3    H158921   4.848   0.080  14.458 -0.1332  1.4908 -0.3384
12502TIP3    H258922   4.868   0.052  14.311 -0.7715 -0.2186 -0.1129
12503TIP3   OH258923   2.135   3.306   1.039 -0.1690  0.3962 -0.0370
12503TIP3    H158924   2.043   3.299   1.013  0.0028 -1.2567 -0.2400
12503TIP3    H258925   2.153   3.225   1.087  2.1532 -1.0044 -3.0924
12504TIP3   OH258926   0.080   5.991   3.286 -0.0315  0.6310  0.2461
12504TIP3    H158927   0.020   6.047   3.336  0.3832  1.1750  0.1399
12504TIP3    H258928   0.146   6.051   3.251  0.8849 -0.0268  0.7992
12505TIP3   OH258929   4.366   2.373  15.142 -0.2304 -0.4956 -0.0237
12505TIP3    H158930   4.376   2.346  15.233 -0.6496 -0.9655 -0.1113
12505TIP3    H258931   4.324   2.298  15.099 -0.5099 -0.0798 -0.4906
12506TIP3   OH258932   1.613   4.154   0.296  0.3044  0.7031 -0.2784
12506TIP3    H158933   1.613   4.073   0.346  0.5003  0.1214 -1.2187
12506TIP3    H258934   1.662   4.216   0.351  3.1445 -0.7680 -1.0599
12507TIP3   OH258935   7.298   2.557  14.654 -0.3033 -0.1663  0.3788
12507TIP3    H158936   7.385   2.535  14.622  0.7094 -0.1238  2.9854
12507TIP3    H258937   7.313   2.600  14.739 -2.6965  2.4499 -0.4137
12508TIP3   OH258938   3.330   1.536   1.146 -0.8617  0.1289 -0.0604
12508TIP3    H158939   3.328   1.582   1.230 -1.5167  0.2539 -0.1441
12508TIP3    H258940   3.245   1.493   1.140 -0.2175 -1.1922  0.0680
12509TIP3   OH258941   1.228   3.634   1.643 -0.1351  0.3819 -1.2801
12509TIP3    H158942   1.153   3.607   1.591 -0.7484 -1.3070  0.4396
12509TIP3    H258943   1.299   3.643   1.579 -2.0278  3.1694 -3.1054
12510TIP3   OH258944   3.097   5.219   2.628 -0.6298  0.2723  0.0614
12510TIP3    H158945   3.084   5.268   2.709  0.7852 -1.5830  1.4380
12510TIP3    H258946   3.189   5.234   2.606  0.2726 -3.0197  1.3736
12511TIP3   OH258947   2.663   4.578   1.186 -0.6355 -0.2359 -0.0428
12511TIP3    H158948   2.678   4.484   1.180  0.3404 -0.0059 -1.5712
12511TIP3    H258949   2.724   4.616   1.123 -0.6572  1.4587  0.9251
12512TIP3   OH258950   2.079   3.370  13.851 -0.2182 -0.2901 -0.1452
12512TIP3    H158951   2.114   3.283  13.830 -0.9955 -0.1767 -2.0497
12512TIP3    H258952   1.990   3.353  13.882 -0.8565 -0.0980 -1.8214
12513TIP3   OH258953   4.516   1.641   2.564 -0.3386  0.1228 -0.1187
12513TIP3    H158954   4.567   1.565   2.594 -0.0778  0.2098 -0.3445
12513TIP3    H258955   4.466   1.668   2.642 -0.0915 -0.0010  0.0842
12514TIP3   OH258956   3.173   2.881   2.365  0.2690 -0.5738 -0.0192
12514TIP3    H158957   3.115   2.805   2.363  1.4033 -1.4676  0.1965
12514TIP3    H258958   3.222   2.877   2.283  1.8514 -1.3222  0.9171
12515TIP3   OH258959   7.218   5.889  14.825  0.4989  0.1438 -0.1021
12515TIP3    H158960   7.266   5.925  14.750  1.2439 -1.2823 -0.3273
12515TIP3    H258961   7.151   5.832  14.786 -1.3061  1.9818  0.2207
12516TIP3   OH258962   5.066   4.814   1.982  0.2041 -0.1538  0.4387
12516TIP3    H158963   5.058   4.789   2.074  1.0718 -3.5244 -0.3030
12516TIP3    H258964   5.157   4.794   1.960 -0.3906 -0.8254 -1.5260
12517TIP3   OH258965   2.167   1.530  15.232 -0.8000  0.9753 -0.2454
12517TIP3    H158966   2.171   1.530  15.327 -1.5224 -3.0270 -0.1117
12517TIP3    H258967   2.258   1.540  15.204 -0.2288 -0.5765  0.9543
12518TIP3   OH258968   0.608   0.179  14.625 -0.1701  0.4398 -0.3866
12518TIP3    H158969   0.665   0.251  14.651  0.0632  0.2298 -0.3160
12518TIP3    H258970   0.579   0.202  14.537  0.0582  0.5260 -0.4399
12519TIP3   OH258971   6.291   4.046  14.689 -0.0883 -0.2417 -0.0022
12519TIP3    H158972   6.382   4.074  14.685  0.0253 -0.6579 -0.4691
12519TIP3    H258973   6.265   4.036  14.597 -0.1204 -1.6168  0.1353
12520TIP3   OH258974   5.190   6.856   0.874 -0.0650  0.2745  0.1119
12520TIP3    H158975   5.157   6.903   0.951 -2.1295 -0.4314 -0.3209
12520TIP3    H258976   5.192   6.765   0.901 -0.5995  0.0486 -0.6123
12521TIP3   OH258977   4.532   4.387  12.619  0.2203  0.7287  0.3538
12521TIP3    H158978   4.590   4.314  12.598  0.3789  1.0333 -0.2674
12521TIP3    H258979   4.585   4.446  12.673  0.1995  0.5484  0.5676
12522TIP3   OH258980   6.279   6.376   1.168  0.4487  0.2437  0.0394
12522TIP3    H158981   6.308   6.435   1.238  0.2444  1.9904 -1.2937
12522TIP3    H258982   6.358   6.330   1.140  0.9060  0.9739  0.1149
12523TIP3   OH258983   1.844   4.172   0.606 -0.1186  0.5421  0.8625
12523TIP3    H158984   1.902   4.167   0.531 -1.1854  0.1507  0.0511
12523TIP3    H258985   1.901   4.161   0.682  0.7336 -0.6994  0.0511
12524TIP3   OH258986   6.316   5.482   1.764  0.2001  0.2135 -0.3015
12524TIP3    H158987   6.366   5.564   1.766  3.1707 -1.5726  1.9326
12524TIP3    H258988   6.362   5.427   1.701 -0.4520 -0.5672 -0.1017
12525TIP3   OH258989   1.721   3.723  12.472  0.3938 -0.1030 -0.1745
12525TIP3    H158990   1.786   3.669  12.518 -0.3898 -1.3704 -0.5168
12525TIP3    H258991   1.665   3.659  12.428 -1.6307  0.9215  0.8430
12526TIP3   OH258992   2.198   5.547   1.697 -0.2796  0.0208  0.7768
12526TIP3    H158993   2.250   5.546   1.778  3.9514 -1.5560 -1.7840
12526TIP3    H258994   2.154   5.462   1.695  1.6093 -0.9668  0.2554
12527TIP3   OH258995   5.134   3.268   2.614 -0.2038 -0.5636 -0.5478
12527TIP3    H158996   5.165   3.201   2.554 -0.3378 -0.8441 -0.3055
12527TIP3    H258997   5.042   3.247   2.629 -0.0741 -0.7227  0.0526
12528TIP3   OH258998   3.971   5.671  14.671  0.5280  0.1109 -0.4847
12528TIP3    H158999   4.017   5.594  14.705 -0.3381 -0.9445 -1.6864
12528TIP3    H259000   3.881   5.642  14.661  0.0807  1.4617 -0.4255
12529TIP3   OH259001   6.634   0.494  15.138  0.5142 -0.1995 -0.1612
12529TIP3    H159002   6.590   0.419  15.099 -0.4663  0.0853  0.3630
12529TIP3    H259003   6.725   0.467  15.148 -0.0853 -1.7722  1.1695
12530TIP3   OH259004   3.596   4.051   2.559  0.0775 -0.3116 -0.4333
12530TIP3    H159005   3.616   4.068   2.651  0.7072 -0.4372 -0.5421
12530TIP3    H259006   3.521   3.991   2.562 -0.1537 -0.0044 -0.0104
12531TIP3   OH259007   4.150   4.692   0.425  0.0317 -0.6517 -0.1002
12531TIP3    H159008   4.189   4.778   0.411  1.0902 -1.0236  0.4932
12531TIP3    H259009   4.125   4.662   0.338  5.0781 -2.2700 -1.1820
12532TIP3   OH259010   3.852   5.525   0.934  0.1989  0.9060 -0.4644
12532TIP3    H159011   3.945   5.510   0.947  0.0550  0.2228 -0.1839
12532TIP3    H259012   3.818   5.546   1.021 -0.1774 -0.3982 -0.2795
12533TIP3   OH259013   1.006   3.339   0.154 -0.4761  0.0429 -0.4129
12533TIP3    H159014   0.999   3.244   0.159 -1.8965  0.1433 -0.3042
12533TIP3    H259015   0.925   3.372   0.195 -0.1551  1.2812 -0.7348
12534TIP3   OH259016   7.181   5.393   2.659  0.2364 -0.3794 -0.1196
12534TIP3    H159017   7.236   5.321   2.691  0.9675  0.6337  0.9200
12534TIP3    H259018   7.221   5.472   2.696 -0.4175  0.5871 -1.4495
12535TIP3   OH259019   5.174   4.543   4.371  0.2509 -0.3325 -0.4172
12535TIP3    H159020   5.156   4.602   4.298 -0.3873 -0.9241 -0.7357
12535TIP3    H259021   5.151   4.456   4.339  1.4543 -0.7936 -0.0342
12536TIP3   OH259022   5.449   7.112   1.788 -0.0705 -0.5879 -0.2613
12536TIP3    H159023   5.414   7.196   1.816  0.1118  0.3453 -2.7237
12536TIP3    H259024   5.539   7.111   1.821  0.4150  0.8540 -1.5348
12537TIP3   OH259025   1.646   4.616   2.274  0.1649  0.2046 -0.1547
12537TIP3    H159026   1.643   4.622   2.369 -1.1631  0.6575 -0.2223
12537TIP3    H259027   1.588   4.543   2.252  0.6838 -0.0808 -0.6032
12538TIP3   OH259028   7.075   2.043   0.171  0.7139  0.3728 -0.0888
12538TIP3    H159029   6.992   2.008   0.202  0.6146 -0.1493 -0.9155
12538TIP3    H259030   7.086   2.004   0.084  1.0993  1.6016 -0.5973
12539TIP3   OH259031   5.576   2.767  15.961  0.0933 -0.5019  0.0059
12539TIP3    H159032   5.554   2.859  15.975  1.1113 -0.1180 -0.8978
12539TIP3    H259033   5.544   2.723  16.040  0.2971  0.7396  0.7988
12540TIP3   OH259034   2.440   4.013  15.627 -0.8922  0.1101  0.0864
12540TIP3    H159035   2.350   3.997  15.657 -0.8111  1.9357  1.3775
12540TIP3    H259036   2.441   4.105  15.603 -0.0301 -0.5330 -2.4364
12541TIP3   OH259037   1.598   6.798   2.304 -0.4837  0.4499  0.6536
12541TIP3    H159038   1.547   6.757   2.374 -0.2009  1.0391  1.2123
12541TIP3    H259039   1.551   6.879   2.285 -1.4020 -0.4201 -0.8930
12542TIP3   OH259040   2.927   3.594   0.397  0.4326 -0.3258  0.5805
12542TIP3    H159041   2.901   3.513   0.442  0.0611 -1.3486 -1.3847
12542TIP3    H259042   3.019   3.581   0.376  0.9000  0.6147  1.9733
12543TIP3   OH259043   7.077   3.260  11.568 -0.0254 -0.3740  0.1169
12543TIP3    H159044   7.167   3.250  11.538 -0.2421 -1.2619 -0.2609
12543TIP3    H259045   7.057   3.353  11.556  0.5043 -0.3746 -0.7541
12544TIP3   OH259046   1.788   2.005   2.268  0.9079 -0.6028 -0.1983
12544TIP3    H159047   1.859   1.941   2.273 -0.3739 -2.1099 -0.9227
12544TIP3    H259048   1.798   2.045   2.182  0.8480 -0.8473 -0.3189
12545TIP3   OH259049   0.050   4.362   4.041 -0.3269  0.1630  0.9704
12545TIP3    H159050   0.103   4.366   4.121  1.4716  0.7208 -0.2244
12545TIP3    H259051   0.055   4.270   4.013  2.4729  0.7749 -0.7245
12546TIP3   OH259052   1.311   0.292   0.239 -0.2639 -0.0531  0.0747
12546TIP3    H159053   1.266   0.377   0.245  0.7585  0.4863  0.2904
12546TIP3    H259054   1.289   0.248   0.322 -1.1271 -0.1788 -0.2094
12547TIP3   OH259055   5.664   3.386   2.298 -0.3547  0.5571 -0.2692
12547TIP3    H159056   5.615   3.406   2.218  0.4561 -0.0349 -0.9225
12547TIP3    H259057   5.692   3.472   2.331  0.7780  0.6998 -1.5697
12548TIP3   OH259058   5.465   4.741   4.960 -0.6477  0.1870 -0.1320
12548TIP3    H159059   5.490   4.649   4.960 -2.6471 -0.4014 -2.3440
12548TIP3    H259060   5.393   4.746   5.024 -0.8840  0.1086 -0.3919
12549TIP3   OH259061   6.289   5.774   0.407 -0.0150 -0.3822 -0.1622
12549TIP3    H159062   6.344   5.719   0.351  0.5746  0.7691 -0.7202
12549TIP3    H259063   6.203   5.730   0.406  0.2815 -0.9577 -1.0913
12550TIP3   OH259064   7.045   6.485   0.659 -0.3985 -0.1619 -0.1115
12550TIP3    H159065   6.964   6.469   0.707 -0.9135  0.4583 -0.7695
12550TIP3    H259066   7.087   6.399   0.654 -1.2841 -0.5915 -0.2560
12551TIP3   OH259067   6.190   3.224  12.587  0.2193 -0.0040 -0.3261
12551TIP3    H159068   6.158   3.286  12.652  1.2955  0.5685 -0.3410
12551TIP3    H259069   6.181   3.138  12.629  1.4674  0.4095  0.8201
12552TIP3   OH259070   1.924   3.064   3.905 -0.0814 -0.0400 -0.1898
12552TIP3    H159071   1.968   3.076   3.821 -0.4282  1.9453 -0.1277
12552TIP3    H259072   1.994   3.044   3.966  0.5904  1.6223 -0.3778
12553TIP3   OH259073   0.851   5.690   3.814 -0.3644 -0.6227  0.0006
12553TIP3    H159074   0.781   5.744   3.851  1.6017  1.3967  0.8231
12553TIP3    H259075   0.930   5.718   3.859  0.9552 -3.1332 -0.6753
12554TIP3   OH259076   0.449   5.256  15.837 -0.0462  0.4216  0.2744
12554TIP3    H159077   0.443   5.176  15.785  2.5716 -0.0748  0.7122
12554TIP3    H259078   0.417   5.232  15.924  0.6177 -0.1041  0.3695
12555TIP3   OH259079   1.045   4.301  15.582 -0.0259  0.1407 -0.0867
12555TIP3    H159080   1.025   4.219  15.627  0.9686 -1.9751 -3.3039
12555TIP3    H259081   1.130   4.328  15.618 -1.1172  0.6644  2.1583
12556TIP3   OH259082   0.796   3.759   2.063 -0.4150 -0.3011  0.3030
12556TIP3    H159083   0.757   3.838   2.101 -2.6502 -1.2579  0.0391
12556TIP3    H259084   0.740   3.687   2.092  1.3552 -1.7755  0.2023
12557TIP3   OH259085   6.918   3.480  15.295 -0.3651 -0.4588 -0.0477
12557TIP3    H159086   6.907   3.414  15.226 -0.6658 -2.1581  1.5629
12557TIP3    H259087   6.839   3.533  15.291 -0.4602 -0.6669 -0.8936
12558TIP3   OH259088   0.945   4.955   0.276 -0.5236  0.6120 -0.2776
12558TIP3    H159089   0.940   4.949   0.180  0.7971  0.7160 -0.3613
12558TIP3    H259090   0.880   5.022   0.299 -0.1392  1.3168 -1.1904
12559TIP3   OH259091   6.635   3.859   0.680  0.2531 -0.1797 -0.1188
12559TIP3    H159092   6.554   3.810   0.690 -0.3892  0.7766 -0.6083
12559TIP3    H259093   6.614   3.929   0.619  1.1668  0.7060  0.5634
12560TIP3   OH259094   6.920   1.182  14.001  0.2679  0.4995  0.0186
12560TIP3    H159095   7.009   1.170  14.035  1.3499  0.3085 -2.7784
12560TIP3    H259096   6.876   1.233  14.069  1.9371 -1.0122  2.3100
12561TIP3   OH259097   0.485   3.596  13.839  0.2765  0.4479  0.7818
12561TIP3    H159098   0.454   3.556  13.920 -0.4526  0.2305  0.4010
12561TIP3    H259099   0.458   3.534  13.770 -1.0163  1.6729  0.1676
12562TIP3   OH259100   1.879   1.469  15.343  0.1932  0.2863 -0.3676
12562TIP3    H159101   1.814   1.509  15.285  1.1340  1.6617 -0.4877
12562TIP3    H259102   1.961   1.476  15.295  0.7263  0.0843  0.5026
12563TIP3   OH259103   2.286   6.319   0.127  0.9485 -0.1453  0.0071
12563TIP3    H159104   2.296   6.270   0.208 -0.3325 -1.1394 -0.4322
12563TIP3    H259105   2.366   6.371   0.121  0.9111  0.1982  2.0774
12564TIP3   OH259106   6.895   0.085  14.132 -0.1444  0.2817 -0.1141
12564TIP3    H159107   6.970   0.131  14.095  0.9124 -0.8067  0.6323
12564TIP3    H259108   6.920  -0.008  14.129 -1.5211 -0.1076  0.0060
12565TIP3   OH259109   2.308   1.627   1.145  0.1297 -0.4639 -0.3594
12565TIP3    H159110   2.337   1.651   1.057  1.3129 -1.9555 -0.3788
12565TIP3    H259111   2.379   1.655   1.203 -1.4381  2.2198  0.3598
12566TIP3   OH259112   5.815   6.684  15.158 -0.1167  0.1026 -0.3096
12566TIP3    H159113   5.741   6.659  15.214 -0.1855  1.8228  0.4056
12566TIP3    H259114   5.780   6.753  15.102  0.8043  0.5735 -0.3107
12567TIP3   OH259115   6.446   2.313   1.662 -0.1295  0.3663  0.2417
12567TIP3    H159116   6.364   2.292   1.617  0.3062 -0.7182 -0.0663
12567TIP3    H259117   6.434   2.281   1.751  0.7200 -1.7043 -0.3611
12568TIP3   OH259118   0.966   4.433   1.285 -0.2811 -0.1355  0.1439
12568TIP3    H159119   0.876   4.404   1.302 -0.9380  1.5522 -0.3497
12568TIP3    H259120   0.957   4.503   1.220  1.5684 -1.3211 -1.4222
12569TIP3   OH259121   2.019   3.768   4.170  0.2881  0.0306  0.0882
12569TIP3    H159122   2.043   3.803   4.256 -0.6491 -0.2713  0.4816
12569TIP3    H259123   2.012   3.673   4.184  3.0853 -0.3815 -1.0326
12570TIP3   OH259124   3.826   4.004   0.134 -0.0188 -0.2755 -0.1820
12570TIP3    H159125   3.856   3.940   0.199  1.4636  2.0722  1.5167
12570TIP3    H259126   3.750   4.045   0.175  0.7397  1.0051 -0.0592
12571TIP3   OH259127   5.125   7.058   0.709  0.3835 -0.5268  0.5304
12571TIP3    H159128   5.184   7.124   0.745  0.1386 -0.1502  0.2474
12571TIP3    H259129   5.143   6.979   0.761 -0.3040  0.1304  1.7893
12572TIP3   OH259130   6.369   2.724   0.513  0.2279 -0.0165  0.0903
12572TIP3    H159131   6.349   2.630   0.505  0.8013 -0.1285 -0.0193
12572TIP3    H259132   6.284   2.765   0.528  0.0074 -0.5853  0.4093
12573TIP3   OH259133   2.962   6.289  14.029 -0.5774  0.0241 -0.1849
12573TIP3    H159134   3.015   6.348  13.976  1.2656  0.0707  1.6907
12573TIP3    H259135   2.892   6.344  14.063  0.6470  0.9613  0.8679
12574TIP3   OH259136   5.113   5.208  14.501  0.0581  0.3451  0.0694
12574TIP3    H159137   5.198   5.250  14.513  0.2166  0.0392  0.0363
12574TIP3    H259138   5.068   5.261  14.435  0.1312  0.6467  0.2645
12575TIP3   OH259139   2.363   6.532   3.309 -0.4041 -0.6163 -1.0356
12575TIP3    H159140   2.444   6.545   3.260 -1.5039  1.2211 -2.4521
12575TIP3    H259141   2.383   6.565   3.397 -0.0556  1.3072 -1.8091
12576TIP3   OH259142   2.030   3.567   1.377  0.0297  0.6914  0.7427
12576TIP3    H159143   2.043   3.477   1.406  1.2290  0.4131 -0.6024
12576TIP3    H259144   2.022   3.617   1.458  0.2956 -0.4950  1.5149
12577TIP3   OH259145   5.984   2.065   0.372  0.4097 -0.4587 -0.1840
12577TIP3    H159146   6.054   2.001   0.362  0.1077 -0.7872 -0.2338
12577TIP3    H259147   5.995   2.100   0.460  0.9654 -0.1157 -0.3918
12578TIP3   OH259148   3.482   5.257   2.245  0.2223 -0.4153  0.6458
12578TIP3    H159149   3.504   5.319   2.175 -0.6642 -1.9019 -0.9856
12578TIP3    H259150   3.567   5.230   2.280  0.6204  2.0398  1.7116
12579TIP3   OH259151   2.747   7.286  15.072 -0.1821 -0.2351  0.3269
12579TIP3    H159152   2.693   7.221  15.026 -0.9703 -0.2134  1.1952
12579TIP3    H259153   2.709   7.290  15.160  0.9184  0.1724  0.7921
12580TIP3   OH259154   5.313   6.564  15.033 -0.7438  0.2183 -0.0617
12580TIP3    H159155   5.288   6.531  14.947 -0.2088  0.4804 -0.3145
12580TIP3    H259156   5.408   6.561  15.034 -0.6795  2.1359 -0.2231
12581TIP3   OH259157   5.296   3.121  12.519 -0.1875 -0.6916  0.3310
12581TIP3    H159158   5.358   3.101  12.589 -0.3101 -0.9847  0.3530
12581TIP3    H259159   5.267   3.036  12.486 -0.5607 -0.5565  0.3043
12582TIP3   OH259160   6.917   3.921   2.456 -0.1103 -0.4671 -1.0232
12582TIP3    H159161   6.986   3.977   2.491 -0.0745 -0.9196 -0.3563
12582TIP3    H259162   6.951   3.888   2.373 -0.0949  0.4257 -1.3718
12583TIP3   OH259163   0.343   0.125   3.514 -0.6451  0.0691  0.1472
12583TIP3    H159164   0.418   0.097   3.460 -0.0035  1.7394  0.1457
12583TIP3    H259165   0.363   0.215   3.537 -2.5673  0.4624  0.3402
12584TIP3   OH259166   0.965   4.337  13.889 -0.0646  0.1415 -0.2401
12584TIP3    H159167   0.903   4.382  13.946  0.8304 -1.6493  2.2909
12584TIP3    H259168   0.912   4.275  13.839 -0.5451 -0.2984  0.7856
12585TIP3   OH259169   0.994   4.384   1.733 -0.1749  0.4812  0.3572
12585TIP3    H159170   1.074   4.389   1.786  1.1960  1.0203 -1.7227
12585TIP3    H259171   0.923   4.390   1.797  1.4335  0.1431  2.2337
12586TIP3   OH259172   3.984   4.038  14.680  0.2042  0.0533 -0.3011
12586TIP3    H159173   3.918   4.044  14.749  0.4569 -0.2074 -0.0333
12586TIP3    H259174   4.040   4.115  14.694  0.8291 -0.5074  0.3937
12587TIP3   OH259175   5.258   3.897  15.476  0.3666 -0.0750 -0.0970
12587TIP3    H159176   5.262   3.870  15.567  2.1188  1.4170  0.2927
12587TIP3    H259177   5.330   3.958  15.465  0.1117 -0.1184 -2.4559
12588TIP3   OH259178   5.302   6.845   1.796 -0.2091  0.4946 -0.1853
12588TIP3    H159179   5.365   6.911   1.827 -0.6188  0.9823 -0.3802
12588TIP3    H259180   5.219   6.892   1.792 -1.2024 -0.8708  2.8452
12589TIP3   OH259181   1.532   4.520   0.754  0.5343 -0.6553  0.1251
12589TIP3    H159182   1.552   4.569   0.834  1.1482  0.2139 -0.5504
12589TIP3    H259183   1.439   4.500   0.761  0.0300  1.5323 -0.0826
12590TIP3   OH259184   3.844   5.826   0.164  0.3569 -0.8096 -0.7058
12590TIP3    H159185   3.895   5.860   0.091 -1.4732  0.2718 -1.5214
12590TIP3    H259186   3.872   5.878   0.239  1.2508 -0.9826 -0.9152
12591TIP3   OH259187   5.806   6.437   0.755  0.3856  0.2452  0.1005
12591TIP3    H159188   5.745   6.367   0.781  0.2230  0.7732  1.1412
12591TIP3    H259189   5.750   6.514   0.744  0.6354  0.3317 -0.5998
12592TIP3   OH259190   6.781   4.715   0.945  0.1277 -0.0076  0.1901
12592TIP3    H159191   6.701   4.761   0.919 -0.7533 -1.3140  0.5002
12592TIP3    H259192   6.749   4.643   1.000  1.3658 -1.7262 -1.3104
12593TIP3   OH259193   2.521   6.742   2.230 -0.0286  0.4267 -0.1644
12593TIP3    H159194   2.540   6.668   2.172  2.8168  0.6673  0.3711
12593TIP3    H259195   2.460   6.796   2.180  0.2929 -0.7155 -1.8541
12594TIP3   OH259196   6.722   4.388   0.493  0.5684  0.3244  0.0741
12594TIP3    H159197   6.753   4.299   0.477 -0.6066 -0.1200  0.2393
12594TIP3    H259198   6.677   4.412   0.413  0.4286  0.5781  0.2319
12595TIP3   OH259199   4.354   6.057  15.754 -0.6253 -0.3341  0.2986
12595TIP3    H159200   4.438   6.024  15.722 -0.0152 -0.9220  2.3709
12595TIP3    H259201   4.293   5.985  15.738 -0.8157  0.1979 -1.4644
12596TIP3   OH259202   4.304   3.974   1.570 -0.2587 -0.2855  0.7071
12596TIP3    H159203   4.254   3.988   1.489 -0.8246 -0.4356  1.0260
12596TIP3    H259204   4.393   3.956   1.540 -0.5774 -0.8548  0.0947
12597TIP3   OH259205   6.227   5.141  15.833 -0.3177 -0.5073 -0.2640
12597TIP3    H159206   6.137   5.134  15.801 -0.3358  0.0000 -0.3280
12597TIP3    H259207   6.281   5.130  15.754 -0.3963  2.5300 -0.8122
12598TIP3   OH259208   3.171   5.683  15.379  0.1107  0.2619  0.3258
12598TIP3    H159209   3.224   5.745  15.430 -1.6065  1.2616  0.9234
12598TIP3    H259210   3.159   5.609  15.438  0.9307 -0.0214  0.1460
12599TIP3   OH259211   6.340   1.422   1.198  0.1973  0.1364 -0.5024
12599TIP3    H159212   6.296   1.441   1.280  3.3027 -1.0216  1.5341
12599TIP3    H259213   6.410   1.487   1.193 -0.6891  0.9696 -2.8858
12600TIP3   OH259214   5.722   3.922   0.766 -0.2528  0.0665 -0.4670
12600TIP3    H159215   5.669   3.976   0.825  1.8614 -0.4339  1.9901
12600TIP3    H259216   5.682   3.935   0.680 -2.3253  2.2593  0.7422
12601TIP3   OH259217   1.293   4.313  15.742  0.0873 -0.5351 -0.2144
12601TIP3    H159218   1.369   4.328  15.798 -0.5540  0.5619  0.3833
12601TIP3    H259219   1.246   4.241  15.784  0.0870 -0.3150  0.1691
12602TIP3   OH259220   5.728   0.516   0.515  0.1025 -0.2560  0.8980
12602TIP3    H159221   5.758   0.459   0.586 -1.4493  1.0495  2.6475
12602TIP3    H259222   5.649   0.473   0.482  0.9127 -0.9477 -0.1890
12603TIP3   OH259223   6.571   6.423  13.636  0.1550  0.9843 -0.8113
12603TIP3    H159224   6.593   6.363  13.564  0.1828  2.1181 -1.7608
12603TIP3    H259225   6.477   6.438  13.627  0.0201  0.5574 -0.1562
12604TIP3   OH259226   0.545   3.895   2.262  0.0727 -0.1035 -0.6017
12604TIP3    H159227   0.487   3.832   2.306  0.1708 -0.5266 -1.0808
12604TIP3    H259228   0.525   3.978   2.305 -2.2792  0.1226 -2.0426
12605TIP3   OH259229   6.190   1.460   2.704  0.1422 -0.2983 -0.3619
12605TIP3    H159230   6.216   1.417   2.623 -0.2132 -0.6085 -0.3169
12605TIP3    H259231   6.118   1.518   2.678  1.4514  1.2367 -0.6483
12606TIP3   OH259232   4.871   0.244   1.073 -0.2072  0.3100 -0.2456
12606TIP3    H159233   4.927   0.321   1.063  0.3572 -0.1454 -0.6049
12606TIP3    H259234   4.818   0.242   0.993  0.8057 -0.5007 -0.9052
12607TIP3   OH259235   0.120   4.932   2.554  0.0346 -0.1275  0.3960
12607TIP3    H159236   0.108   4.838   2.544 -0.5984  0.0314 -0.3836
12607TIP3    H259237   0.153   4.943   2.643 -0.1740 -1.0605  0.5903
12608TIP3   OH259238   2.099   4.293   1.528  0.1235 -0.5402  0.3526
12608TIP3    H159239   2.160   4.364   1.511 -1.5805  0.9421  0.2150
12608TIP3    H259240   2.154   4.216   1.539  2.0578  0.9117  1.1384
12609TIP3   OH259241   4.273   4.453   0.814  0.0527  0.2931 -0.0538
12609TIP3    H159242   4.298   4.418   0.729 -2.3879 -0.0688 -0.6780
12609TIP3    H259243   4.339   4.420   0.875 -0.4046 -2.8398 -1.1483
12610TIP3   OH259244   5.504   3.347  13.860 -0.3076 -0.0142  0.0534
12610TIP3    H159245   5.537   3.289  13.929 -0.2624 -1.6361 -1.3109
12610TIP3    H259246   5.575   3.351  13.796 -1.0785 -0.0311 -0.8126
12611TIP3   OH259247   5.836   5.386   3.100 -0.5489  0.3538 -0.0854
12611TIP3    H159248   5.923   5.372   3.062 -0.9069  1.0240 -1.1614
12611TIP3    H259249   5.833   5.326   3.174  1.2671  1.1493  0.6632
12612TIP3   OH259250   0.044   5.603   2.248  0.4517 -0.3934  0.0671
12612TIP3    H159251  -0.030   5.573   2.301 -0.5126  0.6545 -0.6455
12612TIP3    H259252   0.070   5.526   2.197 -0.9500 -0.4622 -0.5747
12613TIP3   OH259253   6.915   7.081   0.133 -0.3134  0.5174 -0.2368
12613TIP3    H159254   6.946   7.125   0.054 -0.8264  1.4795  0.0862
12613TIP3    H259255   6.838   7.032   0.104  0.4339 -0.4126 -0.6611
12614TIP3   OH259256   6.640   5.076   1.657  0.2300  0.1796  0.0186
12614TIP3    H159257   6.565   5.094   1.600  1.4691  1.2373 -1.3343
12614TIP3    H259258   6.634   5.143   1.725  0.2821  0.6579 -0.4387
12615TIP3   OH259259   2.312   6.675  15.490 -0.3854  0.2545  0.7665
12615TIP3    H159260   2.222   6.697  15.465  0.3478 -1.0249 -3.5887
12615TIP3    H259261   2.303   6.605  15.554 -2.5254 -1.2443 -1.1011
12616TIP3   OH259262   3.698   6.761   1.809  0.8441  0.3412  0.1341
12616TIP3    H159263   3.716   6.755   1.902  1.0048  0.4840  0.1116
12616TIP3    H259264   3.693   6.670   1.779  1.1760  0.2993  0.2058
12617TIP3   OH259265   7.067   4.226  15.575  0.2554  0.0605 -0.2998
12617TIP3    H159266   7.051   4.144  15.622  2.3436  0.4101  1.0870
12617TIP3    H259267   7.111   4.282  15.639  2.5708  0.7836 -2.4398
12618TIP3   OH259268   2.619   2.080   0.977  0.8256 -0.4731 -0.0623
12618TIP3    H159269   2.524   2.070   0.977  0.3824  3.1600 -1.4736
12618TIP3    H259270   2.646   2.043   0.893  0.3499  0.9481 -0.8480
12619TIP3   OH259271   2.746   4.016   4.932 -0.1427  0.0855  0.0495
12619TIP3    H159272   2.746   3.955   5.006 -1.1705 -0.2419 -0.2077
12619TIP3    H259273   2.699   4.093   4.964 -2.5734 -0.9300 -0.9328
12620TIP3   OH259274   3.269   5.764   0.948 -0.1735 -0.0799 -0.3993
12620TIP3    H159275   3.347   5.813   0.973 -0.3583  0.2908 -0.5457
12620TIP3    H259276   3.284   5.740   0.856  1.1087 -2.6134  0.4550
12621TIP3   OH259277   0.031   3.219  15.958  0.0037 -0.2984 -0.1583
12621TIP3    H159278  -0.000   3.128  15.952  1.6098 -0.7974 -1.5582
12621TIP3    H259279  -0.040   3.266  16.000 -0.8648 -2.2174  0.5900
12622TIP3   OH259280   1.615   3.359   3.219  0.1053 -0.0209 -0.1804
12622TIP3    H159281   1.614   3.392   3.309  1.2843  0.3722 -0.3066
12622TIP3    H259282   1.547   3.410   3.175 -0.7706 -0.5116  0.5812
12623TIP3   OH259283   6.723   5.105   4.424 -0.3830 -0.9481  0.3084
12623TIP3    H159284   6.808   5.066   4.401  1.0852  1.4946  1.2998
12623TIP3    H259285   6.709   5.077   4.515  0.4656  0.4042  0.8784
12624TIP3   OH259286   5.598   6.624   0.303 -0.2691 -0.5822 -0.3334
12624TIP3    H159287   5.604   6.655   0.213 -2.1185 -1.6494 -0.8624
12624TIP3    H259288   5.610   6.702   0.356  0.6408  0.0871 -1.5145
12625TIP3   OH259289   5.135   4.186   5.257  0.2583 -0.0801 -0.4945
12625TIP3    H159290   5.049   4.170   5.295  0.1759  0.4931 -0.4354
12625TIP3    H259291   5.194   4.126   5.302 -0.3043 -1.2714 -1.3107
12626TIP3   OH259292   5.799   5.062  14.868  0.5221  0.2788 -0.8701
12626TIP3    H159293   5.792   4.967  14.855 -0.0923  0.2079 -0.0346
12626TIP3    H259294   5.884   5.075  14.909 -0.6600 -0.2209  1.8300
12627TIP3   OH259295   6.375   5.573   0.957  0.1587  0.6075  0.2474
12627TIP3    H159296   6.394   5.495   1.009 -0.7740  0.4734  0.4041
12627TIP3    H259297   6.308   5.620   1.008  1.8915  2.3471  0.9669
12628TIP3   OH259298   5.467   3.338   1.772 -0.0687 -0.6468 -0.2826
12628TIP3    H159299   5.528   3.335   1.699 -0.2974 -1.2560 -0.4501
12628TIP3    H259300   5.413   3.260   1.762  1.5883 -2.1613  1.9803
12629TIP3   OH259301   4.222   5.293   0.758  0.1221  0.2873  0.1196
12629TIP3    H159302   4.183   5.309   0.673  1.4950 -1.1304 -0.8159
12629TIP3    H259303   4.172   5.347   0.819 -2.4721 -0.5741 -1.1983
12630TIP3   OH259304   2.824   7.099   1.773  0.0331 -0.0851 -0.2755
12630TIP3    H159305   2.859   7.010   1.768  0.5287  0.1097 -0.2612
12630TIP3    H259306   2.810   7.113   1.866 -1.0836 -0.5484 -0.3655
12631TIP3   OH259307   4.135   5.906   1.921 -0.1962  0.3350  0.3411
12631TIP3    H159308   4.147   5.890   1.827 -1.4269 -0.1042  0.2453
12631TIP3    H259309   4.042   5.891   1.936  0.0986 -0.1362  1.7484
12632TIP3   OH259310   5.289   6.681   2.107  0.2848 -0.4687 -0.4241
12632TIP3    H159311   5.308   6.746   2.175  0.3535 -0.3898 -0.5189
12632TIP3    H259312   5.374   6.646   2.082  0.3387  0.0773 -1.0356
12633TIP3   OH259313   6.469   0.454   1.466 -0.6475 -0.1692 -0.1225
12633TIP3    H159314   6.464   0.423   1.557 -1.9540 -0.8850 -0.4143
12633TIP3    H259315   6.378   0.448   1.435 -0.3031  0.6287 -1.2944
12634TIP3   OH259316   1.711   4.720   2.828 -0.4117  0.2791 -0.5288
12634TIP3    H159317   1.652   4.670   2.773 -0.6939  1.8616 -1.7117
12634TIP3    H259318   1.797   4.708   2.788 -0.5380  1.0244 -1.0323
12635TIP3   OH259319   0.381   7.109  15.299 -0.6707  0.7132 -0.1066
12635TIP3    H159320   0.338   7.135  15.218  0.2530  0.5068 -0.6596
12635TIP3    H259321   0.394   7.015  15.291  0.4052  0.8660 -0.1836
12636TIP3   OH259322   1.094   0.736   1.875  0.0294 -0.0741 -0.1046
12636TIP3    H159323   1.137   0.670   1.820 -0.6236 -0.4325 -0.1920
12636TIP3    H259324   1.022   0.768   1.822  1.8851  2.6511 -1.1150
12637TIP3   OH259325   4.243   4.148   1.131 -0.3228 -0.4771 -0.1010
12637TIP3    H159326   4.196   4.112   1.056 -0.6189  0.5986 -0.4366
12637TIP3    H259327   4.255   4.240   1.110 -1.5549  0.1483  1.7310
12638TIP3   OH259328   6.353   4.910  14.777  0.3890  0.2361 -0.6043
12638TIP3    H159329   6.361   4.815  14.786  0.0558  0.3597  1.2940
12638TIP3    H259330   6.414   4.944  14.842  0.0755  1.3193 -0.8792
12639TIP3   OH259331   0.832   4.884  12.441 -0.5842 -0.3102  0.9189
12639TIP3    H159332   0.891   4.937  12.387 -1.9385  2.2536  1.9010
12639TIP3    H259333   0.820   4.803  12.391  2.3123 -0.1430 -0.1311
12640TIP3   OH259334   4.080   0.931  13.146 -0.0643 -0.6351  0.5484
12640TIP3    H159335   4.006   0.975  13.105 -1.2889 -1.5209  1.7780
12640TIP3    H259336   4.091   0.851  13.095  0.6288 -0.0795 -0.1892
12641TIP3   OH259337   3.599   5.702   1.439 -0.7854 -0.0028 -0.0672
12641TIP3    H159338   3.647   5.762   1.496  1.2589 -0.2352 -1.5130
12641TIP3    H259339   3.645   5.619   1.448 -0.5771 -0.1016 -1.9115
12642TIP3   OH259340   2.177   6.453   2.335  0.7694  0.0661 -0.2748
12642TIP3    H159341   2.122   6.394   2.284  0.2532 -1.2961  1.8036
12642TIP3    H259342   2.119   6.525   2.359  0.7449  0.1988 -0.7200
12643TIP3   OH259343   5.126   5.927  14.749  1.0565 -0.0457  0.1044
12643TIP3    H159344   5.105   5.992  14.815 -1.2685  0.3013 -0.9246
12643TIP3    H259345   5.075   5.850  14.773 -1.4989  0.7789 -2.4147
12644TIP3   OH259346   5.816   4.118   0.507  0.3109  0.5558 -0.1169
12644TIP3    H159347   5.801   4.030   0.474  0.4031  0.5341 -0.1022
12644TIP3    H259348   5.765   4.175   0.449  0.8687  0.5620 -0.6166
12645TIP3   OH259349   5.597   6.580  14.447 -0.4814 -0.0905  0.0697
12645TIP3    H159350   5.653   6.657  14.456  0.7952 -1.2278  2.1458
12645TIP3    H259351   5.569   6.559  14.536 -2.1740 -1.0511 -0.6559
12646TIP3   OH259352   0.085   6.812   3.239  0.2767  0.2086 -0.1333
12646TIP3    H159353   0.009   6.856   3.199 -0.4701  0.9563  2.0637
12646TIP3    H259354   0.047   6.750   3.300  1.4286  0.2588  0.6449
12647TIP3   OH259355   3.728   5.305   1.748  0.3124  0.1342 -0.0897
12647TIP3    H159356   3.669   5.365   1.794 -1.5741  0.5296 -2.9122
12647TIP3    H259357   3.706   5.218   1.783 -1.3932  0.3699 -0.5343
12648TIP3   OH259358   5.329   3.465   3.097 -0.2274 -0.5339  0.2389
12648TIP3    H159359   5.406   3.433   3.050 -0.2998 -1.0840  0.4999
12648TIP3    H259360   5.351   3.556   3.120 -0.4807 -0.0216 -1.4981
12649TIP3   OH259361   2.348   3.224   4.376  0.0287 -0.2532 -0.5440
12649TIP3    H159362   2.361   3.153   4.440  0.6118 -0.9669 -1.4411
12649TIP3    H259363   2.344   3.303   4.430 -2.6995 -1.1389  0.6514
12650TIP3   OH259364   5.451   3.645   0.952 -0.0832  0.6084 -0.2116
12650TIP3    H159365   5.533   3.628   0.905  1.7000 -0.2481  3.0774
12650TIP3    H259366   5.412   3.558   0.963 -0.2151  0.7443  0.3851
12651TIP3   OH259367   3.294   4.130   0.067 -0.2130 -0.0633 -0.6284
12651TIP3    H159368   3.290   4.193   0.140  1.4993 -0.0859 -0.4884
12651TIP3    H259369   3.339   4.054   0.104  0.4153 -0.1796 -1.6291
12652TIP3   OH259370   6.157   3.963  15.784 -0.3854 -0.1587 -0.2188
12652TIP3    H159371   6.152   4.055  15.812 -3.5340 -0.7621  1.3266
12652TIP3    H259372   6.209   3.920  15.852 -2.9047 -0.4080  1.6175
12653TIP3   OH259373   0.822   4.749  13.786  0.4643  0.2813  0.3301
12653TIP3    H159374   0.788   4.693  13.855  0.6932 -0.5075 -0.1815
12653TIP3    H259375   0.769   4.727  13.709 -1.3857  2.8760  0.8141
12654TIP3   OH259376   2.159   3.690   2.997 -0.6204 -0.1165 -0.5629
12654TIP3    H159377   2.149   3.783   3.017 -0.6317 -0.1873 -0.2379
12654TIP3    H259378   2.177   3.687   2.903 -2.6951  0.0691 -0.9933
12655TIP3   OH259379   2.095   0.396   2.234  0.1603  0.2332 -0.2518
12655TIP3    H159380   2.168   0.435   2.185  1.6846 -1.3266  0.7209
12655TIP3    H259381   2.113   0.420   2.325 -0.1846 -0.7163  0.0634
12656TIP3   OH259382   6.584   3.721  14.559 -0.0016 -0.2069 -0.0734
12656TIP3    H159383   6.603   3.772  14.480  1.4315  1.7033  1.4414
12656TIP3    H259384   6.580   3.630  14.529 -0.4228  0.5656 -2.4888
12657TIP3   OH259385   0.805   0.589   0.111 -0.1519 -0.7125 -0.0316
12657TIP3    H159386   0.785   0.662   0.170  0.7053 -1.7982  1.6303
12657TIP3    H259387   0.724   0.539   0.106  0.0864 -1.2265  1.1195
12658TIP3   OH259388   6.246   1.436   3.595 -0.2414 -0.0002  0.7658
12658TIP3    H159389   6.297   1.515   3.576 -0.8196 -0.0652 -1.0884
12658TIP3    H259390   6.167   1.468   3.638 -0.8577  0.5268 -0.7206
12659TIP3   OH259391   5.048   5.564   1.793  0.3190 -0.6241  0.3003
12659TIP3    H159392   5.136   5.594   1.768  1.0186 -1.5387  1.6627
12659TIP3    H259393   5.048   5.471   1.773 -0.8712 -0.3473 -1.1131
12660TIP3   OH259394   4.134   5.401   2.232 -0.2579 -0.3395 -0.1340
12660TIP3    H159395   4.056   5.351   2.256 -0.0983 -1.5739 -2.1500
12660TIP3    H259396   4.137   5.398   2.137  2.0898 -0.0525 -0.0995
12661TIP3   OH259397   6.577   2.370   2.633 -0.4676 -0.4095 -0.0407
12661TIP3    H159398   6.669   2.395   2.626 -1.6805  4.3256 -0.4392
12661TIP3    H259399   6.561   2.313   2.558  1.9870 -0.8853 -0.2326
12662TIP3   OH259400   1.052   5.526  15.962 -0.1706  0.3527  0.3698
12662TIP3    H159401   1.091   5.468  15.897 -0.7573  1.0125 -0.5857
12662TIP3    H259402   1.119   5.593  15.978 -1.2448  2.0455 -2.0019
12663TIP3   OH259403   7.071   4.612   1.891  0.3311 -0.4213 -0.6071
12663TIP3    H159404   7.135   4.557   1.846 -0.1623 -1.5263  0.0351
12663TIP3    H259405   6.989   4.562   1.887 -0.2401  0.4934 -0.4675
12664TIP3   OH259406   5.231   5.426  14.937  0.0194  0.3415 -0.7024
12664TIP3    H159407   5.140   5.397  14.942  0.0997  0.1471 -0.2861
12664TIP3    H259408   5.277   5.355  14.892 -0.1815  0.8011 -1.6431
12665TIP3   OH259409   7.120   4.354   1.720 -0.1027  0.2920 -0.1951
12665TIP3    H159410   7.036   4.322   1.687 -0.1811  1.6156 -1.3425
12665TIP3    H259411   7.167   4.276   1.749 -0.5022 -0.8032 -2.4071
12666TIP3   OH259412   6.218   4.866   0.945 -0.3556 -0.8416  0.2487
12666TIP3    H159413   6.226   4.943   0.889  3.6440 -1.4862 -0.2091
12666TIP3    H259414   6.268   4.888   1.024  0.3743 -2.7260  0.3466
12667TIP3   OH259415   3.152   3.807   2.392 -0.1491 -0.4728 -0.5223
12667TIP3    H159416   3.126   3.895   2.363 -0.6883 -0.8350 -1.1515
12667TIP3    H259417   3.082   3.781   2.453  0.1204 -0.3850 -0.1734
12668TIP3   OH259418   1.261   3.954   0.865 -0.0482 -0.1697  0.4154
12668TIP3    H159419   1.339   3.930   0.915  0.6595 -1.4554 -1.2426
12668TIP3    H259420   1.295   3.976   0.778 -1.6130 -1.7658 -0.6303
12669TIP3   OH259421   5.486   4.706  10.513 -0.1470 -0.5138  0.1062
12669TIP3    H159422   5.540   4.629  10.495 -0.1863 -0.3180 -0.9265
12669TIP3    H259423   5.525   4.775  10.459 -2.2170 -0.7011 -1.7275
12670TIP3   OH259424   3.726   2.019   0.181 -0.6253  0.3940  0.0466
12670TIP3    H159425   3.770   2.087   0.130 -0.0168  0.3793  0.5448
12670TIP3    H259426   3.708   1.949   0.119  0.8547  0.0277  0.0226
12671TIP3   OH259427   1.578   5.711  15.996  0.3649 -0.3189  0.6914
12671TIP3    H159428   1.574   5.691  16.089  0.9435  4.1239  1.7869
12671TIP3    H259429   1.531   5.794  15.987  1.0326 -0.2365 -2.8419
12672TIP3   OH259430   5.686   2.201   2.557 -0.1032 -0.2166 -0.5805
12672TIP3    H159431   5.702   2.281   2.607  0.1448 -0.1697 -0.7356
12672TIP3    H259432   5.594   2.208   2.528 -0.5173 -0.6495  0.6025
12673TIP3   OH259433   5.504   6.486   2.115  0.1667 -0.5225 -0.0317
12673TIP3    H159434   5.544   6.434   2.184  0.9458  1.1734  0.8292
12673TIP3    H259435   5.578   6.512   2.059  0.1893  1.8618  1.0480
12674TIP3   OH259436   5.313   0.778  15.649  0.0208 -0.3928 -0.2079
12674TIP3    H159437   5.356   0.773  15.734  0.5033 -1.7120 -0.5147
12674TIP3    H259438   5.361   0.717  15.594 -0.6117  0.0644 -1.2911
12675TIP3   OH259439   6.298   3.525   2.746  0.2072  0.2186 -0.1164
12675TIP3    H159440   6.230   3.562   2.803 -0.3193  1.9433 -1.8236
12675TIP3    H259441   6.257   3.449   2.706 -0.3504  0.5966 -0.2715
12676TIP3   OH259442   1.863   1.376   1.163 -0.1649  0.5376  0.2525
12676TIP3    H159443   1.841   1.283   1.157 -1.3583  0.7359  1.4185
12676TIP3    H259444   1.946   1.379   1.210  1.4381 -0.0963 -2.4134
12677TIP3   OH259445   6.696   0.612  14.837  0.2871  0.5048 -0.0277
12677TIP3    H159446   6.612   0.567  14.840  0.4139  0.3455  2.4127
12677TIP3    H259447   6.735   0.585  14.754 -0.0642 -3.1106  0.9109
12678TIP3   OH259448   4.691   4.664   3.441 -0.4818 -0.2421 -0.8502
12678TIP3    H159449   4.770   4.715   3.421  0.1351 -1.1731 -0.8506
12678TIP3    H259450   4.637   4.723   3.493 -0.7853  1.1865 -2.7398
12679TIP3   OH259451   6.571   5.676   0.746 -0.3477  0.0354 -0.1963
12679TIP3    H159452   6.640   5.726   0.701  0.3297 -0.9254 -0.2432
12679TIP3    H259453   6.489   5.711   0.711  0.1608 -0.4989 -1.9753
12680TIP3   OH259454   6.853   0.352  12.909  0.6605 -0.5743  0.3574
12680TIP3    H159455   6.833   0.358  12.815 -0.7285 -1.4234  0.5843
12680TIP3    H259456   6.901   0.269  12.918  0.5039 -0.6574  0.4375
12681TIP3   OH259457   1.888   3.938   1.997  0.6383 -0.2067 -0.1672
12681TIP3    H159458   1.811   3.909   1.948 -0.1058  1.5829 -0.0933
12681TIP3    H259459   1.910   4.023   1.958  1.4505  0.1486  1.0514
12682TIP3   OH259460   2.286   4.244   0.922 -0.2617 -0.5924 -0.1860
12682TIP3    H159461   2.336   4.174   0.881 -1.7360 -1.2694 -0.8689
12682TIP3    H259462   2.281   4.219   1.014  0.6241 -0.5230 -0.1126
12683TIP3   OH259463   3.527   2.576   0.787  0.3690 -0.2180  0.3976
12683TIP3    H159464   3.556   2.666   0.774  2.0095 -0.9501 -1.2797
12683TIP3    H259465   3.452   2.566   0.729  1.5348 -0.5606 -1.0613
12684TIP3   OH259466   6.775   6.027   0.057 -0.3993 -0.4497 -0.5746
12684TIP3    H159467   6.686   6.035   0.024 -0.9908 -1.6897  0.6590
12684TIP3    H259468   6.796   5.933   0.049 -0.7431 -0.9003  2.8739
12685TIP3   OH259469   1.537   5.870   1.522  0.5796  0.4047 -0.0709
12685TIP3    H159470   1.471   5.803   1.540 -0.1784  0.6180 -1.9343
12685TIP3    H259471   1.616   5.840   1.567 -0.6673 -0.0420  1.8744
12686TIP3   OH259472   3.709   0.553   2.717 -0.4316  0.6766  0.0266
12686TIP3    H159473   3.734   0.608   2.642  1.0603  0.1044  0.0837
12686TIP3    H259474   3.675   0.473   2.678  1.7216 -0.2256 -0.0653
12687TIP3   OH259475   3.749   5.513  15.896 -0.6253  0.3577 -0.0355
12687TIP3    H159476   3.745   5.557  15.981 -2.4719 -0.8242  0.5348
12687TIP3    H259477   3.706   5.574  15.836 -0.4809  0.6391  0.1476
12688TIP3   OH259478   2.628   5.262  15.996  0.1260  0.0254  0.1062
12688TIP3    H159479   2.573   5.229  15.925 -2.1562  0.4480  1.6605
12688TIP3    H259480   2.570   5.314  16.050  1.9545  0.1316  2.0380
12689TIP3   OH259481   5.900   0.124   0.841  0.7900  0.1526 -0.1848
12689TIP3    H159482   5.946   0.077   0.772  0.9474  1.4922 -1.0096
12689TIP3    H259483   5.919   0.075   0.921 -0.5295 -2.2085 -1.2920
12690TIP3   OH259484   0.627   2.658   0.627  0.1965 -0.4151 -0.0472
12690TIP3    H159485   0.649   2.662   0.534 -0.0918  0.7516 -0.0710
12690TIP3    H259486   0.662   2.739   0.663  2.0544 -1.7521  1.2590
12691TIP3   OH259487   2.335   3.428   2.278  0.1589 -0.0509  0.5281
12691TIP3    H159488   2.331   3.401   2.370 -0.8575 -1.4010  0.1105
12691TIP3    H259489   2.255   3.391   2.239  1.8319 -1.7000 -1.4578
12692TIP3   OH259490   6.669   0.746   1.295  0.2956  0.2012 -0.5084
12692TIP3    H159491   6.715   0.663   1.281 -0.6220 -0.4037  0.0567
12692TIP3    H259492   6.733   0.801   1.339  0.4144 -0.7153  0.4750
12693TIP3   OH259493   1.280   4.723   2.252 -0.0601  0.0405 -0.3132
12693TIP3    H159494   1.234   4.649   2.211 -1.7225  0.8546  0.0389
12693TIP3    H259495   1.243   4.801   2.211  3.1771  0.6800 -2.2128
12694TIP3   OH259496   0.767   3.757  14.632 -0.1011 -0.4898  0.0577
12694TIP3    H159497   0.723   3.723  14.709  0.5618 -2.2164 -0.3049
12694TIP3    H259498   0.696   3.789  14.575 -0.6752 -0.5692  0.7316
12695TIP3   OH259499   2.850   1.053   4.117  0.1200 -0.0651  0.3218
12695TIP3    H159500   2.888   1.140   4.132 -0.6955  0.0612  1.8046
12695TIP3    H259501   2.926   0.995   4.109  0.6876  0.8894 -1.4670
12696TIP3   OH259502   2.984   1.249   0.516  0.6407  0.1937  0.2789
12696TIP3    H159503   3.023   1.167   0.545 -0.1149 -0.1642  0.3079
12696TIP3    H259504   3.039   1.278   0.443 -1.5269 -2.5411 -2.5799
12697TIP3   OH259505   2.607   4.247   0.895  0.5189  0.3405  0.3441
12697TIP3    H159506   2.516   4.274   0.911  0.1880 -1.0827  0.8824
12697TIP3    H259507   2.643   4.232   0.982  1.3028  0.9457  0.1293
12698TIP3   OH259508   3.126   3.162   2.370 -0.2513  0.3012 -0.1219
12698TIP3    H159509   3.142   3.178   2.277 -3.0423 -1.6597 -1.0286
12698TIP3    H259510   3.155   3.071   2.384 -0.4789  0.3580  0.7694
12699TIP3   OH259511   0.429   4.673  11.559  0.6177 -0.0168  0.3179
12699TIP3    H159512   0.340   4.705  11.542  1.5170  1.9035 -0.9696
12699TIP3    H259513   0.439   4.599  11.499 -0.6017 -1.1810  1.5175
12700TIP3   OH259514   3.296   1.383   0.626  0.6017 -0.2756  0.1235
12700TIP3    H159515   3.227   1.449   0.639  1.8856  1.0410  0.4377
12700TIP3    H259516   3.297   1.334   0.708  0.0621 -0.2852  0.1310
12701TIP3   OH259517   0.649   2.920   0.693 -0.2465  0.3412  0.0578
12701TIP3    H159518   0.601   2.987   0.643  1.2151  0.9641 -0.5528
12701TIP3    H259519   0.591   2.898   0.766 -2.2716 -0.2912 -1.6736
12702TIP3   OH259520   6.727   6.870   0.829  0.2241 -0.8213  0.3649
12702TIP3    H159521   6.788   6.914   0.888 -0.2353 -0.9431  0.9294
12702TIP3    H259522   6.783   6.824   0.767  0.7189 -1.2091  1.0875
12703TIP3   OH259523   6.597   0.753   2.505 -0.9076 -0.1709  0.2601
12703TIP3    H159524   6.512   0.727   2.472 -0.5379  0.7702 -1.4784
12703TIP3    H259525   6.632   0.674   2.547 -1.9136 -1.0369 -0.5151
12704TIP3   OH259526   4.272   6.862   0.473  0.0289 -0.3107 -0.1035
12704TIP3    H159527   4.300   6.864   0.381 -3.9864 -1.3694 -1.4248
12704TIP3    H259528   4.215   6.938   0.482  0.9377  0.1774  1.7519
12705TIP3   OH259529   5.435   7.104   2.217  0.5736 -0.5443 -0.4212
12705TIP3    H159530   5.484   7.181   2.246  0.0346  0.2312 -1.5451
12705TIP3    H259531   5.503   7.046   2.182  1.0000 -0.6628  0.5751
12706TIP3   OH259532   2.247   6.589  14.541  0.0322  0.7119  0.3200
12706TIP3    H159533   2.336   6.614  14.514 -0.3436  0.5704 -1.1114
12706TIP3    H259534   2.224   6.516  14.483 -1.5635  1.7165 -0.3474
12707TIP3   OH259535   5.734   4.173   1.275 -0.0606 -0.2411  0.1161
12707TIP3    H159536   5.732   4.098   1.334 -1.3851 -1.0027 -0.8947
12707TIP3    H259537   5.793   4.147   1.204 -0.3253 -0.2283 -0.1083
12708TIP3   OH259538   1.478   6.591   0.502 -0.4423  0.1553 -0.0529
12708TIP3    H159539   1.545   6.523   0.495 -0.4215  0.2260 -0.6108
12708TIP3    H259540   1.437   6.592   0.415 -2.3724 -1.1350  0.7999
12709TIP3   OH259541   2.457   3.950  11.601 -0.4321  0.8670  0.3907
12709TIP3    H159542   2.488   3.881  11.660 -1.4815 -0.5274 -0.6579
12709TIP3    H259543   2.536   4.000  11.579  0.5794 -0.7941  0.1431
12710TIP3   OH259544   1.478   0.912   4.910  0.2674  0.1328  0.3224
12710TIP3    H159545   1.442   1.000   4.900  0.2090 -0.0311 -1.0156
12710TIP3    H259546   1.449   0.865   4.832  1.6352 -0.6065  0.2335
12711TIP3   OH259547   3.004   0.901  10.556 -0.1309  0.2106  0.3255
12711TIP3    H159548   2.938   0.873  10.619 -1.1272  1.5766 -0.1038
12711TIP3    H259549   3.084   0.855  10.584 -1.2707 -1.5952  0.7375
12712TIP3   OH259550   0.115   0.472   1.758 -0.3140  0.1595  0.4725
12712TIP3    H159551   0.146   0.555   1.722 -0.0934 -0.7291 -1.4625
12712TIP3    H259552   0.133   0.408   1.689 -1.3388 -1.3334  1.5577
12713TIP3   OH259553   0.002   7.103   0.075  0.1021 -0.6232 -0.1897
12713TIP3    H159554  -0.027   7.170   0.012 -1.6578 -0.6439  0.5619
12713TIP3    H259555   0.018   7.152   0.156 -1.9606 -1.1924  0.5869
12714TIP3   OH259556   2.486   7.077  13.677 -0.0447  0.1531 -0.0259
12714TIP3    H159557   2.436   7.019  13.620  0.8437  0.0742 -0.7359
12714TIP3    H259558   2.548   7.020  13.722 -0.0516  0.3647  0.2517
12715TIP3   OH259559   1.246   5.317  14.237  0.0207 -0.4822  0.3686
12715TIP3    H159560   1.163   5.291  14.199  0.3503 -2.3864  0.9272
12715TIP3    H259561   1.312   5.264  14.192  1.0906  1.8070 -0.8882
12716TIP3   OH259562   0.760   5.015   5.038 -0.2120  0.1589 -0.4171
12716TIP3    H159563   0.842   4.966   5.040 -1.2696 -1.6682 -0.1030
12716TIP3    H259564   0.741   5.034   5.129 -0.0206  0.7968 -0.5073
12717TIP3   OH259565   1.899   0.156   1.062 -0.2462 -0.3221  0.1184
12717TIP3    H159566   1.834   0.219   1.094 -1.1217 -0.4761 -1.3253
12717TIP3    H259567   1.907   0.092   1.133 -2.7892 -1.1181 -0.2591
12718TIP3   OH259568   0.879   6.489   0.474  0.8454 -0.8672 -0.4396
12718TIP3    H159569   0.873   6.401   0.436 -0.3429  0.0142 -2.3931
12718TIP3    H259570   0.966   6.493   0.512 -0.1026 -3.9025  2.3125
12719TIP3   OH259571   7.046   1.963   2.386  0.2101 -0.4424 -0.1152
12719TIP3    H159572   6.963   2.009   2.370  1.1033  1.1584 -0.2773
12719TIP3    H259573   7.021   1.872   2.398 -1.6123  0.0564  0.0766
12720TIP3   OH259574   0.678   0.674   1.964  0.0445  0.2565  0.0406
12720TIP3    H159575   0.584   0.679   1.946  0.3264  0.1136 -1.5139
12720TIP3    H259576   0.685   0.622   2.044 -1.1469 -0.4581 -0.3207
12721TIP3   OH259577   0.831   1.139   1.550 -0.0396  0.0568  0.0951
12721TIP3    H159578   0.751   1.184   1.576  0.2960 -0.1049  1.4529
12721TIP3    H259579   0.804   1.050   1.529 -0.3235  0.1986 -0.1356
12722TIP3   OH259580   1.025   6.131  15.932  0.1082  0.5486 -0.3573
12722TIP3    H159581   1.020   6.077  16.012  1.4599 -0.2118 -0.7765
12722TIP3    H259582   1.059   6.072  15.865  1.9221  2.0000 -0.7526
12723TIP3   OH259583   0.660   7.175   0.563 -0.0664 -0.6213  0.2416
12723TIP3    H159584   0.732   7.134   0.515  1.2503  0.4050  1.3060
12723TIP3    H259585   0.684   7.165   0.655 -0.5031  1.1485  0.5529
12724TIP3   OH259586   1.436   4.095   3.871 -0.6336  0.0204  0.5127
12724TIP3    H159587   1.425   4.015   3.922 -0.2657 -1.2718 -1.4034
12724TIP3    H259588   1.352   4.141   3.880  0.2017  0.9763  4.1636
12725TIP3   OH259589   3.390   7.076   1.640  0.3993  0.0022 -0.0241
12725TIP3    H159590   3.315   7.048   1.692 -0.3618 -0.4595 -1.3524
12725TIP3    H259591   3.359   7.153   1.593  0.6526 -0.3715 -0.8135
12726TIP3   OH259592   0.702   0.601   0.794 -0.9751 -0.1727 -0.5951
12726TIP3    H159593   0.645   0.614   0.719 -0.5892 -0.7314 -0.9913
12726TIP3    H259594   0.760   0.529   0.769  1.6931  2.0823 -1.2607
12727TIP3   OH259595   2.186   1.334  14.380  0.5693 -0.2823 -0.0530
12727TIP3    H159596   2.143   1.419  14.370 -1.9277 -1.1531  2.5398
12727TIP3    H259597   2.163   1.286  14.301  0.2075  0.7147 -0.5608
12728TIP3   OH259598   6.571   6.908   3.818  0.8555  0.5326  0.0953
12728TIP3    H159599   6.585   6.950   3.733  3.6275 -1.4715 -0.4960
12728TIP3    H259600   6.659   6.900   3.855  0.2111 -3.1511  0.9362
12729TIP3   OH259601   7.032   1.213   2.421  0.0197 -0.1617 -0.4811
12729TIP3    H159602   7.016   1.190   2.513  0.4288 -0.9061 -0.5983
12729TIP3    H259603   7.074   1.299   2.426  0.8856 -0.6137  0.0717
12730TIP3   OH259604   2.286   1.853   2.296  0.6056  0.1649 -0.3514
12730TIP3    H159605   2.369   1.874   2.252  0.7568  1.0922  0.3561
12730TIP3    H259606   2.301   1.766   2.335  2.3299  1.6022  2.3327
12731TIP3   OH259607   1.251   1.402   4.336 -0.2798 -0.1557 -0.2162
12731TIP3    H159608   1.318   1.442   4.391 -2.0280  2.2360  0.2862
12731TIP3    H259609   1.244   1.312   4.368  0.4957  0.4684  1.7976
12732TIP3   OH259610   1.849   7.100   2.180  0.1383 -0.3895  0.1846
12732TIP3    H159611   1.831   7.085   2.273  0.3914  1.3347  0.5377
12732TIP3    H259612   1.912   7.032   2.156  0.3888 -0.5948  1.3869
12733TIP3   OH259613   2.557   5.215   1.731 -0.3208 -0.2875  0.1354
12733TIP3    H159614   2.513   5.235   1.648 -1.3828 -0.0121  0.7548
12733TIP3    H259615   2.644   5.253   1.722 -0.4722 -0.1536 -0.8082
12734TIP3   OH259616   4.581   5.472   0.506  0.1427 -0.2860  0.1996
12734TIP3    H159617   4.555   5.451   0.596  1.3623 -2.0290  0.1689
12734TIP3    H259618   4.560   5.565   0.496  0.6395  0.1126  2.5170
12735TIP3   OH259619   5.253   6.378   4.068  0.9137 -0.0523  0.2857
12735TIP3    H159620   5.316   6.311   4.096  0.4906 -0.3895  0.4356
12735TIP3    H259621   5.214   6.343   3.988  1.1309  0.2917  0.0292
12736TIP3   OH259622   0.135   6.624   4.390  0.1569  0.1281  0.0812
12736TIP3    H159623   0.152   6.570   4.467  1.7630 -0.0918 -0.4069
12736TIP3    H259624   0.078   6.570   4.335 -1.7781  0.6587  1.5113
12737TIP3   OH259625   1.891   7.139  14.935 -0.5870 -0.3004 -0.4534
12737TIP3    H159626   1.879   7.092  14.852 -0.5305 -0.0036 -0.6277
12737TIP3    H259627   1.986   7.153  14.941 -0.3726 -2.0642  0.6119
12738TIP3   OH259628   5.043   6.527   0.263  0.4345 -0.4470  0.3265
12738TIP3    H159629   5.015   6.614   0.235 -1.5882 -0.4649  2.1439
12738TIP3    H259630   5.103   6.544   0.336  1.0259 -0.5531 -0.1320
12739TIP3   OH259631   2.117   5.600   1.408  0.0471 -0.3799 -0.0912
12739TIP3    H159632   2.154   5.616   1.495 -0.0389  1.7353 -0.4151
12739TIP3    H259633   2.085   5.510   1.412  0.2454 -0.3907  2.0004
12740TIP3   OH259634   0.492   6.050   0.045  0.1995 -0.2361 -0.2729
12740TIP3    H159635   0.429   5.978   0.033  0.0516  0.1784 -2.1653
12740TIP3    H259636   0.575   6.014   0.014  0.2183  0.2401 -0.7882
12741TIP3   OH259637   1.370   6.668  15.897  0.3458  0.3412  0.5241
12741TIP3    H159638   1.350   6.574  15.895  1.3624  0.0980  1.1089
12741TIP3    H259639   1.464   6.672  15.913  0.2931  1.4690  0.6159
12742TIP3   OH259640   1.218   0.254   1.762  0.3292  0.2091  0.6006
12742TIP3    H159641   1.299   0.239   1.810  0.9797 -0.3964 -0.6635
12742TIP3    H259642   1.168   0.173   1.773  0.2462  0.2712  0.6877
12743TIP3   OH259643   2.157   5.757   1.161 -0.1237  0.1920  0.0154
12743TIP3    H159644   2.157   5.722   1.250  0.2382  1.1394  0.3931
12743TIP3    H259645   2.066   5.781   1.144 -0.2463 -0.2722  0.0176
12744TIP3   OH259646   2.335   4.514   4.187 -0.4178  0.2297 -0.5301
12744TIP3    H159647   2.256   4.558   4.218 -1.7407 -0.4968 -2.7219
12744TIP3    H259648   2.384   4.582   4.140 -0.8579  0.1460 -1.1123
12745TIP3   OH259649   1.017   5.681  15.592  0.1720  0.8618 -0.2236
12745TIP3    H159650   1.066   5.662  15.512 -2.2062 -0.6460 -1.3606
12745TIP3    H259651   1.003   5.596  15.632  1.2665  1.5996  1.7968
12746TIP3   OH259652   5.218   0.970   2.179 -0.6604 -0.3002  0.3574
12746TIP3    H159653   5.153   0.903   2.200  0.6457 -2.0246 -0.8759
12746TIP3    H259654   5.262   0.988   2.262 -1.3585 -0.5879  0.7993
12747TIP3   OH259655   0.279   6.666   1.241 -0.1320  0.5001 -0.1123
12747TIP3    H159656   0.222   6.741   1.225 -0.8684 -0.4224 -2.0407
12747TIP3    H259657   0.257   6.604   1.171 -0.8170 -2.2742  2.4515
12748TIP3   OH259658   7.209   3.626   2.892  0.7231  0.3833  0.8186
12748TIP3    H159659   7.282   3.601   2.836 -1.9851 -2.7156 -1.5619
12748TIP3    H259660   7.210   3.561   2.962 -0.5813 -0.6115 -0.0572
12749TIP3   OH259661   7.204   4.121   1.834  0.3533  0.2153  0.3104
12749TIP3    H159662   7.185   4.038   1.790 -0.1647 -0.1981  1.2812
12749TIP3    H259663   7.118   4.159   1.850  0.6550  1.9272 -1.9403
12750TIP3   OH259664   0.866   6.052  12.980  0.0185 -0.2077  0.0984
12750TIP3    H159665   0.877   5.976  13.038 -0.7686  0.2539  0.8671
12750TIP3    H259666   0.772   6.056  12.964  0.2828 -0.6206 -1.6272
12751TIP3   OH259667   0.788   6.536  15.803 -0.5026  0.3612 -0.4208
12751TIP3    H159668   0.799   6.449  15.841 -0.9567  0.5935  0.2520
12751TIP3    H259669   0.705   6.568  15.840  0.3573  1.6441  0.4340
12752TIP3   OH259670   3.282   5.336   0.068  0.7564  0.0663  0.0205
12752TIP3    H159671   3.325   5.421   0.067 -0.9168  0.9652 -2.1215
12752TIP3    H259672   3.196   5.353   0.029 -0.2700 -2.2724  1.1735
12753TIP3   OH259673   0.653   5.031  13.365 -0.1047  0.0676 -0.1782
12753TIP3    H159674   0.569   5.074  13.347 -1.1896 -2.1956 -0.7337
12753TIP3    H259675   0.662   5.037  13.460 -0.8869  0.3203 -0.1104
12754TIP3   OH259676   0.871   6.746   2.521  0.2292  0.3102  0.1240
12754TIP3    H159677   0.915   6.801   2.585  0.2333  1.3699 -0.7845
12754TIP3    H259678   0.933   6.676   2.502  0.0009 -0.3382  1.7057
12755TIP3   OH259679   2.334   6.287  14.109  0.0279  0.0712 -0.4769
12755TIP3    H159680   2.334   6.283  14.204  0.5944  0.7705 -0.4437
12755TIP3    H259681   2.301   6.202  14.081 -1.0403  0.2026  0.3589
12756TIP3   OH259682   6.280   6.680  15.661 -0.0596  0.4687 -0.3758
12756TIP3    H159683   6.230   6.762  15.665 -0.6187  0.1363 -0.4594
12756TIP3    H259684   6.349   6.691  15.726 -0.7582  0.5976  0.3520
12757TIP3   OH259685   2.245   5.725   0.904 -0.1117  0.1418 -0.3419
12757TIP3    H159686   2.210   5.778   0.976 -2.1294 -0.5662 -0.7742
12757TIP3    H259687   2.261   5.639   0.943 -0.0391  0.1127 -0.4355
12758TIP3   OH259688   5.010   5.567  15.660  0.0762  0.6866 -0.0295
12758TIP3    H159689   5.040   5.481  15.690 -0.2824  1.5547  2.9306
12758TIP3    H259690   4.915   5.563  15.664  0.0796  1.5265  1.0081
12759TIP3   OH259691   6.502   5.793  14.742  0.6456 -0.5332 -0.1314
12759TIP3    H159692   6.521   5.714  14.690  1.6986  0.4266 -1.2464
12759TIP3    H259693   6.586   5.816  14.782  0.5241  0.4440 -0.4284
12760TIP3   OH259694   4.176   2.530  15.872  0.1352  0.0504 -0.2759
12760TIP3    H159695   4.200   2.536  15.779  0.8334  0.3502 -0.0865
12760TIP3    H259696   4.256   2.556  15.918 -0.2242 -0.0537  0.4086
12761TIP3   OH259697   3.394   5.008   1.861 -0.0046  0.2564  0.0114
12761TIP3    H159698   3.443   5.028   1.941 -1.7451 -0.6247  1.3301
12761TIP3    H259699   3.461   4.991   1.795  1.4769 -1.9307  2.0243
12762TIP3   OH259700   2.917   6.628  15.884 -0.0393 -0.2362 -0.4995
12762TIP3    H159701   2.908   6.703  15.825  2.1270  0.4938  0.0538
12762TIP3    H259702   2.960   6.561  15.831 -3.6400 -1.8541 -1.5760
12763TIP3   OH259703   2.466   0.334  15.525 -0.3308 -0.5923 -0.1596
12763TIP3    H159704   2.428   0.409  15.571 -0.2281  0.2067 -1.3448
12763TIP3    H259705   2.393   0.272  15.515 -0.2829 -0.9132  1.3196
12764TIP3   OH259706   5.846   1.261   1.264  0.3521  0.0445 -0.4199
12764TIP3    H159707   5.906   1.228   1.331  1.4930 -0.9376 -1.8909
12764TIP3    H259708   5.904   1.288   1.192 -0.8410  1.2591 -0.9355
12765TIP3   OH259709   1.196   0.020   1.299  0.5988  0.1288 -0.1595
12765TIP3    H159710   1.214   0.084   1.367 -1.3079  0.1362  0.3686
12765TIP3    H259711   1.170  -0.059   1.347 -0.7730  0.1373 -0.8382
12766TIP3   OH259712   0.965   4.795  14.852  0.2103  0.2804 -0.3333
12766TIP3    H159713   1.009   4.850  14.918  1.9795 -4.3793  2.6376
12766TIP3    H259714   0.877   4.782  14.887  0.2199  0.1675 -0.3521
12767TIP3   OH259715   2.583   2.963   2.698  0.1298  0.4098  0.2760
12767TIP3    H159716   2.622   2.899   2.639  2.0461  0.5027  1.4118
12767TIP3    H259717   2.628   3.045   2.678 -0.4237  0.8233  0.6823
12768TIP3   OH259718   7.001   6.339  14.297 -0.3409  0.0008 -0.6126
12768TIP3    H159719   7.071   6.282  14.330  0.3820  0.0108 -2.1186
12768TIP3    H259720   7.002   6.326  14.202 -1.6040  0.9044 -0.7579
12769TIP3   OH259721   2.450   2.029   4.172 -0.2577 -0.7638  0.2199
12769TIP3    H159722   2.541   2.045   4.197 -0.3486  0.7595 -0.3806
12769TIP3    H259723   2.450   1.940   4.136  1.0274 -0.6918  0.0378
12770TIP3   OH259724   1.356   2.700   1.748  0.1104 -0.0229 -0.1924
12770TIP3    H159725   1.362   2.784   1.703 -0.9400 -0.1025 -0.5006
12770TIP3    H259726   1.276   2.707   1.801 -0.3071 -1.0264 -0.6749
12771TIP3   OH259727   0.957   5.430   0.859 -0.3881 -0.2160 -0.3280
12771TIP3    H159728   1.031   5.422   0.799  1.6160  0.1179  2.0160
12771TIP3    H259729   0.891   5.371   0.823  1.9001 -2.3756 -1.1651
12772TIP3   OH259730   0.846   0.811   0.902 -0.4519  0.3554  0.7424
12772TIP3    H159731   0.772   0.864   0.932 -0.2787 -0.3952  2.5802
12772TIP3    H259732   0.806   0.739   0.854 -0.8485  0.6139  0.6874
12773TIP3   OH259733   2.231   0.590  14.483 -0.2311 -0.0512  0.2823
12773TIP3    H159734   2.219   0.497  14.465  2.1254 -0.3710  0.1792
12773TIP3    H259735   2.313   0.594  14.532 -0.9369  1.8653  1.3367
12774TIP3   OH259736   0.221   5.895  14.235 -0.2586 -0.0255 -0.2771
12774TIP3    H159737   0.315   5.900  14.217 -0.3527  2.0962 -0.3023
12774TIP3    H259738   0.211   5.936  14.321 -1.2687  0.6402 -0.7048
12775TIP3   OH259739   5.450   0.052   0.127 -0.5720 -0.0385 -0.3380
12775TIP3    H159740   5.451   0.032   0.221  0.6559  2.0397  0.1403
12775TIP3    H259741   5.512   0.125   0.118 -0.6630 -0.2248 -2.7753
12776TIP3   OH259742   1.984   1.917   3.497 -0.9781  0.3480  0.4638
12776TIP3    H159743   1.960   1.957   3.581 -3.1281  0.1088  0.0079
12776TIP3    H259744   2.050   1.975   3.460  1.9470 -0.9181  3.4664
12777TIP3   OH259745   0.892   0.878   1.380  0.6522 -0.0789 -0.2577
12777TIP3    H159746   0.870   0.852   1.469 -1.6279  0.2826 -0.6693
12777TIP3    H259747   0.809   0.909   1.343  1.5669 -0.1739 -2.4868
12778TIP3   OH259748   1.376   6.746   3.992 -0.5745  0.2919 -0.3351
12778TIP3    H159749   1.451   6.751   3.933  0.2202  0.0771  0.6371
12778TIP3    H259750   1.384   6.660   4.034  0.4375  1.5461  2.1282
12779TIP3   OH259751   1.509   3.615  15.993  0.2453  0.1108  0.5143
12779TIP3    H159752   1.551   3.530  16.006 -1.8242 -0.8663  1.0699
12779TIP3    H259753   1.446   3.600  15.922 -0.1336  1.1810  0.6181
12780TIP3   OH259754   2.253   1.620  13.114  0.0521 -0.7117 -0.0996
12780TIP3    H159755   2.229   1.527  13.108 -0.5392 -0.4561 -2.3043
12780TIP3    H259756   2.172   1.665  13.134  0.1144 -0.5744 -0.1551
12781TIP3   OH259757   6.819   5.599   0.916  0.8098  0.0239  0.3664
12781TIP3    H159758   6.765   5.678   0.923  1.7662  0.5401  2.1959
12781TIP3    H259759   6.802   5.567   0.828 -1.9298  0.5558  0.6571
12782TIP3   OH259760   7.028   1.027   0.857  0.0237 -1.0631  0.2833
12782TIP3    H159761   7.081   0.986   0.925 -0.7211 -1.0536  0.8647
12782TIP3    H259762   7.017   1.118   0.886 -0.0272 -0.9744 -0.0092
12783TIP3   OH259763   6.892   3.182   1.725  0.8141  0.0133 -0.1268
12783TIP3    H159764   6.938   3.100   1.744 -0.0106 -0.4347 -0.0375
12783TIP3    H259765   6.845   3.202   1.806 -0.5857 -0.4831 -0.8071
12784TIP3   OH259766   2.068   0.681   0.113  0.0162 -0.4983  0.2685
12784TIP3    H159767   2.059   0.593   0.149  0.2128 -0.8069 -0.4381
12784TIP3    H259768   2.149   0.714   0.152  0.7844 -1.2240 -0.6936
12785TIP3   OH259769   0.757   6.485   1.020 -0.5143 -0.1988 -0.2192
12785TIP3    H159770   0.699   6.509   1.092  2.1274  0.7305  1.6973
12785TIP3    H259771   0.744   6.553   0.954  1.4644  2.4970  2.0257
12786TIP3   OH259772   0.978   7.263   3.633  0.2645  0.2887 -0.6930
12786TIP3    H159773   1.002   7.349   3.667  1.1029  0.0268 -0.6164
12786TIP3    H259774   1.002   7.266   3.541  0.4769  0.0672 -0.6443
12787TIP3   OH259775   1.819   1.094  15.467  0.0603 -0.3976  0.5984
12787TIP3    H159776   1.833   1.049  15.550  1.7178  1.0195  1.1328
12787TIP3    H259777   1.884   1.056  15.408 -0.2968 -0.5418  0.2959
12788TIP3   OH259778   2.886   7.087   4.638  0.2805  0.7233  0.4817
12788TIP3    H159779   2.837   7.107   4.558  0.8535 -1.1365 -0.3750
12788TIP3    H259780   2.820   7.081   4.707 -0.4207  0.6152 -0.1908
12789TIP3   OH259781   4.797   3.257   2.663  0.4326 -0.5823 -0.1224
12789TIP3    H159782   4.836   3.198   2.728  1.7195  1.1221  0.7035
12789TIP3    H259783   4.704   3.258   2.686  0.9251  0.3233  2.0354
12790TIP3   OH259784   0.671   7.169   0.839 -0.1681  0.1264  0.0885
12790TIP3    H159785   0.672   7.260   0.869 -1.3701 -0.2330  1.2747
12790TIP3    H259786   0.728   7.122   0.900 -1.2612 -0.2965  0.7964
12791TIP3   OH259787   4.570   4.594   0.347 -0.0301  0.2042  0.0317
12791TIP3    H159788   4.560   4.589   0.251 -1.7721 -0.3061  0.2173
12791TIP3    H259789   4.482   4.616   0.378  0.1655 -1.2622  1.6346
12792TIP3   OH259790   1.936   4.387  13.671  0.3197  0.0963  0.1587
12792TIP3    H159791   1.872   4.318  13.652  0.4612 -0.2726  0.9877
12792TIP3    H259792   2.003   4.343  13.724  2.6965 -0.2175 -2.9304
12793TIP3   OH259793   6.571   6.203   1.243  0.2954 -0.0721  0.3627
12793TIP3    H159794   6.488   6.163   1.270  0.2895 -0.7188 -0.5986
12793TIP3    H259795   6.550   6.250   1.163  0.7217  0.3077  0.4715
12794TIP3   OH259796   1.566   5.512   0.498 -0.5013 -0.2257 -0.2838
12794TIP3    H159797   1.532   5.504   0.409  0.1038  0.2851 -0.5663
12794TIP3    H259798   1.628   5.585   0.493  1.6331 -1.9714 -0.0926
12795TIP3   OH259799   1.260   6.078   4.777 -0.7129  1.2904 -0.4301
12795TIP3    H159800   1.248   6.104   4.868  0.1973 -0.1574  0.1146
12795TIP3    H259801   1.334   6.130   4.746  0.1821  0.4104  0.2221
12796TIP3   OH259802   3.370   7.166   3.668 -0.4793  0.4161 -0.2134
12796TIP3    H159803   3.400   7.159   3.759  1.0628  1.6298 -0.6136
12796TIP3    H259804   3.344   7.257   3.658 -2.3694 -0.1274 -0.4949
12797TIP3   OH259805   1.539   0.048   2.090  0.2504 -0.1927  0.0907
12797TIP3    H159806   1.554   0.056   2.184 -0.6725  1.4380  0.1162
12797TIP3    H259807   1.624   0.064   2.051  0.4498 -0.0014  0.5995
12798TIP3   OH259808   3.557   0.658   1.026  0.1173  0.3013  0.0377
12798TIP3    H159809   3.614   0.582   1.030  0.5915  0.6008 -0.8394
12798TIP3    H259810   3.519   0.655   0.938  0.9296  1.6180 -0.3853
12799TIP3   OH259811   0.859   1.329   4.636  0.5903  0.3369 -0.2857
12799TIP3    H159812   0.805   1.255   4.665 -0.2317  1.6985  1.8925
12799TIP3    H259813   0.831   1.346   4.546 -0.3739 -0.9791 -0.2465
12800TIP3   OH259814   1.113   5.037   2.564 -0.1741  0.2773  0.7513
12800TIP3    H159815   1.069   5.024   2.648 -0.8361  0.4278  0.4264
12800TIP3    H259816   1.162   5.119   2.575 -2.1471  1.5481  0.1922
12801TIP3   OH259817   0.975   4.525   4.370 -0.1797  0.0955 -0.1035
12801TIP3    H159818   1.015   4.457   4.424 -1.7714 -0.8170 -0.0694
12801TIP3    H259819   1.022   4.605   4.394  2.4445 -1.1426 -0.9145
12802TIP3   OH259820   1.033   0.647   3.831  0.0966 -1.0297  0.4508
12802TIP3    H159821   1.119   0.628   3.869  0.3453  0.5961  0.7373
12802TIP3    H259822   1.023   0.741   3.840 -2.0721 -1.2926  1.1328
12803TIP3   OH259823   5.817   2.997  14.499  0.2701 -0.1139  0.2355
12803TIP3    H159824   5.823   2.918  14.445  0.8340 -1.7997  2.6673
12803TIP3    H259825   5.723   3.018  14.499  0.3092  0.1747 -1.7033
12804TIP3   OH259826   0.451   1.087   1.839  0.3987 -0.1467  0.4139
12804TIP3    H159827   0.452   1.019   1.907  1.6286 -0.9938 -0.4386
12804TIP3    H259828   0.425   1.041   1.759  1.4140  0.3383 -0.2049
12805TIP3   OH259829   5.717   1.398   2.637 -0.5697 -0.4422  0.0233
12805TIP3    H159830   5.754   1.351   2.711  0.8364  1.3912  0.5250
12805TIP3    H259831   5.764   1.481   2.635 -0.4396 -0.5070 -3.0293
12806TIP3   OH259832   1.537   2.007  15.342 -0.1616 -0.7828  0.2258
12806TIP3    H159833   1.462   1.955  15.313 -0.0754 -1.2833  0.9114
12806TIP3    H259834   1.537   2.082  15.282 -3.2276  0.9579  2.2476
12807TIP3   OH259835   0.985   4.508   4.731  0.7904  0.0854 -0.6825
12807TIP3    H159836   1.013   4.584   4.679 -0.5787  0.2240 -1.2457
12807TIP3    H259837   1.024   4.523   4.817  2.0785  0.4762 -1.3181
12808TIP3   OH259838   2.548   4.915  12.099 -0.4316  0.1110  0.2320
12808TIP3    H159839   2.619   4.854  12.080  0.0956  0.8306 -0.1178
12808TIP3    H259840   2.587   4.981  12.156 -0.8140  0.5331  0.0080
12809TIP3   OH259841   0.993   3.406   5.214  0.3704 -0.3757 -0.3286
12809TIP3    H159842   0.980   3.404   5.120 -0.7094 -2.3190 -0.1742
12809TIP3    H259843   0.918   3.454   5.248  0.0136 -0.8950 -0.3692
12810TIP3   OH259844   3.950   2.366   0.618 -0.7009 -0.2380 -0.3610
12810TIP3    H159845   3.894   2.443   0.623 -0.7089 -0.2032 -0.9315
12810TIP3    H259846   4.030   2.397   0.576  0.5728  0.1727  2.2940
12811TIP3   OH259847   5.081   1.991   1.066 -0.0468 -0.1570  0.3895
12811TIP3    H159848   5.086   1.920   1.129 -1.1515 -1.8376 -1.3317
12811TIP3    H259849   5.163   1.986   1.017  0.5819  0.8066  1.3418
12812TIP3   OH259850   1.245   5.957   2.130 -0.3544  0.4917 -0.6122
12812TIP3    H159851   1.276   5.876   2.089 -1.3796 -0.1890 -0.0502
12812TIP3    H259852   1.268   5.947   2.223  0.6154  1.3848 -0.7377
12813TIP3   OH259853   3.878   3.329  15.679  0.8092 -0.3503  0.2420
12813TIP3    H159854   3.886   3.295  15.590  0.8004  0.4843 -0.0749
12813TIP3    H259855   3.948   3.285  15.728  3.0611  1.7953 -0.9674
12814TIP3   OH259856   1.403   5.907   3.110  0.2373  0.0689 -0.2035
12814TIP3    H159857   1.345   5.948   3.046 -2.3023 -0.8684  1.4045
12814TIP3    H259858   1.418   5.974   3.176  0.6868  0.1862 -0.4218
12815TIP3   OH259859   2.993   6.492   0.767 -0.2443  0.3070  0.6704
12815TIP3    H159860   2.960   6.516   0.854 -1.6821 -0.0623  0.2348
12815TIP3    H259861   3.037   6.408   0.780  2.6773  1.9114  1.7194
12816TIP3   OH259862   5.876   5.155   2.105  0.4959 -0.0340  0.1749
12816TIP3    H159863   5.882   5.060   2.111 -1.0908 -0.0932  1.1188
12816TIP3    H259864   5.785   5.171   2.078  0.7239  1.2151  0.1337
12817TIP3   OH259865   0.862   6.721   1.885 -0.2234 -0.0613 -0.6744
12817TIP3    H159866   0.845   6.754   1.797  2.7511  0.2268 -1.1992
12817TIP3    H259867   0.878   6.800   1.937  1.2018 -0.3620 -0.6332
12818TIP3   OH259868   4.200   6.338   1.401  0.1879  0.3361  0.2239
12818TIP3    H159869   4.178   6.431   1.403  0.9345  0.5145  0.1035
12818TIP3    H259870   4.191   6.313   1.309  0.3119  0.3631  0.2050
12819TIP3   OH259871   1.285   3.396   2.281  0.6698 -0.2507  0.7120
12819TIP3    H159872   1.371   3.360   2.303  1.4114  0.3837 -1.0775
12819TIP3    H259873   1.240   3.326   2.233  1.4312  0.5241 -1.1842
12820TIP3   OH259874   0.656   0.031   3.585  0.3181 -0.1912  0.2135
12820TIP3    H159875   0.708   0.090   3.639  0.2597 -0.5584  0.6695
12820TIP3    H259876   0.617  -0.031   3.647 -1.3883  0.6251  0.0061
12821TIP3   OH259877   1.126   0.620   2.642 -0.2549  0.3318  0.1681
12821TIP3    H159878   1.217   0.607   2.617 -0.0233  1.7251  0.2762
12821TIP3    H259879   1.082   0.644   2.560 -0.3284  0.6988  0.3178
12822TIP3   OH259880   0.258   0.578   0.780  0.3085 -0.4339 -0.0793
12822TIP3    H159881   0.239   0.521   0.706 -1.4830  1.0809 -0.8411
12822TIP3    H259882   0.311   0.648   0.744 -0.6150  0.3405  0.0397
12823TIP3   OH259883   0.918   1.046   1.830 -0.0806  0.0410  0.3348
12823TIP3    H159884   0.853   1.085   1.888  0.1184 -2.3005  2.1990
12823TIP3    H259885   0.959   1.121   1.786 -2.2724  1.6750  1.0028
12824TIP3   OH259886   7.106   6.092   0.172 -0.1098 -0.3344  0.1283
12824TIP3    H159887   7.145   6.007   0.192 -2.0104 -1.4736 -0.9814
12824TIP3    H259888   7.158   6.125   0.098 -1.3906 -1.9665 -1.5187
12825TIP3   OH259889   3.805   1.611   1.432 -0.1974 -0.0324  0.6032
12825TIP3    H159890   3.836   1.522   1.447  0.3287  0.2950  1.4317
12825TIP3    H259891   3.718   1.613   1.473 -0.8111 -0.5705 -0.6277
12826TIP3   OH259892   2.292   4.852  15.723 -0.3526 -0.0148 -0.6040
12826TIP3    H159893   2.335   4.882  15.643 -0.6731 -1.6356 -1.4124
12826TIP3    H259894   2.206   4.822  15.694 -0.7601  0.0949  0.4777
12827TIP3   OH259895   3.557   1.177   1.177 -0.1655  0.1668  0.1349
12827TIP3    H159896   3.586   1.262   1.211 -1.0573  0.1617  0.9214
12827TIP3    H259897   3.635   1.140   1.136  0.0428  1.7122 -0.9327
12828TIP3   OH259898   1.971   1.034   2.321 -0.3038  0.1276 -0.3407
12828TIP3    H159899   1.907   1.088   2.275 -1.5781  0.2991  1.6079
12828TIP3    H259900   2.051   1.087   2.322 -0.7779  0.8536 -0.7656
12829TIP3   OH259901   2.257   1.400   0.047  0.1736  0.8324  0.9515
12829TIP3    H159902   2.271   1.494   0.038  0.1486  0.5968 -1.7990
12829TIP3    H259903   2.166   1.386   0.020  0.7030 -0.1779 -0.3667
12830TIP3   OH259904   3.292   6.066  14.116  0.4334  0.4679 -0.3143
12830TIP3    H159905   3.334   5.981  14.126 -0.0032  0.1027 -1.5126
12830TIP3    H259906   3.231   6.054  14.043  0.0277  1.6708 -0.1789
12831TIP3   OH259907   1.573   6.764  14.223  0.2241 -0.0166 -0.3800
12831TIP3    H159908   1.606   6.853  14.230 -1.0082  0.3041  1.4731
12831TIP3    H259909   1.651   6.712  14.200  1.0884  1.3899 -0.7134
12832TIP3   OH259910   4.573   5.955  11.255 -0.3777 -0.0349  0.2244
12832TIP3    H159911   4.500   5.932  11.198 -0.6308  0.2607  0.4321
12832TIP3    H259912   4.623   6.020  11.205  0.3124 -0.9857 -0.3458
12833TIP3   OH259913   0.560   4.572   1.095 -0.1065 -0.4136 -0.6009
12833TIP3    H159914   0.516   4.554   1.179  1.3809  0.7938  0.4601
12833TIP3    H259915   0.533   4.661   1.073 -0.4900 -0.7264 -1.4355
12834TIP3   OH259916   0.691   6.943   4.316  0.0259 -0.1907  0.2059
12834TIP3    H159917   0.696   6.951   4.221  1.5462  0.5921  0.3335
12834TIP3    H259918   0.780   6.917   4.343  0.2677  1.8666  1.5892
12835TIP3   OH259919   2.052   1.149  15.821 -0.3254  0.2577 -0.2751
12835TIP3    H159920   2.128   1.106  15.859  1.0555  0.1155 -3.0694
12835TIP3    H259921   1.982   1.135  15.884  2.1614  1.1655  2.7868
12836TIP3   OH259922   1.175   4.466  15.065  0.0628 -0.3689 -0.0103
12836TIP3    H159923   1.083   4.462  15.089 -0.3926  1.5764 -1.3082
12836TIP3    H259924   1.178   4.427  14.977  0.3211  0.3933 -0.3419
12837TIP3   OH259925   0.929   5.368   2.056  0.2316  0.1652  0.7247
12837TIP3    H159926   0.911   5.457   2.087 -0.8720 -0.0958  0.8546
12837TIP3    H259927   0.843   5.327   2.050  0.8031 -1.1352  1.3471
12838TIP3   OH259928   4.684   3.738   1.174 -0.0554  0.1463  0.1950
12838TIP3    H159929   4.633   3.700   1.102 -1.2128 -1.2777  1.7291
12838TIP3    H259930   4.667   3.832   1.167  0.4720  0.1201 -1.8489
12839TIP3   OH259931   4.297   4.484  15.059  0.2409 -0.6204  0.0273
12839TIP3    H159932   4.233   4.542  15.099 -0.4977  0.3398 -2.4501
12839TIP3    H259933   4.375   4.492  15.113 -0.3868  1.4401  0.6538
12840TIP3   OH259934   3.432   4.355   2.711 -0.2807  0.1606  0.1155
12840TIP3    H159935   3.523   4.327   2.720  0.0984  0.6596 -1.9298
12840TIP3    H259936   3.382   4.287   2.756  0.8932 -1.7215 -1.3595
12841TIP3   OH259937   3.030   0.050   1.796  0.3229  0.4652 -0.1513
12841TIP3    H159938   2.991  -0.037   1.794  1.7683 -0.1836 -0.9550
12841TIP3    H259939   3.047   0.067   1.888  1.1449 -0.6073 -0.1074
12842TIP3   OH259940   0.007   0.292  14.366 -0.2799  0.2865  0.4480
12842TIP3    H159941  -0.085   0.310  14.385 -0.3373 -0.0418  0.4968
12842TIP3    H259942   0.055   0.332  14.439 -0.3902  0.3908  0.4636
12843TIP3   OH259943   1.051   5.169   0.035  0.4237 -0.0827 -0.2812
12843TIP3    H159944   1.059   5.110  -0.040  1.1949 -1.0812  0.5728
12843TIP3    H259945   1.049   5.257  -0.003  0.0720 -0.6115 -1.5128
12844TIP3   OH259946   2.316   6.176   1.792 -0.0273 -0.0280 -0.7202
12844TIP3    H159947   2.277   6.094   1.821  0.8466 -0.3207 -0.3800
12844TIP3    H259948   2.403   6.152   1.762  0.2688  0.7928 -0.5271
12845TIP3   OH259949   6.674   0.098   1.043  0.3914 -0.0411 -0.4360
12845TIP3    H159950   6.587   0.059   1.043  1.3540 -2.2344 -1.0901
12845TIP3    H259951   6.706   0.086   1.132  0.1501  0.5523 -0.2611
12846TIP3   OH259952   3.582   6.214   0.217 -0.0085  0.5012  0.5180
12846TIP3    H159953   3.529   6.270   0.160 -2.0434 -0.9522  0.9303
12846TIP3    H259954   3.556   6.238   0.306  0.5414  0.2734  0.7419
12847TIP3   OH259955   3.604   0.812   3.893 -0.6379  0.5140  0.1794
12847TIP3    H159956   3.527   0.785   3.944 -2.4386  0.4162 -2.5289
12847TIP3    H259957   3.609   0.906   3.905 -0.4885  0.3835  1.2543
12848TIP3   OH259958   1.653   4.763   3.618  0.0750 -0.2260  0.0884
12848TIP3    H159959   1.600   4.758   3.697  2.4985 -0.8956  1.7445
12848TIP3    H259960   1.671   4.672   3.596  0.6734 -0.0015 -0.3439
12849TIP3   OH259961   7.173   5.972   1.984  0.0234  0.6794  1.1875
12849TIP3    H159962   7.096   5.954   2.038 -1.2651  0.0588 -0.7881
12849TIP3    H259963   7.213   5.886   1.969 -0.5905  0.6326 -0.2296
12850TIP3   OH259964   4.481   6.222  15.129  0.0621 -0.6404  0.3549
12850TIP3    H159965   4.387   6.204  15.120 -0.4934  1.5394  1.5586
12850TIP3    H259966   4.497   6.219  15.223  1.3336 -1.4947  0.1284
12851TIP3   OH259967   0.576   5.771  15.784 -0.4794  0.7057 -0.0157
12851TIP3    H159968   0.664   5.806  15.775  0.7443 -2.2570 -0.2124
12851TIP3    H259969   0.541   5.771  15.695 -0.0770  0.4467 -0.1778
12852TIP3   OH259970   2.265   6.628   0.276  0.2188  0.0327  0.4078
12852TIP3    H159971   2.262   6.723   0.288  3.3095  0.3098 -0.5776
12852TIP3    H259972   2.303   6.594   0.357 -0.0195 -0.2797  0.3919
12853TIP3   OH259973   7.076   4.676  15.001 -0.3919  0.3273  0.1563
12853TIP3    H159974   7.025   4.674  15.082  1.1332 -1.9330  1.1024
12853TIP3    H259975   7.052   4.595  14.956  0.2382  0.6249 -0.7141
12854TIP3   OH259976   3.279   4.850   1.658 -0.3176 -0.1366  0.3261
12854TIP3    H159977   3.230   4.778   1.697 -0.1506 -1.0545 -1.1397
12854TIP3    H259978   3.303   4.906   1.733  1.5222 -2.7866  1.8121
12855TIP3   OH259979   2.239   6.035  14.500  0.2874 -0.1977  0.3876
12855TIP3    H159980   2.224   6.124  14.532  0.5529 -0.0553  0.1189
12855TIP3    H259981   2.151   6.000  14.485  0.1661 -0.1752  1.0158
12856TIP3   OH259982   6.763   0.117  13.242 -0.0097 -0.4492  0.2359
12856TIP3    H159983   6.815   0.082  13.314 -1.3503  0.3016  1.5870
12856TIP3    H259984   6.788   0.064  13.166  0.7934 -1.7978  1.4238
12857TIP3   OH259985   4.561   0.649   1.860  0.1252 -0.0164 -0.0032
12857TIP3    H159986   4.595   0.735   1.838 -0.4163  0.1599 -0.1573
12857TIP3    H259987   4.629   0.610   1.915  0.3494  0.5243  0.1099
12858TIP3   OH259988   3.051   6.695  15.366  0.1016  0.4297  0.4429
12858TIP3    H159989   2.977   6.713  15.308 -0.2080  2.6005  1.4701
12858TIP3    H259990   3.025   6.615  15.413  0.5154 -1.5627 -2.6133
12859TIP3   OH259991   2.890   6.235   1.350  0.2463  0.0433  0.1353
12859TIP3    H159992   2.961   6.240   1.414 -3.1584 -2.6738  4.3602
12859TIP3    H259993   2.890   6.144   1.322 -0.5619  0.4143 -1.1105
12860TIP3   OH259994   6.520   1.294  15.989 -0.5882  0.0460  0.4482
12860TIP3    H159995   6.439   1.255  15.956  1.6036 -2.6733 -2.0160
12860TIP3    H259996   6.522   1.381  15.949 -1.0057 -0.8809 -1.6922
12861TIP3   OH259997   1.262   6.457   1.225  0.2219  0.8511  0.2358
12861TIP3    H159998   1.170   6.464   1.200  0.5107  1.2362 -0.7342
12861TIP3    H259999   1.260   6.441   1.320 -0.8521  0.3733  0.1393
12862TIP3   OH260000   3.547   3.917   4.634  0.2981  0.0420  0.1979
12862TIP3    H160001   3.623   3.909   4.577  0.9337  0.1667  1.0143
12862TIP3    H260002   3.575   3.978   4.703 -0.3190 -0.4040  0.8502
12863TIP3   OH260003   6.442   6.005  14.520  0.2476 -0.0022 -0.6101
12863TIP3    H160004   6.456   5.924  14.569  0.9143  1.4956  1.8032
12863TIP3    H260005   6.504   6.067  14.559 -1.7182  2.2515 -0.8944
12864TIP3   OH260006   3.576   6.413   0.751 -0.0283 -0.5632  0.0644
12864TIP3    H160007   3.671   6.425   0.743  0.1481 -1.5614  0.6818
12864TIP3    H260008   3.548   6.486   0.807 -0.1177  1.6781 -2.7673
12865TIP3   OH260009   2.635   7.255  15.308 -0.3555 -0.1093  0.2590
12865TIP3    H160010   2.662   7.186  15.369 -2.3520 -0.6541  0.5824
12865TIP3    H260011   2.539   7.254  15.313 -0.4693  1.2464 -1.3489
12866TIP3   OH260012   4.675   0.294  13.277 -0.1200 -0.3587 -0.1947
12866TIP3    H160013   4.634   0.228  13.332 -0.8061  0.4631  0.2891
12866TIP3    H260014   4.620   0.372  13.287  0.8685  0.3908 -0.4882
12867TIP3   OH260015   3.382   5.581   0.050  0.0502  0.7913 -0.2391
12867TIP3    H160016   3.472   5.613   0.056 -0.6432  2.8517 -0.2597
12867TIP3    H260017   3.347   5.593   0.139 -0.4449  0.8140 -0.4350
12868TIP3   OH260018   3.764   4.452  14.809 -0.0761 -0.2775  0.5340
12868TIP3    H160019   3.708   4.464  14.886 -0.3042 -1.5378  0.5778
12868TIP3    H260020   3.846   4.494  14.833 -1.1444  2.0366  0.2755
12869TIP3   OH260021   0.384   1.009   1.567 -0.7041  0.3600 -0.6529
12869TIP3    H160022   0.370   1.097   1.531 -1.0385  1.1097  1.2205
12869TIP3    H260023   0.478   0.993   1.555 -0.1755  1.9641  1.0409
12870TIP3   OH260024   3.895   6.669  15.078 -0.1240 -0.3408 -0.0260
12870TIP3    H160025   3.802   6.672  15.054  0.1830  0.0750 -1.2139
12870TIP3    H260026   3.921   6.761  15.082  0.1792 -0.4534  0.5463
12871TIP3   OH260027   7.043   6.853   1.250 -0.1187 -0.5690 -0.8195
12871TIP3    H160028   7.135   6.839   1.228  0.1205  0.9351 -0.7722
12871TIP3    H260029   7.020   6.936   1.208 -1.0401 -0.1875  0.4275
12872TIP3   OH260030   6.963   0.064   2.537  0.0509  0.1500 -0.1159
12872TIP3    H160031   7.012   0.002   2.483  0.2334  0.9217 -0.8505
12872TIP3    H260032   6.931   0.012   2.610  0.5556 -0.7216 -0.5047
12873TIP3   OH260033   1.900   6.951   3.723  0.2142 -0.1791  0.4687
12873TIP3    H160034   1.909   6.990   3.810  1.7612 -0.2532  0.3552
12873TIP3    H260035   1.900   7.026   3.664 -0.1509 -0.1641  0.4908
12874TIP3   OH260036   1.465   5.965   0.067  0.6651 -0.3888 -0.7560
12874TIP3    H160037   1.426   5.930   0.146  2.6027 -2.3578 -0.6385
12874TIP3    H260038   1.501   6.050   0.093 -2.9092  1.1776 -0.7321
12875TIP3   OH260039   1.583   5.148   3.941 -0.2035  0.8553 -0.1263
12875TIP3    H160040   1.499   5.194   3.944 -0.8128 -0.2226 -0.3789
12875TIP3    H260041   1.560   5.055   3.947  1.1107  0.6282  2.1825
12876TIP3   OH260042   2.824   3.037   0.310  0.5102  0.3236 -0.5396
12876TIP3    H160043   2.756   3.038   0.378 -0.1563 -1.9799 -1.1423
12876TIP3    H260044   2.822   3.125   0.274 -1.9937  0.3702 -0.3724
12877TIP3   OH260045   6.098   5.794  15.366 -0.0253 -0.3559 -0.8861
12877TIP3    H160046   6.150   5.728  15.320  0.8564  1.3189 -2.3255
12877TIP3    H260047   6.162   5.845  15.416 -0.7589 -0.8746  0.6346
12878TIP3   OH260048   2.248   5.933   2.734  0.2150  0.4633 -0.1010
12878TIP3    H160049   2.154   5.930   2.755  0.1980 -1.6451 -0.3506
12878TIP3    H260050   2.250   5.945   2.639  0.1820  0.1911 -0.1378
12879TIP3   OH260051   5.306   6.733  12.185 -0.4924 -0.6606  0.2734
12879TIP3    H160052   5.291   6.778  12.269 -0.3983 -0.0547 -0.0322
12879TIP3    H260053   5.378   6.781  12.145  1.6218 -2.8615  1.2401
12880TIP3   OH260054   3.648   7.294   2.159 -0.3449 -0.5627 -0.3294
12880TIP3    H160055   3.708   7.334   2.096 -0.4011  2.5292  1.5149
12880TIP3    H260056   3.561   7.304   2.119 -0.0976 -1.3180 -1.0859
12881TIP3   OH260057   4.125   7.061  14.071 -0.5676  0.1501  0.1595
12881TIP3    H160058   4.215   7.058  14.103  0.3082  1.9523 -2.0851
12881TIP3    H260059   4.125   7.007  13.992 -1.4182  0.3744 -0.0025
12882TIP3   OH260060   6.725   1.768   2.299  0.3779  0.4589  0.4847
12882TIP3    H160061   6.758   1.806   2.381 -0.9375  1.1550  0.7006
12882TIP3    H260062   6.710   1.676   2.320  1.3018  0.3435  0.6493
12883TIP3   OH260063   4.207   6.272   1.135  0.3389  0.2662 -0.1461
12883TIP3    H160064   4.252   6.238   1.058 -1.0903  0.8559 -1.2712
12883TIP3    H260065   4.135   6.212   1.149  0.9000 -0.1234  1.0468
12884TIP3   OH260066   3.092   4.403  14.845  0.6177  0.1585 -0.1328
12884TIP3    H160067   3.110   4.425  14.936  2.1462  1.1843 -0.6523
12884TIP3    H260068   3.001   4.431  14.831  0.3551 -0.0560  1.0721
12885TIP3   OH260069   0.080   7.131   0.354 -0.7331 -0.3635 -0.1378
12885TIP3    H160070  -0.010   7.105   0.335 -0.6582  1.5560 -3.4539
12885TIP3    H260071   0.073   7.224   0.377  0.4553 -0.0697 -0.9250
12886TIP3   OH260072   3.698   7.201   0.013 -0.0268 -0.3146 -0.1297
12886TIP3    H160073   3.651   7.187  -0.069 -1.6951 -0.5699  0.8318
12886TIP3    H260074   3.788   7.173  -0.005 -0.5998 -1.2748 -1.5842
12887TIP3   OH260075   5.268   4.644  13.936 -0.3553 -0.0279 -0.5233
12887TIP3    H160076   5.188   4.651  13.988 -0.3655  3.1493 -0.8793
12887TIP3    H260077   5.238   4.645  13.845  0.0568  0.5988 -0.6539
12888TIP3   OH260078   2.436   6.534   1.258 -0.0603  0.2560  0.7619
12888TIP3    H160079   2.518   6.497   1.225 -0.1123  1.4274 -0.6998
12888TIP3    H260080   2.442   6.525   1.354  0.1477 -3.0736  0.5012
12889TIP3   OH260081   1.739   4.925   2.617 -0.8187  0.1050 -0.2793
12889TIP3    H160082   1.666   4.938   2.555 -0.6622 -1.0508 -0.7278
12889TIP3    H260083   1.699   4.933   2.703 -1.5010 -0.5863 -0.5229
12890TIP3   OH260084   4.305   6.478   1.968 -0.5557  0.2136 -0.1266
12890TIP3    H160085   4.241   6.549   1.969 -0.0796  0.6790  3.9956
12890TIP3    H260086   4.256   6.401   1.997  0.4181  0.3310  1.9401
12891TIP3   OH260087   0.923   6.607  11.315  0.4292  0.1911 -1.1108
12891TIP3    H160088   0.960   6.608  11.404 -0.2549  0.0514 -0.8234
12891TIP3    H260089   0.836   6.570  11.326  1.5900 -3.0935 -2.3570
12892TIP3   OH260090   5.838   3.218   0.135  0.2031  0.2732 -0.1880
12892TIP3    H160091   5.885   3.244   0.215  0.0912  1.3720 -0.4659
12892TIP3    H260092   5.895   3.245   0.064 -0.3747  0.6755 -0.5039
12893TIP3   OH260093   3.750   5.986  15.691  0.2589 -0.8412 -0.3736
12893TIP3    H160094   3.840   5.980  15.723  0.0671  0.2999  0.4184
12893TIP3    H260095   3.744   6.074  15.652 -0.3648 -1.1013 -0.8818
12894TIP3   OH260096   4.104   7.066   1.750  0.4657 -0.4038 -0.3415
12894TIP3    H160097   4.188   7.025   1.771 -0.7428 -2.2341  1.1750
12894TIP3    H260098   4.078   7.110   1.831 -0.2246 -0.2168 -0.6614
12895TIP3   OH260099   4.985   4.682  15.777 -0.1240 -0.4858  0.3712
12895TIP3    H160100   5.043   4.758  15.783  0.3838 -0.7990 -0.4526
12895TIP3    H260101   5.042   4.607  15.793 -0.2650 -0.8086 -0.6043
12896TIP3   OH260102   1.895   0.373   0.397  0.3357 -0.2528  0.3097
12896TIP3    H160103   1.804   0.401   0.401  0.4809  0.4026 -0.7164
12896TIP3    H260104   1.893   0.281   0.422 -0.8070 -0.6470 -1.1553
12897TIP3   OH260105   3.322   6.176   1.891 -0.6259 -0.7853  0.4447
12897TIP3    H160106   3.294   6.263   1.861  0.1499 -0.2364  1.3011
12897TIP3    H260107   3.263   6.155   1.963 -0.6528 -0.8652  0.4002
12898TIP3   OH260108   5.388   0.414   0.728  0.3838  0.3417  0.4731
12898TIP3    H160109   5.457   0.445   0.786 -0.1096  0.1103  1.2001
12898TIP3    H260110   5.387   0.319   0.741 -0.1590  0.3572  0.5751
12899TIP3   OH260111   1.134   4.336  13.389 -0.1364  0.3365 -0.1300
12899TIP3    H160112   1.130   4.314  13.482 -0.2539  1.7044  0.2031
12899TIP3    H260113   1.048   4.311  13.355 -0.2721  0.2967  0.2374
12900TIP3   OH260114   0.408   7.248   0.286  0.6109 -0.4474  0.9791
12900TIP3    H160115   0.492   7.293   0.294  0.6563 -0.6352  1.5641
12900TIP3    H260116   0.343   7.317   0.298  0.6732 -0.1207 -0.4781
12901TIP3   OH260117   0.762   0.128   0.546 -0.1020 -0.2618 -0.7576
12901TIP3    H160118   0.820   0.105   0.618  0.4657 -0.3829 -1.2542
12901TIP3    H260119   0.693   0.062   0.549 -1.7197  1.4134  1.5141
12902TIP3   OH260120   0.857   1.652   1.652  0.3155  0.3217 -0.1566
12902TIP3    H160121   0.935   1.705   1.636  0.2937  0.2282 -0.5858
12902TIP3    H260122   0.888   1.561   1.650  0.1260  0.2671 -0.7545
12903TIP3   OH260123   0.352   6.917   3.331 -0.2536  0.7955  0.5583
12903TIP3    H160124   0.267   6.880   3.307  0.5137 -2.1693  2.0451
12903TIP3    H260125   0.358   6.999   3.283 -2.7656 -0.2932 -1.7303
12904TIP3   OH260126   0.695   2.084   1.267 -0.0336  0.2429 -0.0405
12904TIP3    H160127   0.627   2.149   1.251 -0.6100 -0.2914  0.2227
12904TIP3    H260128   0.747   2.082   1.186 -2.4853 -1.9191 -1.6311
12905TIP3   OH260129   2.618   6.496   2.116  0.3505  0.2088  0.3151
12905TIP3    H160130   2.605   6.446   2.035 -0.7220  2.1021 -0.7364
12905TIP3    H260131   2.557   6.457   2.179  0.3025 -0.5001 -0.1710
12906TIP3   OH260132   5.511   2.532   0.713 -0.3252  0.0500  0.6783
12906TIP3    H160133   5.484   2.501   0.627 -0.9689 -1.7100  1.4747
12906TIP3    H260134   5.607   2.539   0.707 -0.3806  0.0629 -0.2117
12907TIP3   OH260135   4.867   5.774   1.948  0.8504 -0.5944  0.3256
12907TIP3    H160136   4.928   5.840   1.981  0.9617 -0.2455 -0.5753
12907TIP3    H260137   4.913   5.734   1.874  0.3841 -1.0089  0.2570
12908TIP3   OH260138   3.636   6.619  15.925  0.2730  0.3127  0.0911
12908TIP3    H160139   3.666   6.589  15.839  0.4543 -0.4097  0.3989
12908TIP3    H260140   3.544   6.593  15.929  0.1629  0.6903 -0.0421
12909TIP3   OH260141   1.672   6.749   1.479  0.0231 -0.1066 -0.0486
12909TIP3    H160142   1.590   6.700   1.478 -0.7128  1.0397  1.9482
12909TIP3    H260143   1.674   6.795   1.396 -2.2891  1.3433  0.6676
12910TIP3   OH260144   6.933   6.604   1.012  0.0631  0.1683  0.2625
12910TIP3    H160145   6.838   6.594   1.014  0.0605 -0.1329 -1.0876
12910TIP3    H260146   6.950   6.685   1.060 -0.8945  0.3911  0.2290
12911TIP3   OH260147   2.651   3.973   2.056 -0.6259  0.2378  0.5648
12911TIP3    H160148   2.623   4.055   2.014  1.2511 -1.2012 -3.7562
12911TIP3    H260149   2.597   3.906   2.014 -0.3173 -1.0586  2.2026
12912TIP3   OH260150   1.576   2.161  15.121 -0.4162  0.2910  0.0647
12912TIP3    H160151   1.568   2.205  15.037  1.2616  0.5868  0.0269
12912TIP3    H260152   1.578   2.068  15.101 -0.3530  0.3496 -0.1977
12913TIP3   OH260153   4.455   1.797   0.564  0.3051  0.3818 -0.5215
12913TIP3    H160154   4.540   1.833   0.539  1.4611 -0.0944  2.5389
12913TIP3    H260155   4.435   1.838   0.648 -1.8153 -0.6153 -0.5095
12914TIP3   OH260156   4.044   2.160  15.289 -0.1312  0.1761 -0.5959
12914TIP3    H160157   3.963   2.115  15.312  0.6135 -1.0255 -0.2633
12914TIP3    H260158   4.056   2.226  15.357 -1.3023  0.9978 -1.1622
12915TIP3   OH260159   2.783   6.387   0.954 -0.6765  0.5839 -0.0694
12915TIP3    H160160   2.813   6.310   1.001 -0.4485  1.1184  0.6657
12915TIP3    H260161   2.829   6.460   0.996 -0.3480  1.0491 -1.2091
12916TIP3   OH260162   3.370   6.785  14.103 -0.2996  0.2548  0.5573
12916TIP3    H160163   3.440   6.841  14.137 -0.4430  0.6101  0.2599
12916TIP3    H260164   3.389   6.776  14.010  0.7120 -1.6172  0.9274
12917TIP3   OH260165   4.855   7.229  14.767 -0.2756 -0.3306  0.3229
12917TIP3    H160166   4.884   7.306  14.718  2.9695 -1.4392  0.3759
12917TIP3    H260167   4.880   7.154  14.712 -4.8381 -1.4089 -0.4966
12918TIP3   OH260168   3.325   5.229  13.898  0.2202  0.1834  0.1464
12918TIP3    H160169   3.388   5.207  13.829  1.0598  1.1187  0.5967
12918TIP3    H260170   3.306   5.322  13.884  0.2236  0.3190  1.0325
12919TIP3   OH260171   1.241   5.340  15.881  0.0981  0.1225 -0.3373
12919TIP3    H160172   1.228   5.289  15.801  0.0061  1.2314 -1.0401
12919TIP3    H260173   1.321   5.390  15.866  0.2548  0.1014  0.3886
12920TIP3   OH260174   3.553   1.500  15.595  0.3916  0.0900  0.0153
12920TIP3    H160175   3.480   1.521  15.537 -0.5593 -0.6424  0.9305
12920TIP3    H260176   3.630   1.498  15.537 -0.6591 -1.5163 -1.3932
12921TIP3   OH260177   4.627   5.640   0.946  0.3421 -0.3263 -0.3819
12921TIP3    H160178   4.697   5.634   1.012  0.3643  0.9766 -0.2894
12921TIP3    H260179   4.554   5.592   0.985  0.6634 -0.3628  0.1829
12922TIP3   OH260180   3.557   7.038   1.936 -0.0149  0.1161 -0.3690
12922TIP3    H160181   3.480   7.096   1.943 -0.1408 -0.0551 -0.3398
12922TIP3    H260182   3.593   7.057   1.850  2.3497  3.2475  1.1945
12923TIP3   OH260183   4.052   1.940   1.071  0.0160  0.6098 -0.0199
12923TIP3    H160184   3.990   1.871   1.091  0.6847 -0.0289 -0.1454
12923TIP3    H260185   4.068   1.932   0.977 -1.2013  2.0191 -0.3793
12924TIP3   OH260186   2.997   2.992   0.510  0.0094  0.3479  0.1507
12924TIP3    H160187   2.954   2.985   0.425  1.7719 -0.2782 -0.7040
12924TIP3    H260188   2.933   2.957   0.572 -0.5938 -0.8787 -1.1405
12925TIP3   OH260189   3.398   0.979  15.688  0.3884  0.0569  0.0416
12925TIP3    H160190   3.417   1.073  15.694 -1.3147  0.7278 -3.6531
12925TIP3    H260191   3.411   0.958  15.596 -1.2207 -2.8989  0.4462
12926TIP3   OH260192   4.891   5.516  13.757 -0.1000  0.1147  0.0428
12926TIP3    H160193   4.952   5.589  13.761  1.3487 -1.0966  0.4106
12926TIP3    H260194   4.923   5.455  13.824 -0.4369 -1.5073 -1.2658
12927TIP3   OH260195   1.805   0.139   5.418 -0.2203  0.1637 -0.3906
12927TIP3    H160196   1.845   0.097   5.342 -1.3184 -0.2141 -0.7846
12927TIP3    H260197   1.849   0.100   5.494 -0.3507 -0.7788 -0.7932
12928TIP3   OH260198   2.884   0.062  14.765 -0.3999  0.2384  0.1501
12928TIP3    H160199   2.829   0.003  14.714 -0.6800 -0.6947  1.4865
12928TIP3    H260200   2.960   0.009  14.790  0.3615  1.0667 -0.4040
12929TIP3   OH260201   0.592   5.812  15.303  0.3345 -0.0776 -0.0114
12929TIP3    H160202   0.618   5.903  15.313  0.8907 -0.1498 -0.7644
12929TIP3    H260203   0.618   5.770  15.385  1.3995  0.1348 -0.2334
12930TIP3   OH260204   2.256   6.461  15.037  0.0541  0.3898  0.6013
12930TIP3    H160205   2.190   6.530  15.025 -0.5782 -0.5379 -1.6832
12930TIP3    H260206   2.251   6.438  15.130 -3.0832  0.1412  0.4269
12931TIP3   OH260207   2.831   0.381   1.410 -0.0559 -0.8271  0.2425
12931TIP3    H160208   2.824   0.309   1.348  0.0543 -0.4072 -0.2576
12931TIP3    H260209   2.925   0.395   1.420 -0.0861 -0.4075 -0.0609
12932TIP3   OH260210   0.258   2.635   0.890  0.4641  0.1195  0.2333
12932TIP3    H160211   0.274   2.612   0.981  0.5482 -0.8218 -0.0087
12932TIP3    H260212   0.173   2.596   0.870  0.9847 -0.7146 -0.4260
12933TIP3   OH260213   2.337   0.503   0.312  0.0309 -0.3901  0.0855
12933TIP3    H160214   2.329   0.585   0.264 -1.7998  0.1663  1.2919
12933TIP3    H260215   2.388   0.527   0.390  0.7344 -0.7289 -0.2616
12934TIP3   OH260216   1.574   4.774  15.895 -0.0933  0.4194  0.0426
12934TIP3    H160217   1.651   4.738  15.851  1.2967  1.7683  1.3377
12934TIP3    H260218   1.598   4.864  15.916 -2.1695  0.9816  0.1530
12935TIP3   OH260219   1.683   4.402   3.955 -0.2916 -0.2174 -0.3431
12935TIP3    H160220   1.684   4.325   4.012 -1.1501 -0.4942 -0.6960
12935TIP3    H260221   1.651   4.369   3.871  2.1658 -0.0950 -1.3902
12936TIP3   OH260222   2.370   6.696  13.806 -0.2468 -0.0781  0.1958
12936TIP3    H160223   2.359   6.626  13.741 -0.4458  1.0905 -1.0571
12936TIP3    H260224   2.460   6.727  13.793 -0.0621 -0.2888  0.9444
12937TIP3   OH260225   2.687   1.948   1.674  0.1119  0.0608 -0.2170
12937TIP3    H160226   2.761   1.888   1.685 -0.6621 -0.7209  0.8714
12937TIP3    H260227   2.722   2.021   1.623  1.7993  0.0029  0.8239
12938TIP3   OH260228   2.917   1.349   0.772 -0.2691 -0.2640 -0.3186
12938TIP3    H160229   2.929   1.345   0.677  0.5278  1.1457 -0.2998
12938TIP3    H260230   3.001   1.383   0.805 -1.2619  1.2503  0.6961
12939TIP3   OH260231   0.750   0.311   0.118 -0.5158 -0.2306  0.0241
12939TIP3    H160232   0.837   0.340   0.145 -0.8683  2.2755 -1.3600
12939TIP3    H260233   0.766   0.247   0.048  0.2240  0.0429 -0.0568
12940TIP3   OH260234   0.742   4.098   2.725 -0.1980 -0.7801 -0.4376
12940TIP3    H160235   0.807   4.030   2.746  0.4205  0.0619  0.4504
12940TIP3    H260236   0.661   4.050   2.710  0.5624 -1.8281 -1.2403
12941TIP3   OH260237   3.326   6.095   0.968  0.3465  0.4511 -0.2691
12941TIP3    H160238   3.417   6.119   0.950 -0.2862  1.6834 -2.0190
12941TIP3    H260239   3.313   6.012   0.924  0.0423  1.3351 -1.8998
12942TIP3   OH260240   6.740   1.979  14.089 -0.2291 -0.2985 -0.4209
12942TIP3    H160241   6.746   1.921  14.165  0.9149 -1.0062 -1.0221
12942TIP3    H260242   6.823   2.026  14.088 -0.6010  0.3593 -0.7227
12943TIP3   OH260243   3.035   5.993   0.291  0.5012  0.1841  0.7874
12943TIP3    H160244   2.980   5.960   0.362  0.3266  0.4320  0.7659
12943TIP3    H260245   3.039   5.920   0.229 -0.2626  0.3620  0.5229
12944TIP3   OH260246   3.237   7.091   2.744  0.2428 -0.3822 -0.2716
12944TIP3    H160247   3.146   7.115   2.725 -0.0020 -1.1876 -0.1306
12944TIP3    H260248   3.284   7.174   2.746 -0.7302  0.1462  0.9540
12945TIP3   OH260249   0.322   2.516   1.156  0.0941 -0.3582 -0.3828
12945TIP3    H160250   0.287   2.428   1.170 -0.6593  0.1115  0.6978
12945TIP3    H260251   0.301   2.564   1.235  0.2951  0.8822 -1.0600
12946TIP3   OH260252   1.599   0.309   0.344 -0.1834 -0.1853 -0.2533
12946TIP3    H160253   1.523   0.293   0.399  0.5266 -3.5957 -0.1223
12946TIP3    H260254   1.581   0.262   0.262  0.9424  0.5954 -0.9814
12947TIP3   OH260255   4.403   6.645  14.470  0.0597 -0.1807 -0.7271
12947TIP3    H160256   4.492   6.612  14.481  0.3243  0.4557 -0.9564
12947TIP3    H260257   4.348   6.566  14.470  0.6411 -0.5868 -0.8102
12948TIP3   OH260258   3.497   5.576   0.971 -0.4565  0.2421  0.9492
12948TIP3    H160259   3.480   5.671   0.973  0.1773  0.3612  0.7424
12948TIP3    H260260   3.449   5.545   0.894  0.0504  0.5400  0.5051
12949TIP3   OH260261   2.022   6.640   2.466 -0.2856 -0.4802 -0.6525
12949TIP3    H160262   1.968   6.697   2.521 -0.7036  1.0688 -2.6360
12949TIP3    H260263   1.960   6.591   2.414  0.1499 -0.9402 -0.7342
12950TIP3   OH260264   4.890   4.745   1.778 -1.0000 -0.3357 -0.5988
12950TIP3    H160265   4.813   4.755   1.834 -0.2345  0.4273  0.3564
12950TIP3    H260266   4.962   4.779   1.831 -0.3732  1.1705 -2.3511
12951TIP3   OH260267   1.998   6.635  13.712  0.1273 -0.3700 -0.1700
12951TIP3    H160268   2.046   6.716  13.729  1.5955 -1.4229  0.7753
12951TIP3    H260269   1.980   6.638  13.618  0.0059  1.1280 -0.1156
12952TIP3   OH260270   4.332   5.370   4.622  0.4572 -0.1229  0.1339
12952TIP3    H160271   4.300   5.460   4.631  1.8012  0.3178  0.6235
12952TIP3    H260272   4.426   5.379   4.614  0.4336 -1.3765 -1.7179
12953TIP3   OH260273   3.861   1.754   1.184  0.5770  0.0876 -0.6044
12953TIP3    H160274   3.852   1.696   1.260  1.5624  0.7182  0.0075
12953TIP3    H260275   3.796   1.723   1.122  1.7877 -2.3395 -0.7129
12954TIP3   OH260276   0.786   1.889   4.215  0.7936  0.2172 -0.3320
12954TIP3    H160277   0.851   1.918   4.152  2.1901  1.5820  1.6871
12954TIP3    H260278   0.836   1.867   4.294 -0.9369 -1.1569  0.4363
12955TIP3   OH260279   3.301   0.485  15.768 -0.7625 -0.3437  0.8573
12955TIP3    H160280   3.276   0.452  15.681  1.8519  0.8476 -0.4081
12955TIP3    H260281   3.264   0.573  15.773  1.4533  0.7077 -0.2758
12956TIP3   OH260282   1.211   4.454  13.945  0.2273 -0.0867 -0.2901
12956TIP3    H160283   1.214   4.521  14.014 -1.4809 -0.5886  0.3113
12956TIP3    H260284   1.117   4.438  13.931  0.5819 -3.1091  0.3503
12957TIP3   OH260285   2.949   1.760   1.666  0.1891 -0.1907  0.0674
12957TIP3    H160286   2.887   1.716   1.608  1.0096  1.3555 -2.0464
12957TIP3    H260287   3.033   1.719   1.648  0.1885 -0.7348  1.2753
12958TIP3   OH260288   0.785   6.440  14.801 -0.0519  0.5054  0.0696
12958TIP3    H160289   0.848   6.450  14.872 -0.1379  2.3509 -0.1046
12958TIP3    H260290   0.811   6.505  14.735 -1.6688  0.7630 -0.3420
12959TIP3   OH260291   1.505   0.227  14.466  0.2117  0.1129 -0.8684
12959TIP3    H160292   1.458   0.178  14.534 -0.5385  1.6316 -0.2770
12959TIP3    H260293   1.463   0.200  14.384 -1.0176  0.6798 -0.4394
12960TIP3   OH260294   3.495   1.010   0.459 -0.7031  0.4555  0.2091
12960TIP3    H160295   3.524   0.958   0.533 -0.3842  0.3782  0.0304
12960TIP3    H260296   3.420   1.060   0.492 -0.9939 -0.0990  0.3817
12961TIP3   OH260297   0.967   5.509   1.131  0.1040  0.0514  0.4269
12961TIP3    H160298   1.031   5.565   1.087  1.4685 -0.7209  1.3711
12961TIP3    H260299   0.910   5.478   1.061  1.1423  0.2795 -0.5364
12962TIP3   OH260300   4.211   0.687   0.710 -0.3851  0.5645  0.0286
12962TIP3    H160301   4.144   0.683   0.641 -0.3495 -0.4636  0.0512
12962TIP3    H260302   4.199   0.773   0.750 -1.4620  0.5308 -0.2062
12963TIP3   OH260303   2.443   4.229   1.181  0.4075 -0.3521 -0.1379
12963TIP3    H160304   2.495   4.234   1.261 -1.3565  1.0832  0.9729
12963TIP3    H260305   2.393   4.148   1.191  0.0828 -0.1028  0.2967
12964TIP3   OH260306   1.990   6.625  15.736  0.6047  1.1283  0.4346
12964TIP3    H160307   1.906   6.610  15.780  0.0663  2.2285 -0.1825
12964TIP3    H260308   2.044   6.668  15.803  0.4965  0.9051  0.6665
12965TIP3   OH260309   3.420   1.760   1.338  0.0973 -0.1793 -0.2294
12965TIP3    H160310   3.480   1.818   1.385  2.2225 -1.1072 -1.6987
12965TIP3    H260311   3.336   1.807   1.337  1.3225  2.0832  0.0961
12966TIP3   OH260312   2.724   0.657   0.327  0.6367 -0.1262  0.3913
12966TIP3    H160313   2.798   0.653   0.388  0.5729 -0.6535  0.4385
12966TIP3    H260314   2.727   0.574   0.280  0.3235  0.0277  0.0962
12967TIP3   OH260315   0.464   0.892  14.817  0.1279 -0.1950 -0.1759
12967TIP3    H160316   0.422   0.967  14.776 -2.7500 -1.3209  0.5356
12967TIP3    H260317   0.502   0.926  14.898  1.0761  0.9588 -1.0973
12968TIP3   OH260318   4.178   6.482  13.493 -0.6062 -0.7258 -0.4909
12968TIP3    H160319   4.177   6.572  13.462  1.5860 -0.9584 -1.3744
12968TIP3    H260320   4.096   6.471  13.541 -1.2888  1.4589 -1.1272
12969TIP3   OH260321   3.310   3.403  14.686  0.0203 -0.3632 -0.4105
12969TIP3    H160322   3.265   3.406  14.602 -1.0208  0.0184  0.1619
12969TIP3    H260323   3.321   3.309  14.704 -1.7843 -0.4887  0.1023
12970TIP3   OH260324   7.115   6.193   1.170 -0.4031  0.1692 -0.7653
12970TIP3    H160325   7.102   6.229   1.082 -1.5921 -1.2415 -1.1740
12970TIP3    H260326   7.032   6.207   1.214 -0.3588 -0.6599 -0.4115
12971TIP3   OH260327   2.660   1.420  15.865 -0.4566 -0.8274 -0.0788
12971TIP3    H160328   2.714   1.352  15.823 -1.8401 -1.4728 -0.8385
12971TIP3    H260329   2.570   1.393  15.848 -1.0327  0.2968  1.1025
12972TIP3   OH260330   0.512   1.114   2.165 -0.3687 -0.2350  0.2740
12972TIP3    H160331   0.427   1.103   2.206 -1.5966 -1.4678 -2.4749
12972TIP3    H260332   0.556   1.030   2.177  0.5386  0.4488  1.8218
12973TIP3   OH260333   2.717   1.143  13.570 -0.0428  0.4781 -0.7621
12973TIP3    H160334   2.691   1.109  13.485 -1.3191 -2.9406  0.8669
12973TIP3    H260335   2.669   1.225  13.580 -0.7747  0.3108 -2.8369
12974TIP3   OH260336   5.270   4.312  14.178 -0.0199 -0.4580 -0.0543
12974TIP3    H160337   5.182   4.349  14.179 -0.3589 -1.2621 -0.2669
12974TIP3    H260338   5.324   4.380  14.137 -0.3818  0.3794  0.8434
12975TIP3   OH260339   4.560   0.614  13.921 -0.1742 -0.1308  1.1184
12975TIP3    H160340   4.469   0.621  13.951 -0.1844  2.9170  0.5027
12975TIP3    H260341   4.554   0.616  13.825  0.4959 -0.5338  1.0672
12976TIP3   OH260342   3.284   7.023  14.919 -0.6719  0.2199  0.4241
12976TIP3    H160343   3.266   6.946  14.866 -0.4874 -0.9485  2.0082
12976TIP3    H260344   3.373   7.049  14.895 -0.8665  0.1601 -0.3730
12977TIP3   OH260345   4.807   4.042  14.657 -0.0612 -0.4357  0.3614
12977TIP3    H160346   4.883   4.016  14.709 -0.0575 -1.9847 -0.3881
12977TIP3    H260347   4.743   3.972  14.672 -0.9696  0.3667  0.2217
12978TIP3   OH260348   3.904   1.003  14.972 -0.6091 -0.6474 -0.0216
12978TIP3    H160349   3.976   1.028  15.029 -1.5488 -0.9139  1.2925
12978TIP3    H260350   3.923   0.912  14.948  0.1056 -0.3412 -0.6482
12979TIP3   OH260351   0.474   6.995  15.591  0.2278 -0.1432 -0.1657
12979TIP3    H160352   0.508   7.052  15.660 -2.0375  2.1416 -0.8852
12979TIP3    H260353   0.405   6.944  15.633 -0.2903  0.3376 -0.4311
12980TIP3   OH260354   0.895   6.723   1.316  0.4758  0.2463  0.4699
12980TIP3    H160355   0.822   6.668   1.289  0.9574  1.0489 -2.5821
12980TIP3    H260356   0.952   6.664   1.367 -0.3959 -1.3462 -0.3613
12981TIP3   OH260357   4.275   0.781   3.085 -0.1171  0.3037 -0.5248
12981TIP3    H160358   4.286   0.847   3.017  0.9344  0.2822 -0.3958
12981TIP3    H260359   4.314   0.702   3.047 -0.6015 -0.0129 -0.3564
12982TIP3   OH260360   1.658   1.237   1.952 -0.4871  0.1660  0.6757
12982TIP3    H160361   1.616   1.323   1.953 -1.4168 -0.2999  1.8313
12982TIP3    H260362   1.684   1.222   2.042 -2.6675 -1.8946  1.0038
12983TIP3   OH260363   1.175   5.650   5.133 -0.2516 -0.2096 -0.0057
12983TIP3    H160364   1.115   5.725   5.126 -1.6387 -1.1346  1.5710
12983TIP3    H260365   1.250   5.674   5.078 -1.8315  1.2066 -1.6159
12984TIP3   OH260366   2.008   1.826   2.244 -0.1333 -0.0308  0.1783
12984TIP3    H160367   1.966   1.805   2.160 -0.3248 -0.6820  0.4373
12984TIP3    H260368   2.098   1.850   2.220  0.0109 -0.8868 -0.1512
12985TIP3   OH260369   3.427   6.519  11.892 -0.2830  0.5159 -0.1512
12985TIP3    H160370   3.431   6.614  11.897 -0.1034  0.4995  0.0213
12985TIP3    H260371   3.339   6.500  11.858 -1.2540  0.6568  2.1800
12986TIP3   OH260372   7.094   4.019  14.844  0.7829 -0.1177  0.3868
12986TIP3    H160373   7.074   3.976  14.927 -0.8082 -1.3510 -0.5876
12986TIP3    H260374   7.152   3.958  14.798  0.0577 -0.3660 -0.2139
12987TIP3   OH260375   2.275   5.756   3.240 -0.2809 -0.3729  0.4213
12987TIP3    H160376   2.257   5.849   3.232  2.0029  0.1465  0.9587
12987TIP3    H260377   2.277   5.723   3.150 -2.1898 -0.1500  0.2782
12988TIP3   OH260378   1.920   6.726   1.049 -0.6309  0.3280 -0.2112
12988TIP3    H160379   1.825   6.715   1.052 -0.5615 -1.4219 -2.2984
12988TIP3    H260380   1.954   6.636   1.040  1.1492  0.9911 -0.3571
12989TIP3   OH260381   4.513   5.530  12.633 -0.8868  0.9131 -0.0449
12989TIP3    H160382   4.498   5.622  12.656 -1.7723  0.5727  0.7396
12989TIP3    H260383   4.602   5.529  12.597  0.2974  1.5732  2.7151
12990TIP3   OH260384   1.922   3.937  15.867  0.7216  0.2507  0.4808
12990TIP3    H160385   1.866   4.011  15.842  0.8653 -0.3420 -1.6577
12990TIP3    H260386   1.863   3.877  15.913  0.2075  0.8689  0.6345
12991TIP3   OH260387   4.567   6.004   0.954  0.0428  0.3334  0.1118
12991TIP3    H160388   4.550   5.936   0.889  0.3961 -0.5347  0.9112
12991TIP3    H260389   4.495   6.065   0.944 -0.8560 -0.7126  0.0929
12992TIP3   OH260390   4.343   5.768  15.530  0.3171  0.4072  0.2487
12992TIP3    H160391   4.387   5.790  15.449 -1.4928  0.2017 -0.8242
12992TIP3    H260392   4.256   5.809  15.522 -0.0936 -0.1054  1.8162
12993TIP3   OH260393   6.414   0.158  14.271 -0.0637 -0.3093 -1.0451
12993TIP3    H160394   6.440   0.158  14.363  1.0853 -0.2506 -1.3657
12993TIP3    H260395   6.358   0.080  14.262 -0.8033  0.1099 -0.1338
12994TIP3   OH260396   0.599   5.776   3.923 -0.3405 -0.8380 -0.1067
12994TIP3    H160397   0.588   5.825   3.842  3.9317 -1.4016 -1.1238
12994TIP3    H260398   0.584   5.840   3.992 -1.5337  0.2312 -1.3332
12995TIP3   OH260399   6.928   7.082   1.628  0.2706  0.3675  0.9269
12995TIP3    H160400   6.937   6.999   1.581  0.6826  1.7442 -1.5199
12995TIP3    H260401   6.838   7.083   1.660 -0.0660 -0.5373  0.0160
12996TIP3   OH260402   4.569   1.241  14.225 -0.1670  0.2720 -0.1245
12996TIP3    H160403   4.504   1.306  14.253 -0.9106 -1.5120  2.5524
12996TIP3    H260404   4.522   1.187  14.161 -0.0789  1.3450 -1.0996
12997TIP3   OH260405   1.801   7.075   4.666  0.6828  0.0079  0.5612
12997TIP3    H160406   1.815   6.982   4.651 -1.7160 -0.3381  0.1737
12997TIP3    H260407   1.782   7.110   4.578 -2.9943 -0.0384  1.2648
12998TIP3   OH260408   4.396   4.354   0.568 -0.0107 -0.0214 -0.3031
12998TIP3    H160409   4.347   4.347   0.487  0.2107  0.7077 -0.5061
12998TIP3    H260410   4.437   4.268   0.580 -0.4893 -0.3002 -0.6705
12999TIP3   OH260411   1.760   6.442   3.145 -0.2952 -0.1087  0.0345
12999TIP3    H160412   1.719   6.358   3.126 -1.2374 -0.0124  1.5089
12999TIP3    H260413   1.686   6.500   3.166  0.3244  1.1477 -1.1756
13000TIP3   OH260414   5.639   7.115  14.727  0.0007  0.4542 -0.3954
13000TIP3    H160415   5.679   7.150  14.806 -0.5205 -1.3490  0.6912
13000TIP3    H260416   5.576   7.183  14.700  0.2848  1.1348  0.6468
13001TIP3   OH260417   2.034   0.712   1.862 -0.0625 -0.0455  0.6541
13001TIP3    H160418   2.095   0.732   1.791  0.0180  1.5342  1.1524
13001TIP3    H260419   1.988   0.633   1.833 -1.2547  1.5547 -1.8988
13002TIP3   OH260420   3.135   6.408   3.005 -0.8585  0.3265  0.5150
13002TIP3    H160421   3.080   6.348   2.955 -2.3181  1.2314  1.0114
13002TIP3    H260422   3.174   6.354   3.074  0.9216 -0.8618 -1.3594
13003TIP3   OH260423   5.087   6.327   0.656  0.1272  0.1976  0.1394
13003TIP3    H160424   5.041   6.389   0.713  0.8104  0.3172  0.5689
13003TIP3    H260425   5.022   6.261   0.634 -0.2925  0.4491  0.6184
13004TIP3   OH260426   1.832   5.831  14.501 -0.1428 -0.2316  0.1308
13004TIP3    H160427   1.879   5.914  14.490 -2.4870  1.1405  0.1210
13004TIP3    H260428   1.742   5.857  14.522 -0.5109 -2.7882  1.9684
13005TIP3   OH260429   4.155   4.530   1.953 -0.5022 -0.4774  0.3869
13005TIP3    H160430   4.138   4.624   1.966  1.0079 -0.1913  0.3649
13005TIP3    H260431   4.250   4.522   1.962 -0.8176 -2.3460  2.5468
13006TIP3   OH260432   1.284   4.371   2.590  0.8773  0.3045  0.4065
13006TIP3    H160433   1.207   4.316   2.609  0.2580  0.7841 -0.6870
13006TIP3    H260434   1.330   4.376   2.674 -0.4376  0.2421  1.1560
13007TIP3   OH260435   2.208   0.580  15.233  0.7815  0.5857  0.0890
13007TIP3    H160436   2.299   0.581  15.202  0.3727  0.0867 -1.1684
13007TIP3    H260437   2.164   0.646  15.181  0.1932  0.1038 -0.0339
13008TIP3   OH260438   2.860   6.114   2.655  0.1787 -0.3185  0.3043
13008TIP3    H160439   2.823   6.038   2.700  1.0012 -1.2063 -0.4883
13008TIP3    H260440   2.932   6.078   2.604 -0.0491  0.8518 -0.8516
13009TIP3   OH260441   3.894   0.194   1.738  0.1265  0.0579 -0.2664
13009TIP3    H160442   3.927   0.223   1.823 -1.3021  0.8971  0.0039
13009TIP3    H260443   3.973   0.163   1.692  0.8939 -0.4540  1.3620
13010TIP3   OH260444   4.492   0.422   1.703  0.0216 -0.5090  0.0051
13010TIP3    H160445   4.502   0.488   1.771  0.7704 -1.3982  0.7743
13010TIP3    H260446   4.581   0.400   1.677 -0.2439 -0.5636 -0.8972
13011TIP3   OH260447   2.534   6.798   0.744  0.0161  0.1468 -0.5186
13011TIP3    H160448   2.608   6.857   0.738  0.0285  0.0879 -0.9365
13011TIP3    H260449   2.573   6.712   0.762  0.0151  0.2173 -0.1811
13012TIP3   OH260450   0.374   0.263   0.809 -0.5762 -0.1985 -0.1727
13012TIP3    H160451   0.392   0.315   0.730 -2.5309  0.4322 -0.2373
13012TIP3    H260452   0.391   0.323   0.881 -0.9383 -0.0865 -0.1818
13013TIP3   OH260453   1.024   0.101  15.318  0.4097 -0.3035  0.1776
13013TIP3    H160454   1.107   0.138  15.286  1.0730 -0.5752  1.5636
13013TIP3    H260455   0.960   0.171  15.306  1.0275  0.2253 -0.0525
13014TIP3   OH260456   4.944   6.361   1.059 -0.5981 -0.0197  0.5361
13014TIP3    H160457   5.022   6.314   1.090 -0.8421 -0.0484  1.1230
13014TIP3    H260458   4.873   6.328   1.114 -0.5629  1.9163  1.7879
13015TIP3   OH260459   4.371   5.446  11.212  0.0982  0.7538  0.0002
13015TIP3    H160460   4.404   5.380  11.273 -2.0026  0.1900  0.5712
13015TIP3    H260461   4.440   5.512  11.208  0.8747  0.0914  1.8996
13016TIP3   OH260462   0.702   6.367   1.889 -0.4882  0.2039 -0.1071
13016TIP3    H160463   0.616   6.375   1.848  0.4528  2.4752 -1.7466
13016TIP3    H260464   0.738   6.286   1.852 -2.2686 -1.2889  1.3376
13017TIP3   OH260465   4.155   6.686   3.300  0.1007  0.4391  0.5075
13017TIP3    H160466   4.144   6.764   3.246 -0.3313  0.5355  0.7266
13017TIP3    H260467   4.106   6.618   3.254 -0.2224  0.5078  0.7452
13018TIP3   OH260468   4.334   0.725   2.676 -0.0725  0.2695 -0.4031
13018TIP3    H160469   4.310   0.810   2.712  0.2499 -0.7189  2.2670
13018TIP3    H260470   4.250   0.681   2.660 -0.2490 -0.5035  2.3026
13019TIP3   OH260471   3.529   7.096  13.338  0.2046  0.4282 -0.4542
13019TIP3    H160472   3.438   7.096  13.368 -0.4397  0.1870 -2.3208
13019TIP3    H260473   3.575   7.151  13.401 -1.3798  1.1127  0.1330
13020TIP3   OH260474   3.194   6.960   1.921  0.5020  0.3431  0.4041
13020TIP3    H160475   3.257   6.929   1.987  1.8266  0.7946 -0.6212
13020TIP3    H260476   3.110   6.924   1.949  1.2151 -0.2680  1.8089
13021TIP3   OH260477   3.003   4.012   1.648  0.2458  0.1800  0.3758
13021TIP3    H160478   3.011   4.099   1.608  2.5283  0.4776  1.4316
13021TIP3    H260479   2.970   4.029   1.736  0.2112 -0.0795  0.4131
13022TIP3   OH260480   4.524   5.049   2.775  0.1821  0.0582  0.8013
13022TIP3    H160481   4.564   4.979   2.828  1.1669 -0.6594 -0.8482
13022TIP3    H260482   4.547   5.026   2.685 -0.2790  2.0305  0.1713
13023TIP3   OH260483   2.799   7.113   1.122  0.5480 -0.0213  0.6365
13023TIP3    H160484   2.716   7.067   1.117  0.1901  0.6104  0.7123
13023TIP3    H260485   2.857   7.066   1.062  0.6483 -1.4950  1.8571
13024TIP3   OH260486   5.249   2.841   5.427 -0.4054 -0.4377  0.4704
13024TIP3    H160487   5.189   2.903   5.468 -0.7719 -0.6544  0.2656
13024TIP3    H260488   5.320   2.830   5.491  0.2870  1.1216 -0.0087
13025TIP3   OH260489   4.663   7.066   4.354  0.8424 -0.0786 -0.1347
13025TIP3    H160490   4.702   7.003   4.414  0.6901  1.3297  1.4969
13025TIP3    H260491   4.636   7.139   4.411 -0.1126  0.8921 -1.8078
13026TIP3   OH260492   1.593   6.728   4.657 -0.4550 -0.2960 -0.2921
13026TIP3    H160493   1.661   6.723   4.724 -2.5467  1.6680  2.0588
13026TIP3    H260494   1.583   6.638   4.626  2.0491 -0.8688  0.4878
13027TIP3   OH260495   3.138   6.031  14.966  0.0487 -0.2700  0.0890
13027TIP3    H160496   3.065   6.093  14.968  0.2857 -0.0067  0.7346
13027TIP3    H260497   3.165   6.028  14.874  0.0184  0.5691  0.0500
13028TIP3   OH260498   4.193   0.284   0.841 -0.1070  0.2715 -0.3707
13028TIP3    H160499   4.161   0.291   0.752  0.4755  0.1731 -0.5938
13028TIP3    H260500   4.282   0.250   0.832 -0.4067 -0.7283  0.3018
13029TIP3   OH260501   2.602   5.048  13.965  0.9269 -0.1235  0.1931
13029TIP3    H160502   2.532   4.997  13.925  2.0783  0.7777 -3.0875
13029TIP3    H260503   2.563   5.083  14.045 -1.8737 -0.9161 -0.7692
13030TIP3   OH260504   2.572   2.433   3.095  0.0601  0.2114  0.3558
13030TIP3    H160505   2.490   2.420   3.047  1.6545 -1.9398 -1.9113
13030TIP3    H260506   2.628   2.481   3.034  0.5426  1.5850  1.8535
13031TIP3   OH260507   3.991   0.901   3.646 -0.3748 -0.6088 -0.3872
13031TIP3    H160508   3.971   0.896   3.553 -0.5849  1.7661 -0.5023
13031TIP3    H260509   4.077   0.860   3.655 -0.6822 -1.5088 -1.4939
13032TIP3   OH260510   3.865   0.780   5.293  0.2544 -0.1223  0.6178
13032TIP3    H160511   3.882   0.690   5.268  0.1478 -0.0704  0.3529
13032TIP3    H260512   3.873   0.781   5.388 -0.7886 -0.6306  0.7140
13033TIP3   OH260513   5.681   5.397   0.980 -0.0581 -0.1647  0.6441
13033TIP3    H160514   5.652   5.306   0.994  0.2327  0.0274  2.6353
13033TIP3    H260515   5.629   5.448   1.042 -2.3535  1.4584 -2.5146
13034TIP3   OH260516   5.321   1.667   1.337  0.4835 -0.1805 -0.1264
13034TIP3    H160517   5.390   1.722   1.372  0.0921  0.4283 -0.2992
13034TIP3    H260518   5.262   1.651   1.411  0.6645 -0.4779 -0.0450
13035TIP3   OH260519   3.119   6.350  14.777 -0.1493 -0.1332 -0.0046
13035TIP3    H160520   3.204   6.315  14.752 -0.1805  0.3910 -0.8666
13035TIP3    H260521   3.116   6.437  14.737  0.0210  0.9618  2.3010
13036TIP3   OH260522   5.036   1.215  15.893  0.5585  0.1427 -0.1968
13036TIP3    H160523   4.970   1.226  15.962  1.2525 -1.3321  0.7238
13036TIP3    H260524   5.044   1.302  15.854 -1.6986  0.4267 -0.1065
13037TIP3   OH260525   5.109   7.275  13.737  0.1333 -0.1792 -0.7587
13037TIP3    H160526   5.097   7.218  13.813  2.5252 -0.6219 -0.6638
13037TIP3    H260527   5.204   7.284  13.728 -0.1484  1.9596 -2.1548
13038TIP3   OH260528   1.355   4.184   5.097 -0.1038 -0.3730 -0.1688
13038TIP3    H160529   1.267   4.156   5.119  0.6027 -1.6567  1.0683
13038TIP3    H260530   1.396   4.108   5.055 -0.1256  0.7615 -2.3214
13039TIP3   OH260531   3.932   0.223   1.137  0.4481  0.1335  0.3586
13039TIP3    H160532   4.023   0.223   1.167 -0.0442 -1.5422  1.9441
13039TIP3    H260533   3.884   0.270   1.206 -0.0665  0.0496  0.0618
13040TIP3   OH260534   1.029   5.818   3.998 -0.0865 -0.3287 -0.0874
13040TIP3    H160535   1.056   5.789   4.085  0.7001  1.7549  0.3923
13040TIP3    H260536   0.951   5.872   4.013 -1.0050 -1.4289 -0.8592
13041TIP3   OH260537   3.698   0.438   1.769 -0.4322  0.0090  0.2703
13041TIP3    H160538   3.790   0.449   1.793 -0.5033 -1.1222  1.1299
13041TIP3    H260539   3.692   0.467   1.678  0.2222  2.6613  1.0530
13042TIP3   OH260540   5.321   4.675  15.678  0.0920  0.1702  0.7512
13042TIP3    H160541   5.319   4.641  15.589 -1.6939 -1.7372  1.4750
13042TIP3    H260542   5.379   4.751  15.674 -1.4667  1.2920 -2.4649
13043TIP3   OH260543   0.448   2.157   1.149 -0.0751 -0.1315  0.1526
13043TIP3    H160544   0.376   2.219   1.167  0.0170  0.1683 -0.4971
13043TIP3    H260545   0.403   2.075   1.128 -0.1746 -0.9856  3.3961
13044TIP3   OH260546   3.748   0.077   1.007 -0.3610 -0.4556  0.1187
13044TIP3    H160547   3.814   0.014   0.979 -1.0418 -0.3016 -1.8681
13044TIP3    H260548   3.796   0.138   1.064  0.9754 -0.9333 -0.4723
13045TIP3   OH260549   3.997   5.164  13.006 -0.2669 -0.2894  0.0365
13045TIP3    H160550   3.977   5.244  13.055 -1.1282  0.7266 -1.8874
13045TIP3    H260551   3.932   5.162  12.936 -0.5821 -2.9943  0.3834
13046TIP3   OH260552   3.385   5.618   0.710  0.0839 -0.1944  0.1673
13046TIP3    H160553   3.356   5.685   0.649 -1.2439  1.3820  2.4293
13046TIP3    H260554   3.320   5.549   0.704 -0.1693  0.0638 -0.0504
13047TIP3   OH260555   3.218   4.304   3.262  0.6788 -0.2851 -0.1204
13047TIP3    H160556   3.144   4.362   3.246  0.5893  0.3273  2.2545
13047TIP3    H260557   3.212   4.236   3.195 -0.7087  1.0224 -1.3317
13048TIP3   OH260558   2.724   6.883   0.440 -0.6419  0.4826 -0.0637
13048TIP3    H160559   2.731   6.955   0.503 -0.9567  0.7459 -0.3292
13048TIP3    H260560   2.778   6.813   0.478 -2.2586  0.0014  1.3874
13049TIP3   OH260561   4.732   2.381   1.427  0.1522  0.0791  0.7465
13049TIP3    H160562   4.792   2.368   1.501  2.4807  1.2823 -0.8461
13049TIP3    H260563   4.784   2.431   1.363 -1.6960 -1.1583 -1.8077
13050TIP3   OH260564   6.971   0.544   1.652 -0.0944  0.3479  0.0842
13050TIP3    H160565   6.977   0.461   1.604 -1.9401  0.2700 -0.0628
13050TIP3    H260566   6.907   0.527   1.721  0.1225  1.4203  0.5621
13051TIP3   OH260567   1.884   6.287  15.498  0.0760  0.0593  0.2506
13051TIP3    H160568   1.830   6.307  15.574  0.2680  2.8941 -0.2829
13051TIP3    H260569   1.962   6.245  15.534 -1.3630 -1.7846  1.2567
13052TIP3   OH260570   1.878   6.705   0.435  0.1395 -0.2244 -0.4613
13052TIP3    H160571   1.799   6.656   0.416  1.1597 -2.8687  1.7200
13052TIP3    H260572   1.851   6.770   0.501 -0.2358 -1.0871  0.2431
13053TIP3   OH260573   4.618   7.247   2.699 -0.2122 -0.0591 -0.2481
13053TIP3    H160574   4.697   7.217   2.743 -1.4569 -0.5135  1.7127
13053TIP3    H260575   4.580   7.311   2.759 -1.5541 -0.1335 -1.0048
13054TIP3   OH260576   6.142   4.232  15.792  0.1892  0.0931  0.6908
13054TIP3    H160577   6.122   4.217  15.700 -1.1074 -0.1898  1.0043
13054TIP3    H260578   6.060   4.265  15.829  1.5655  3.2847  1.0581
13055TIP3   OH260579   4.132   1.771   2.017 -0.3592  1.0483  0.6311
13055TIP3    H160580   4.218   1.800   2.049  0.3865 -0.6805  0.2597
13055TIP3    H260581   4.069   1.816   2.074  0.7593  3.0035  0.3474
13056TIP3   OH260582   2.442   5.844   0.340 -0.6480  0.1007 -0.4167
13056TIP3    H160583   2.482   5.925   0.310 -1.7582  0.7358 -0.2248
13056TIP3    H260584   2.437   5.789   0.261 -0.1385  0.3182 -0.6022
13057TIP3   OH260585   4.394   5.599   4.212 -0.0916 -0.0380 -0.0457
13057TIP3    H160586   4.424   5.690   4.209 -1.4646  0.5809  2.9569
13057TIP3    H260587   4.465   5.552   4.256 -1.2228  0.4535  2.3807
13058TIP3   OH260588   5.057   3.113   0.305 -0.2374  0.2911  0.2628
13058TIP3    H160589   4.992   3.070   0.361 -0.7918  1.9348  0.9234
13058TIP3    H260590   5.127   3.140   0.364 -0.8228  2.0302  0.2184
13059TIP3   OH260591   3.705   3.446  15.472 -0.3765 -0.3174 -0.0254
13059TIP3    H160592   3.772   3.446  15.541  2.3901 -1.6540 -2.5965
13059TIP3    H260593   3.682   3.353  15.461  0.3906 -0.3089 -1.9343
13060TIP3   OH260594   4.060   5.951   0.005 -0.1054 -0.0209  0.2877
13060TIP3    H160595   4.154   5.968   0.004  0.0986 -1.1990 -1.3445
13060TIP3    H260596   4.031   5.969  -0.084 -1.4114  0.1860  0.7501
13061TIP3   OH260597   4.880   7.127   2.315 -0.2366 -0.4419 -0.0211
13061TIP3    H160598   4.880   7.107   2.409  1.5709 -0.4486 -0.0114
13061TIP3    H260599   4.869   7.221   2.310 -0.1173 -0.4153  0.2082
13062TIP3   OH260600   2.941   5.402   3.472 -0.0215  0.0789  0.3872
13062TIP3    H160601   2.996   5.476   3.448  1.2998 -0.4799  1.6430
13062TIP3    H260602   2.993   5.325   3.448 -2.0380 -0.5041 -2.4512
13063TIP3   OH260603   6.768   4.185  15.813 -0.2198 -0.5899 -0.2907
13063TIP3    H160604   6.737   4.253  15.873  0.0694 -1.0868  0.4343
13063TIP3    H260605   6.834   4.137  15.863  1.0191 -0.1576 -1.4833
13064TIP3   OH260606   4.558   6.152   2.531  0.5083  0.1603  1.0026
13064TIP3    H160607   4.522   6.086   2.472 -1.5185  0.6927  1.5971
13064TIP3    H260608   4.651   6.130   2.538  0.2772 -1.3955 -0.3982
13065TIP3   OH260609   3.747   6.267  15.670  0.9080  0.2263  0.4140
13065TIP3    H160610   3.736   6.334  15.603 -0.1918 -0.1276  0.2213
13065TIP3    H260611   3.776   6.315  15.748  2.4051  0.6065 -0.3668
13066TIP3   OH260612   3.014   6.740   2.453 -0.2475 -0.4452 -0.1477
13066TIP3    H160613   2.959   6.728   2.376 -0.4580  0.8021 -0.1991
13066TIP3    H260614   3.078   6.807   2.427  1.0736 -1.6000  0.0349
13067TIP3   OH260615   6.708   4.520   4.068 -0.0431 -0.2774  0.1983
13067TIP3    H160616   6.677   4.595   4.018 -0.5569 -0.1818  0.6521
13067TIP3    H260617   6.788   4.492   4.024 -0.9298 -0.7194 -1.1779
13068TIP3   OH260618   4.043   2.267   2.528  0.3047 -0.1492  0.1502
13068TIP3    H160619   4.071   2.181   2.500 -0.6818  0.0194 -1.3880
13068TIP3    H260620   4.032   2.317   2.447 -1.2659  0.7489  0.8880
13069TIP3   OH260621   3.957   6.422   3.404 -0.5559  0.7988 -0.5385
13069TIP3    H160622   4.039   6.464   3.431  0.4849 -1.5724  0.1583
13069TIP3    H260623   3.969   6.330   3.427 -3.4108  0.3947 -0.5002
13070TIP3   OH260624   3.577   0.188   2.337  0.5364 -0.0124  0.1874
13070TIP3    H160625   3.575   0.103   2.293  2.2247  0.7339 -1.4248
13070TIP3    H260626   3.571   0.167   2.430  1.0020 -1.9086 -0.1819
13071TIP3   OH260627   7.185   4.881   1.337  0.8877  0.0688  0.3570
13071TIP3    H160628   7.098   4.905   1.366  0.5413  1.4409 -1.7025
13071TIP3    H260629   7.177   4.872   1.242  2.8487 -0.4119  0.2075
13072TIP3   OH260630   3.858   5.792  15.407 -0.1339 -0.1451  0.1777
13072TIP3    H160631   3.856   5.790  15.503 -0.6254 -0.2961  0.1697
13072TIP3    H260632   3.800   5.865  15.384 -1.5648 -1.3266 -0.0370
13073TIP3   OH260633   3.787   5.001   2.891  0.1763 -0.3933  0.4704
13073TIP3    H160634   3.754   4.941   2.958 -0.1768  1.2631  1.8095
13073TIP3    H260635   3.768   4.957   2.808 -0.5550 -1.8871  1.4085
13074TIP3   OH260636   3.533   6.469   1.709  0.1331 -0.2135  0.4462
13074TIP3    H160637   3.613   6.492   1.755  0.7482 -1.5112  0.0325
13074TIP3    H260638   3.552   6.386   1.666 -1.7717 -1.0919  1.2037
13075TIP3   OH260639   6.873   0.188  14.763  0.1446  0.5794 -0.5498
13075TIP3    H160640   6.851   0.193  14.856 -0.1174  0.5257 -0.6106
13075TIP3    H260641   6.854   0.275  14.729  0.6487  0.7278 -0.4633
13076TIP3   OH260642   5.207   5.517   2.259  0.6321 -0.3710 -0.0367
13076TIP3    H160643   5.203   5.444   2.320  0.3835 -0.3140  0.0149
13076TIP3    H260644   5.129   5.509   2.205  0.9378 -0.5180 -0.4616
13077TIP3   OH260645   2.142   3.601   0.723  0.1599 -1.0689  0.5075
13077TIP3    H160646   2.072   3.584   0.786 -0.4184 -3.6004 -0.7416
13077TIP3    H260647   2.223   3.590   0.774 -0.3019  1.2658  1.8010
13078TIP3   OH260648   4.008   1.175   0.269  1.0691 -0.0709  0.0674
13078TIP3    H160649   4.103   1.187   0.272  1.0713 -0.1770  0.4764
13078TIP3    H260650   3.972   1.263   0.282  1.1133  0.0174 -0.4041
13079TIP3   OH260651   1.485   6.008   3.551  0.2270 -0.3089 -0.3812
13079TIP3    H160652   1.492   5.917   3.523 -0.4843 -0.8701  1.2528
13079TIP3    H260653   1.432   6.006   3.630 -0.3411  1.6044 -0.6743
13080TIP3   OH260654   2.331   4.599   3.724  0.4429  0.1006 -0.0329
13080TIP3    H160655   2.274   4.570   3.795 -0.3103 -0.2430 -0.7724
13080TIP3    H260656   2.274   4.606   3.648  1.0332  1.4401 -0.3862
13081TIP3   OH260657   5.785   0.353   5.806  0.5649  0.0139 -0.3905
13081TIP3    H160658   5.772   0.362   5.712  0.7773  1.6282 -0.2808
13081TIP3    H260659   5.804   0.260   5.819  0.6430 -0.2002 -1.9528
13082TIP3   OH260660   6.309   0.174   0.396  0.4329  0.0833 -0.2699
13082TIP3    H160661   6.233   0.118   0.384 -0.7325  1.6044 -0.0602
13082TIP3    H260662   6.343   0.150   0.483 -1.6425  1.5380  0.9899
13083TIP3   OH260663   4.874   1.342   2.799 -0.5665  0.8576 -0.3580
13083TIP3    H160664   4.946   1.406   2.793  1.0162 -0.8620 -0.1717
13083TIP3    H260665   4.806   1.388   2.848  0.8516  2.1404  0.4793
13084TIP3   OH260666   3.913   0.971   0.409 -0.4808  0.6095  0.4652
13084TIP3    H160667   3.918   1.037   0.340 -0.0402 -0.2716 -0.3417
13084TIP3    H260668   4.004   0.949   0.428 -0.6413 -0.1275  0.3877
13085TIP3   OH260669   5.218   5.748   2.123  0.2612  0.2860  0.0751
13085TIP3    H160670   5.233   5.703   2.040 -0.2137  0.2105  0.0300
13085TIP3    H260671   5.192   5.679   2.184  0.9532  0.2901  0.3774
13086TIP3   OH260672   4.046   2.965   0.669  0.2176 -0.3644 -0.5134
13086TIP3    H160673   4.055   3.057   0.692 -0.2646  0.3304 -2.9392
13086TIP3    H260674   4.135   2.935   0.651  0.4080 -0.4831  0.5654
13087TIP3   OH260675   4.542   4.708   2.939 -0.0462  0.3872  0.0738
13087TIP3    H160676   4.622   4.751   2.907  0.2544  0.0028  0.3083
13087TIP3    H260677   4.568   4.669   3.023 -0.4535  0.1746  0.0994
13088TIP3   OH260678   4.011   0.183   0.221 -0.3613  0.0002 -0.6245
13088TIP3    H160679   4.022   0.235   0.142 -0.4079 -0.4151 -0.9075
13088TIP3    H260680   4.082   0.118   0.217 -1.9288 -1.6689 -1.6415
13089TIP3   OH260681   5.624   1.697  15.748  0.1186 -0.7202 -0.2804
13089TIP3    H160682   5.545   1.654  15.781 -0.8207  1.1873  0.0307
13089TIP3    H260683   5.692   1.630  15.753 -0.9257 -1.6570  1.7568
13090TIP3   OH260684   0.852   0.833   4.033 -0.0328 -0.4874  0.5292
13090TIP3    H160685   0.938   0.869   4.014  0.9351 -4.5964 -3.8661
13090TIP3    H260686   0.793   0.878   3.972  0.0021 -1.5192 -0.2791
13091TIP3   OH260687   4.318   5.693   0.958 -0.1377 -0.2990 -0.3307
13091TIP3    H160688   4.306   5.765   1.020  0.0637 -0.0313 -0.6008
13091TIP3    H260689   4.356   5.622   1.010  1.1718  0.3382 -0.4017
13092TIP3   OH260690   5.570   7.240  13.450 -0.1253  0.2402 -0.3506
13092TIP3    H160691   5.588   7.161  13.500 -0.9168 -0.2229 -0.7857
13092TIP3    H260692   5.596   7.218  13.360  0.5444  0.7954 -0.2943
13093TIP3   OH260693   3.496   6.227   3.297 -0.0978 -0.2120 -0.2854
13093TIP3    H160694   3.535   6.243   3.383  1.8225  0.5845 -1.2610
13093TIP3    H260695   3.440   6.303   3.281 -1.2314 -0.8341  0.6653
13094TIP3   OH260696   2.690   5.611  15.896 -0.4822  0.1127  0.1610
13094TIP3    H160697   2.713   5.668  15.823 -0.3578  0.4829  0.4877
13094TIP3    H260698   2.610   5.566  15.867 -1.8145  2.0443  0.7675
13095TIP3   OH260699   5.167   0.295  14.573  0.0886  0.5096  0.1922
13095TIP3    H160700   5.248   0.247  14.591 -0.4942 -0.4059  0.4068
13095TIP3    H260701   5.178   0.328  14.484 -0.4932 -2.0783 -0.8815
13096TIP3   OH260702   4.362   2.397   2.953  0.7024 -0.6810  0.3169
13096TIP3    H160703   4.315   2.314   2.963  1.7658 -1.2855  0.3842
13096TIP3    H260704   4.415   2.404   3.032 -0.6297  0.8891  1.1015
13097TIP3   OH260705   4.904   2.357   1.634  0.0552  0.1755 -0.1161
13097TIP3    H160706   4.890   2.439   1.682  0.1877 -0.9720  1.8955
13097TIP3    H260707   4.998   2.340   1.642 -0.0135 -0.3066 -0.3105
13098TIP3   OH260708   0.705   5.378  15.853  0.0334 -0.1410 -0.6338
13098TIP3    H160709   0.611   5.373  15.872  0.1706  1.3352  0.5219
13098TIP3    H260710   0.733   5.287  15.850 -1.2842 -0.5795 -0.2108
13099TIP3   OH260711   2.667   6.733  15.040 -0.3662 -0.2601  0.0407
13099TIP3    H160712   2.708   6.707  14.958  0.0450 -0.2273  0.2308
13099TIP3    H260713   2.609   6.661  15.063 -0.2099 -0.4277 -0.0953
13100TIP3   OH260714   1.770   7.137   2.557  0.4789 -0.0551  0.0134
13100TIP3    H160715   1.696   7.109   2.504 -0.5986  1.8132  0.5023
13100TIP3    H260716   1.765   7.084   2.636 -0.8520  0.6506  0.4166
13101TIP3   OH260717   5.072   0.666   3.263 -0.0896 -0.2585  0.6084
13101TIP3    H160718   5.121   0.636   3.187 -0.0946  1.6939 -0.2026
13101TIP3    H260719   5.123   0.636   3.338  1.4931  0.3450 -0.2042
13102TIP3   OH260720   3.398   6.593   2.696 -0.2733 -0.5178 -0.5277
13102TIP3    H160721   3.376   6.685   2.712 -0.1174 -0.7864  1.3413
13102TIP3    H260722   3.343   6.568   2.622  0.4648  1.3744 -1.7606
13103TIP3   OH260723   0.583   7.204  15.728  0.8088 -0.4228 -0.4743
13103TIP3    H160724   0.614   7.190  15.817 -1.4055  1.6361  0.6921
13103TIP3    H260725   0.643   7.268  15.691  0.7858 -0.0767  0.0898
13104TIP3   OH260726   2.037   4.931   1.827 -0.5349  0.4651 -0.1070
13104TIP3    H160727   1.958   4.886   1.797 -0.5238  0.5572 -0.2800
13104TIP3    H260728   2.019   4.954   1.918 -0.9762  1.0728 -0.3436
13105TIP3   OH260729   3.483   4.274   4.676 -0.0095 -0.9146  0.0976
13105TIP3    H160730   3.491   4.278   4.581 -1.2344  0.3625  0.0360
13105TIP3    H260731   3.407   4.329   4.696 -0.6869 -2.3922  1.6806
13106TIP3   OH260732   3.499   2.258   2.221  0.5260  0.3151 -0.0442
13106TIP3    H160733   3.499   2.347   2.255  1.7015 -0.5353  2.2346
13106TIP3    H260734   3.591   2.233   2.217  0.0740 -2.1194  3.0028
13107TIP3   OH260735   0.742   0.178  15.863  1.0148  0.0043  0.0026
13107TIP3    H160736   0.665   0.235  15.857  0.6436 -0.4880  0.0026
13107TIP3    H260737   0.748   0.136  15.778  0.8853 -0.4636  0.2235
13108TIP3   OH260738   4.638   0.774   2.941  0.5055 -0.0929  0.5232
13108TIP3    H160739   4.590   0.701   2.980  2.4821 -1.3988  0.5847
13108TIP3    H260740   4.730   0.757   2.962  1.0831  2.0648 -0.0513
13109TIP3   OH260741   7.155   2.338   0.237  0.4045  0.1409 -0.2187
13109TIP3    H160742   7.096   2.263   0.233 -1.9448  1.8118  1.3337
13109TIP3    H260743   7.239   2.301   0.264 -0.3340 -2.0933 -0.8837
13110TIP3   OH260744   5.155   3.878   0.695  0.0362  0.6434 -0.3274
13110TIP3    H160745   5.140   3.965   0.659  2.1063  1.3627  0.4384
13110TIP3    H260746   5.191   3.827   0.623 -1.9630  0.1691 -1.0002
13111TIP3   OH260747   5.187   7.088  15.178 -0.1571  0.2749  0.5689
13111TIP3    H160748   5.102   7.045  15.171 -0.5187  0.9897  0.5343
13111TIP3    H260749   5.195   7.111  15.271 -1.0600  2.3258  0.1709
13112TIP3   OH260750   4.167   4.770  15.911  0.0946 -0.1507  0.8475
13112TIP3    H160751   4.179   4.856  15.950 -0.7797  1.0559 -1.4713
13112TIP3    H260752   4.073   4.753  15.919 -0.0009 -0.1431 -0.1778
13113TIP3   OH260753   2.110   0.162   1.839 -0.5309  0.3399 -0.0048
13113TIP3    H160754   2.161   0.083   1.819 -2.5309 -0.6350 -1.4110
13113TIP3    H260755   2.144   0.192   1.923  0.8264 -1.5515  0.1527
13114TIP3   OH260756   0.417   6.113  14.804  0.5732  0.3284  0.4000
13114TIP3    H160757   0.509   6.136  14.790  0.9016 -1.2658 -0.1634
13114TIP3    H260758   0.408   6.026  14.766 -1.7343  1.3943 -1.5824
13115TIP3   OH260759   6.979   4.241   2.805 -0.3117  0.4693 -0.2997
13115TIP3    H160760   6.927   4.303   2.753 -1.1481 -0.4416 -0.5500
13115TIP3    H260761   6.918   4.172   2.830  0.5690 -0.1637  0.1562
13116TIP3   OH260762   6.633   0.735   1.726 -0.2698  0.0076  0.1428
13116TIP3    H160763   6.598   0.824   1.719  2.9177  1.2658 -0.7648
13116TIP3    H260764   6.597   0.689   1.650  0.6394  1.5010 -1.2283
13117TIP3   OH260765   6.485   5.444  15.860 -0.4283  0.2730  0.3735
13117TIP3    H160766   6.490   5.526  15.811  2.1334 -0.4683 -0.6991
13117TIP3    H260767   6.551   5.452  15.929  0.8097 -1.3388 -0.5510
13118TIP3   OH260768   5.330   5.772   5.174 -0.4303  0.0290 -0.3364
13118TIP3    H160769   5.401   5.790   5.236 -0.1133 -0.5000 -0.5419
13118TIP3    H260770   5.266   5.723   5.225  0.1797 -1.0738 -0.6289
13119TIP3   OH260771   5.292   0.046   0.614  0.8309 -0.4996 -0.0374
13119TIP3    H160772   5.223   0.099   0.653  1.9286  1.3051 -0.4881
13119TIP3    H260773   5.248  -0.005   0.546 -0.3566 -0.6850  0.8616
13120TIP3   OH260774   3.111   6.881   0.747  0.3813  0.2252  0.0209
13120TIP3    H160775   3.165   6.938   0.692  0.3505  0.5167  0.2888
13120TIP3    H260776   3.022   6.914   0.734  0.3096 -0.0421 -0.1617
13121TIP3   OH260777   1.351   5.661   1.546  0.0015  0.3769  0.0594
13121TIP3    H160778   1.259   5.659   1.523  1.0572 -1.1994 -4.4899
13121TIP3    H260779   1.364   5.584   1.601 -1.5446  1.1913  1.6175
13122TIP3   OH260780   3.715   6.460  15.420 -0.3074  0.2574 -0.3895
13122TIP3    H160781   3.684   6.543  15.457  0.0010  0.6545 -1.0197
13122TIP3    H260782   3.653   6.441  15.349 -0.6766 -0.3113  0.0828
13123TIP3   OH260783   7.290   0.087   1.182 -0.4143  0.4106  0.0230
13123TIP3    H160784   7.236   0.051   1.253  0.2930 -2.8838 -1.0390
13123TIP3    H260785   7.230   0.096   1.109 -0.3787  0.4290 -0.0036
13124TIP3   OH260786   3.659   1.566  15.317 -0.5032  0.3313  0.4678
13124TIP3    H160787   3.709   1.570  15.236  1.9505  1.3649  1.9992
13124TIP3    H260788   3.648   1.473  15.334  0.2937  0.1010 -0.2496
13125TIP3   OH260789   2.020   5.914   1.483 -0.0026 -0.6523  0.2730
13125TIP3    H160790   1.996   5.968   1.408  1.0094 -1.6591 -0.7858
13125TIP3    H260791   1.972   5.832   1.472  0.1992 -0.8320  0.6916
13126TIP3   OH260792   1.995   1.083   0.298  0.8720 -0.3675 -0.0868
13126TIP3    H160793   2.086   1.091   0.269  0.8783 -0.8307 -0.2129
13126TIP3    H260794   1.948   1.052   0.220  0.8972 -1.6759  0.4038
13127TIP3   OH260795   5.891   6.031   3.039  0.5417 -0.0446  0.0922
13127TIP3    H160796   5.812   6.062   2.994 -0.2646  0.1975  1.6362
13127TIP3    H260797   5.863   5.952   3.084  1.2071 -0.0121  0.5626
13128TIP3   OH260798   4.021   4.356   0.867  0.1724 -0.0817 -0.0530
13128TIP3    H160799   3.993   4.424   0.929 -0.0111  0.4170 -0.6820
13128TIP3    H260800   4.111   4.379   0.846 -0.6886  1.4687 -2.2495
13129TIP3   OH260801   2.890   6.388  14.926 -0.1918 -0.2517 -0.4228
13129TIP3    H160802   2.862   6.336  15.002  1.3880  0.2436  0.5085
13129TIP3    H260803   2.961   6.337  14.887  0.5043  0.5777 -0.2508
13130TIP3   OH260804   5.891   3.738   0.862  0.1287  0.2989  0.0780
13130TIP3    H160805   5.840   3.809   0.825  0.8572 -0.3713 -2.2890
13130TIP3    H260806   5.966   3.728   0.803  0.4306 -1.9233  0.7740
13131TIP3   OH260807   6.935   6.655   2.619 -0.1596  0.2087  0.0251
13131TIP3    H160808   6.886   6.573   2.618 -2.4381  1.5250 -0.2586
13131TIP3    H260809   7.022   6.632   2.586 -0.8046 -2.0504 -0.1627
13132TIP3   OH260810   4.820   6.205   0.614  0.0990 -0.2204  0.3939
13132TIP3    H160811   4.795   6.113   0.622  0.5744 -0.3142  0.8386
13132TIP3    H260812   4.795   6.245   0.697  0.6209 -0.1247  0.5079
13133TIP3   OH260813   4.500   0.124   2.886 -0.2371  0.2211 -0.6537
13133TIP3    H160814   4.504   0.103   2.980  0.2299  1.3770 -0.3996
13133TIP3    H260815   4.424   0.182   2.878 -0.4662 -0.1360 -1.0440
13134TIP3   OH260816   4.689   6.366   3.162  0.1223  0.0372  0.5262
13134TIP3    H160817   4.683   6.354   3.067  0.7676 -1.6928  0.6975
13134TIP3    H260818   4.782   6.373   3.180  0.0867 -1.1653  1.2078
13135TIP3   OH260819   6.338   0.022   2.470  0.3784  0.1402  0.2042
13135TIP3    H160820   6.322  -0.058   2.419 -0.5676 -0.0202  0.7346
13135TIP3    H260821   6.344   0.091   2.405  1.0480 -0.3466 -0.2516
13136TIP3   OH260822   3.866   0.386   0.318 -0.3479 -0.2928 -0.2579
13136TIP3    H160823   3.911   0.308   0.284 -0.0376 -0.5434  0.7024
13136TIP3    H260824   3.774   0.359   0.325 -0.1902 -0.6771  0.3645
13137TIP3   OH260825   5.481   0.036   3.417  0.2524  0.1269  0.1058
13137TIP3    H160826   5.469  -0.058   3.433 -0.6230 -0.1564 -2.0859
13137TIP3    H260827   5.395   0.073   3.436 -0.0060  0.1767 -1.1546
13138TIP3   OH260828   2.101   6.788   0.786  0.5653 -0.8090 -0.3264
13138TIP3    H160829   2.098   6.793   0.882 -1.9442 -1.0500 -0.3598
13138TIP3    H260830   2.020   6.742   0.762  2.9440 -4.1420 -2.3713
13139TIP3   OH260831   1.533   0.637   2.037 -0.3625  0.1156 -0.0806
13139TIP3    H160832   1.443   0.665   2.018  0.4487  2.9755  0.0234
13139TIP3    H260833   1.582   0.659   1.958  0.2219 -1.6332 -0.2155
13140TIP3   OH260834   5.346   2.721   1.150 -0.2840 -0.4534 -0.5938
13140TIP3    H160835   5.367   2.810   1.122  0.9925 -0.3606  0.5659
13140TIP3    H260836   5.327   2.674   1.069  0.8299  0.4300 -1.3881
13141TIP3   OH260837   0.784   0.875   0.254 -0.3414 -0.0179 -0.0176
13141TIP3    H160838   0.769   0.907   0.343 -2.2417 -0.3960 -0.1721
13141TIP3    H260839   0.755   0.947   0.197 -1.0603 -0.5533 -0.3354
13142TIP3   OH260840   3.996   3.191   3.082  0.8764 -0.0032 -0.4793
13142TIP3    H160841   3.956   3.104   3.089 -0.7271  0.6006 -1.8940
13142TIP3    H260842   3.927   3.246   3.045  1.5402  2.1125  1.3094
13143TIP3   OH260843   1.797   1.298   0.078 -0.4292 -0.1105 -0.3293
13143TIP3    H160844   1.704   1.314   0.063 -0.8002 -2.2924 -0.3802
13143TIP3    H260845   1.803   1.206   0.103  1.4838  0.5638  1.8389
13144TIP3   OH260846   5.752   3.520   4.002  0.0502 -0.4600  0.0307
13144TIP3    H160847   5.795   3.488   3.923 -0.7781 -0.7947 -0.2947
13144TIP3    H260848   5.712   3.603   3.975 -1.4141 -1.2485 -0.2984
13145TIP3   OH260849   5.158   6.587   0.960  0.4135 -0.7633  0.0486
13145TIP3    H160850   5.094   6.545   0.902 -0.4664  0.9063 -0.2117
13145TIP3    H260851   5.106   6.619   1.034  0.7541  1.6137 -0.7060
13146TIP3   OH260852   1.831   0.946   2.600 -0.4459  0.1563  0.2622
13146TIP3    H160853   1.835   1.027   2.652 -2.3538 -0.2534  1.0705
13146TIP3    H260854   1.791   0.973   2.517  1.4620  0.5658 -0.5474
13147TIP3   OH260855   4.078   6.299   0.094 -0.8739  0.3736 -0.5390
13147TIP3    H160856   4.100   6.334   0.008 -1.6289 -0.9906 -1.3088
13147TIP3    H260857   4.161   6.299   0.142  0.3216 -2.0985 -2.4726
13148TIP3   OH260858   4.743   0.799  14.729  0.2337  0.1178 -1.0085
13148TIP3    H160859   4.750   0.732  14.660  0.6211 -0.0552 -0.7997
13148TIP3    H260860   4.793   0.873  14.695  0.1472  0.1556 -1.0557
13149TIP3   OH260861   0.648   4.736   3.318  0.0583 -0.8637 -0.0210
13149TIP3    H160862   0.577   4.777   3.368 -0.3487 -1.8428  0.2169
13149TIP3    H260863   0.726   4.749   3.372 -0.0755 -0.4346  0.0696
13150TIP3   OH260864   1.051   6.723  15.789  0.2677 -0.3544 -0.0789
13150TIP3    H160865   1.059   6.748  15.881 -1.2520  0.6535 -0.1879
13150TIP3    H260866   1.013   6.635  15.792  1.9935 -1.1007  0.2678
13151TIP3   OH260867   2.226   5.043   0.417  0.2627  0.3267  0.3008
13151TIP3    H160868   2.162   4.972   0.405 -1.0101  1.4429  0.3855
13151TIP3    H260869   2.308   5.006   0.385 -0.3132 -1.3124  0.6748
13152TIP3   OH260870   1.541   6.364   0.829  0.0661 -0.3732 -0.5868
13152TIP3    H160871   1.486   6.315   0.889 -1.3596 -0.1417 -1.6594
13152TIP3    H260872   1.496   6.448   0.820  1.2284  0.2505 -0.5744
13153TIP3   OH260873   2.677   1.262   0.920  0.3613 -0.4729  0.9608
13153TIP3    H160874   2.664   1.167   0.918  1.5361 -0.6321  0.6077
13153TIP3    H260875   2.770   1.274   0.901  0.3094  0.7319  1.4302
13154TIP3   OH260876   2.503   3.027  14.850  0.7523 -0.5890 -0.3846
13154TIP3    H160877   2.532   2.980  14.928  0.4694  1.3574  0.9149
13154TIP3    H260878   2.583   3.057  14.808  0.7855  2.3342  1.6699
13155TIP3   OH260879   4.517   5.314  15.750 -0.0501  0.5635 -0.2995
13155TIP3    H160880   4.485   5.316  15.840  1.1598  0.3196  0.1342
13155TIP3    H260881   4.459   5.252  15.706  1.3805 -1.7881  1.0886
13156TIP3   OH260882   3.866   4.074  13.978 -0.1582  0.0762 -0.2764
13156TIP3    H160883   3.776   4.088  13.949 -0.0001  0.8960 -0.4042
13156TIP3    H260884   3.881   4.145  14.042 -0.1048 -0.9666  0.8905
13157TIP3   OH260885   2.473   3.532   3.511 -0.3874 -0.0065 -0.0242
13157TIP3    H160886   2.452   3.493   3.426  0.2242 -0.3084 -0.0439
13157TIP3    H260887   2.494   3.457   3.567  1.2339  0.2951 -0.1840
13158TIP3   OH260888   3.994   5.487   1.336 -0.1955  0.0210  0.3514
13158TIP3    H160889   3.930   5.417   1.325 -0.3961  0.0406  1.2855
13158TIP3    H260890   4.050   5.457   1.408  1.1672 -0.2265 -0.7936
13159TIP3   OH260891   5.389   0.856   1.457  0.1064 -0.2920  0.2796
13159TIP3    H160892   5.481   0.833   1.465 -0.3265 -1.5257  1.9647
13159TIP3    H260893   5.342   0.774   1.471 -1.2699  0.3417 -0.4204
13160TIP3   OH260894   6.817   6.447  15.651  0.4052  0.5922 -0.4667
13160TIP3    H160895   6.745   6.495  15.609 -0.5403 -0.2152  0.2208
13160TIP3    H260896   6.800   6.355  15.630  2.0200  0.5145 -1.4874
13161TIP3   OH260897   2.410   4.610   2.369  0.1605  0.0473 -0.1885
13161TIP3    H160898   2.377   4.690   2.411  0.7510  0.0125  0.3400
13161TIP3    H260899   2.337   4.580   2.315 -0.8179 -0.2145  1.2353
13162TIP3   OH260900   6.212   6.678   0.682  0.0273  0.7301  0.3271
13162TIP3    H160901   6.305   6.656   0.683 -0.1312  0.0792  0.8091
13162TIP3    H260902   6.210   6.774   0.690  0.6332  0.6732  1.2121
13163TIP3   OH260903   3.143   2.157   3.411  1.0040  0.1357  0.6471
13163TIP3    H160904   3.086   2.228   3.380 -0.1080  0.2573  2.9169
13163TIP3    H260905   3.225   2.171   3.364  0.4004  2.2057  0.1459
13164TIP3   OH260906   4.965   1.049   0.153  0.0448 -0.1620 -0.0162
13164TIP3    H160907   4.912   0.989   0.102  1.3183 -1.8525  0.5833
13164TIP3    H260908   4.991   0.999   0.230  3.0266  0.3692 -0.6122
13165TIP3   OH260909   5.575   7.115  13.759 -0.0422  0.3317 -0.2259
13165TIP3    H160910   5.505   7.064  13.799 -0.4189  0.9182 -0.1194
13165TIP3    H260911   5.640   7.051  13.733 -0.5765 -0.2134 -0.2301
13166TIP3   OH260912   0.895   0.147  14.499 -0.3344 -0.6614  0.3882
13166TIP3    H160913   0.857   0.229  14.531 -1.1396 -0.3958 -1.1707
13166TIP3    H260914   0.818   0.093  14.477  0.1906 -0.6182 -1.5878
13167TIP3   OH260915   2.725   5.210   0.262  0.6762 -0.9385 -0.1498
13167TIP3    H160916   2.735   5.230   0.169  1.5749 -1.3795 -0.1463
13167TIP3    H260917   2.813   5.188   0.292  0.4270 -0.5717  0.8642
13168TIP3   OH260918   5.457   0.112   1.612  1.1167 -0.0522  0.1906
13168TIP3    H160919   5.388   0.100   1.546  1.2811 -0.7339  0.1297
13168TIP3    H260920   5.411   0.123   1.694  0.8324  3.4919 -0.3966
13169TIP3   OH260921   3.780   6.108   1.051  0.0861 -0.2608  0.8585
13169TIP3    H160922   3.739   6.057   1.121 -0.2596  0.9296  1.5344
13169TIP3    H260923   3.813   6.186   1.095 -0.3773  0.6262 -0.3594
13170TIP3   OH260924   2.524   2.854   1.988 -0.4877 -0.1611 -0.6683
13170TIP3    H160925   2.587   2.810   2.045 -0.5000  1.2817  0.4803
13170TIP3    H260926   2.577   2.916   1.938 -0.7745 -0.0451 -0.8251
13171TIP3   OH260927   4.551   6.179   3.292  0.1723 -0.5050 -0.1544
13171TIP3    H160928   4.615   6.141   3.351  0.0874 -1.2762 -0.5574
13171TIP3    H260929   4.603   6.219   3.222  0.2915  0.8073  0.6669
13172TIP3   OH260930   4.829   0.074   0.082 -0.2956 -0.0536  0.5810
13172TIP3    H160931   4.754   0.017   0.064 -1.1542  1.2375 -0.0520
13172TIP3    H260932   4.817   0.101   0.173  0.4525 -1.3619  1.0776
13173TIP3   OH260933   6.632   2.206   2.354  0.2326 -0.0196 -0.0386
13173TIP3    H160934   6.589   2.140   2.409  2.1114 -0.0555  1.4394
13173TIP3    H260935   6.562   2.266   2.330 -1.0390 -1.2112  0.6308
13174TIP3   OH260936   4.839   1.236  13.678 -0.3550  0.1939  0.1390
13174TIP3    H160937   4.914   1.189  13.642  0.8355  1.0172  1.5076
13174TIP3    H260938   4.773   1.234  13.608  0.9279 -0.5448 -1.0591
13175TIP3   OH260939   3.988   2.991   2.680 -0.6101  0.1599  0.3739
13175TIP3    H160940   3.920   2.936   2.640 -1.8158  1.5497  0.4775
13175TIP3    H260941   4.023   2.937   2.750 -0.3404 -1.2767 -0.8350
13176TIP3   OH260942   2.650   6.515  15.868 -0.2321  0.2601 -0.0658
13176TIP3    H160943   2.736   6.548  15.844  0.1205  0.6619  1.6738
13176TIP3    H260944   2.632   6.446  15.805  2.0340 -0.8368  0.4393
13177TIP3   OH260945   2.915   4.303   0.654 -0.1534 -0.3608 -0.3971
13177TIP3    H160946   2.919   4.334   0.745 -3.1266  0.0882 -0.3848
13177TIP3    H260947   2.840   4.349   0.616 -0.3511 -2.2752 -2.4354
13178TIP3   OH260948   0.272   4.343   2.306  0.5868 -0.1200 -0.0594
13178TIP3    H160949   0.267   4.277   2.236 -1.3719 -0.1355  0.0455
13178TIP3    H260950   0.312   4.297   2.379 -1.4162 -1.4678  0.2495
13179TIP3   OH260951   2.889   1.948   2.024 -0.3900 -0.3555  0.2420
13179TIP3    H160952   2.931   1.922   2.106 -1.1085  0.6809  0.9690
13179TIP3    H260953   2.847   1.869   1.992 -2.6631 -0.1226  2.4676
13180TIP3   OH260954   4.996   7.178  15.959 -0.7112  0.0871  0.4038
13180TIP3    H160955   4.962   7.263  15.986 -1.7313 -0.9609  2.5869
13180TIP3    H260956   4.947   7.157  15.879 -0.8234  1.3197  0.1471
13181TIP3   OH260957   5.863   6.459   2.928 -0.1125 -0.7517  0.2235
13181TIP3    H160958   5.958   6.471   2.932 -0.0600 -0.8170 -0.7889
13181TIP3    H260959   5.850   6.390   2.863 -0.7817 -1.7664  1.3998
13182TIP3   OH260960   2.055   5.230   3.657 -0.5746 -0.3833  0.5915
13182TIP3    H160961   1.988   5.175   3.618 -0.9961  1.3905 -1.2280
13182TIP3    H260962   2.126   5.232   3.592  0.1440 -0.1349  1.3705
13183TIP3   OH260963   2.017   6.294   3.099  0.2474 -0.3737  0.2470
13183TIP3    H160964   1.933   6.313   3.056  1.5040 -0.5152 -2.3534
13183TIP3    H260965   1.992   6.262   3.186 -2.3317  1.1982  0.1491
13184TIP3   OH260966   3.393   5.207   1.428  0.3011  0.2286 -0.4623
13184TIP3    H160967   3.311   5.219   1.475 -0.1381 -1.1826 -0.8166
13184TIP3    H260968   3.402   5.285   1.374  1.0597  2.0893  2.2755
13185TIP3   OH260969   6.877   6.037   2.694 -0.4258  0.1116  0.1278
13185TIP3    H160970   6.957   5.984   2.693 -0.1957  0.4879 -2.1162
13185TIP3    H260971   6.807   5.973   2.713 -0.1259 -1.0106 -2.3555
13186TIP3   OH260972   6.217   4.013   0.061  0.3896 -0.2374 -0.5936
13186TIP3    H160973   6.130   4.052   0.051  0.2511 -0.2972  0.3702
13186TIP3    H260974   6.238   4.024   0.154  0.9190 -1.2537 -0.5835
13187TIP3   OH260975   4.638   5.395   1.803 -0.2577  0.1280 -0.1273
13187TIP3    H160976   4.687   5.328   1.756  0.9670 -0.5123  2.0214
13187TIP3    H260977   4.569   5.347   1.849  0.7936  0.2716  1.6406
13188TIP3   OH260978   1.203   5.913  15.161 -0.5979 -0.5513  0.3712
13188TIP3    H160979   1.211   5.914  15.066 -2.5414  1.6685  0.1758
13188TIP3    H260980   1.280   5.963  15.191 -0.6496 -0.1777 -0.1066
13189TIP3   OH260981   4.243   0.785   5.325  0.3243  0.9222  0.9077
13189TIP3    H160982   4.203   0.699   5.310 -0.4721  1.1127  1.8965
13189TIP3    H260983   4.204   0.842   5.259  0.4039  0.6614  0.6355
13190TIP3   OH260984   3.711   5.284   0.851  0.3128 -0.7503 -0.0694
13190TIP3    H160985   3.742   5.366   0.889 -1.8184 -1.0246  2.3678
13190TIP3    H260986   3.777   5.220   0.875  0.5239 -0.3137  0.5199
13191TIP3   OH260987   5.726   5.492   0.252 -0.0167 -0.3288 -0.4516
13191TIP3    H160988   5.774   5.571   0.279  0.2240 -0.6070 -0.0734
13191TIP3    H260989   5.646   5.494   0.305 -0.5602  0.2800 -1.2739
13192TIP3   OH260990   6.601   7.114   0.298 -0.1327  0.4653  0.0894
13192TIP3    H160991   6.540   7.167   0.245  0.2594  0.2892 -0.5470
13192TIP3    H260992   6.645   7.058   0.234 -0.0382 -0.1353  0.6782
13193TIP3   OH260993   1.185   1.321   1.152  0.2013 -0.1344  0.5477
13193TIP3    H160994   1.143   1.247   1.195  0.3594 -0.6738 -0.2102
13193TIP3    H260995   1.204   1.383   1.222 -0.9592 -0.3203  1.0249
13194TIP3   OH260996   3.934   7.186  15.565  0.2407 -0.4266 -0.2876
13194TIP3    H160997   3.961   7.276  15.584  0.1425 -0.4802  0.1078
13194TIP3    H260998   3.850   7.195  15.521 -0.3826 -0.3806  0.8954
13195TIP3   OH260999   5.066   7.069   2.902 -0.1659  0.3673  0.1048
13195TIP3    H161000   5.068   6.988   2.850 -0.3303 -0.1488  0.8914
13195TIP3    H261001   4.984   7.064   2.951 -0.1835  1.0192  0.1401
13196TIP3   OH261002   5.615   5.645   0.630 -0.1506 -0.1166  0.4081
13196TIP3    H161003   5.567   5.703   0.690 -0.2076  0.9343 -0.6391
13196TIP3    H261004   5.692   5.618   0.680  0.1067  1.2164  0.7569
13197TIP3   OH261005   0.895   0.175   1.701  0.2095 -0.2175  0.0542
13197TIP3    H161006   0.899   0.212   1.613 -0.1221  2.1664  1.0215
13197TIP3    H261007   0.827   0.108   1.696 -1.1094  1.1915 -1.0341
13198TIP3   OH261008   2.709   5.760  15.071  0.2667 -0.2645  0.0222
13198TIP3    H161009   2.733   5.752  15.164 -0.2231  0.4121  0.2136
13198TIP3    H261010   2.793   5.765  15.025  0.5108 -0.2433  0.4692
13199TIP3   OH261011   0.939   6.360   3.561  0.4391 -0.0918 -0.1769
13199TIP3    H161012   0.966   6.297   3.628 -0.2264 -0.1351  0.0498
13199TIP3    H261013   0.876   6.312   3.508  0.2547  0.2502 -0.2636
13200TIP3   OH261014   0.144   4.639   2.590 -0.2941  0.0314  0.3758
13200TIP3    H161015   0.066   4.582   2.593 -1.0573  1.0207 -0.4517
13200TIP3    H261016   0.218   4.578   2.601 -1.0441 -1.2675 -1.5285
13201TIP3   OH261017   3.488   5.973   1.529  0.3639 -0.1946 -0.0295
13201TIP3    H161018   3.461   5.881   1.528 -0.5564  0.0251  1.7574
13201TIP3    H261019   3.414   6.020   1.490  1.0800 -0.2640 -1.4819
13202TIP3   OH261020   0.235   6.318   0.724 -0.1247 -0.2367 -1.1584
13202TIP3    H161021   0.259   6.407   0.697  1.1871  0.4283  2.0178
13202TIP3    H261022   0.147   6.328   0.761  0.0041 -0.2544 -0.8455
13203TIP3   OH261023   2.864   0.855   2.741  0.1017 -0.8231 -0.1012
13203TIP3    H161024   2.866   0.762   2.763 -0.5459 -0.9351 -0.4904
13203TIP3    H261025   2.922   0.896   2.804  0.1516 -1.4536  0.2682
13204TIP3   OH261026   0.491   3.419   0.428  0.0414  0.1401 -0.2212
13204TIP3    H161027   0.404   3.379   0.422  0.2415  0.1098 -4.5367
13204TIP3    H261028   0.482   3.503   0.382  2.4945 -0.3262 -1.6226
13205TIP3   OH261029   4.261   5.886   6.026  0.6016  0.2034 -0.7136
13205TIP3    H161030   4.243   5.968   5.981 -1.3646  0.4646  0.5013
13205TIP3    H261031   4.323   5.910   6.095 -0.8053  0.9103  0.3365
13206TIP3   OH261032   3.788   6.635   1.243 -0.1996  0.2605  0.7812
13206TIP3    H161033   3.858   6.685   1.200  0.9154 -0.7728  1.3795
13206TIP3    H261034   3.750   6.582   1.173  0.9385 -0.6566  0.8503
13207TIP3   OH261035   3.698   3.997   0.586  0.0991 -0.1592 -1.0601
13207TIP3    H161036   3.786   4.011   0.622 -1.4935  1.7532  2.3264
13207TIP3    H261037   3.661   3.926   0.639 -0.6327 -0.5751 -2.0984
13208TIP3   OH261038   1.823   6.507   1.419  0.1993 -0.3648  0.4132
13208TIP3    H161039   1.778   6.585   1.453  0.9863 -0.7282  2.3645
13208TIP3    H261040   1.818   6.516   1.324  0.3764  2.1262  0.5947
13209TIP3   OH261041   3.847   6.089  15.117  0.1077  0.7169 -0.0631
13209TIP3    H161042   3.830   6.019  15.054  0.3674 -0.6919  1.3824
13209TIP3    H261043   3.942   6.096  15.121  0.2779 -1.8588  2.9014
13210TIP3   OH261044   1.075   5.905   5.160  0.5788  0.1515 -0.8594
13210TIP3    H161045   1.052   5.954   5.081 -0.1492  0.3864 -0.5061
13210TIP3    H261046   1.146   5.956   5.201  1.6863 -0.5229 -1.9034
13211TIP3   OH261047   3.016   1.186  13.548 -0.0657  0.3722 -0.0836
13211TIP3    H161048   3.024   1.246  13.474 -0.0435 -0.4753 -0.7810
13211TIP3    H261049   2.922   1.184  13.567 -0.0574  0.6884 -0.0075
13212TIP3   OH261050   4.496   2.260  15.582  0.3044 -0.1882  0.3245
13212TIP3    H161051   4.461   2.313  15.654 -2.2636  0.0318 -1.0153
13212TIP3    H261052   4.524   2.323  15.516 -0.2120 -0.4381 -0.1374
13213TIP3   OH261053   1.107   5.748  15.343  0.2038  0.2385 -0.1472
13213TIP3    H161054   1.137   5.799  15.268 -0.1679  1.1027  0.2805
13213TIP3    H261055   1.047   5.684  15.306 -0.1295  0.7915 -0.5673
13214TIP3   OH261056   2.007   0.768   3.112 -0.0988 -0.0144  0.4797
13214TIP3    H161057   2.022   0.808   3.027  2.8863 -0.0119  0.9371
13214TIP3    H261058   2.003   0.841   3.173  4.0762 -0.1923  1.1370
13215TIP3   OH261059   2.175   6.354   1.623 -0.3866 -0.0723 -0.0346
13215TIP3    H161060   2.160   6.330   1.532  2.4438  0.9934 -0.8336
13215TIP3    H261061   2.198   6.272   1.667  0.8035 -0.2000 -0.8757
13216TIP3   OH261062   5.559   6.119  15.913 -0.5024  0.1294 -0.7738
13216TIP3    H161063   5.627   6.056  15.891 -0.4992 -0.2118  0.2284
13216TIP3    H261064   5.589   6.160  15.994 -1.6160 -0.2032 -0.1852
13217TIP3   OH261065   5.199   2.259  15.352  0.1919 -0.6400  0.2214
13217TIP3    H161066   5.156   2.223  15.274 -0.4607 -0.0434  0.3027
13217TIP3    H261067   5.128   2.297  15.404  0.6512 -0.8255  0.9960
13218TIP3   OH261068   2.420   0.436  13.616  0.4949  0.1248  0.4147
13218TIP3    H161069   2.355   0.463  13.681  0.4717 -2.4326  1.4889
13218TIP3    H261070   2.502   0.429  13.666  0.6616 -0.9919 -0.0061
13219TIP3   OH261071   4.015   6.143   3.465  0.7954 -0.3483  0.5096
13219TIP3    H161072   3.950   6.091   3.511 -1.5609 -1.0000 -3.3154
13219TIP3    H261073   4.066   6.080   3.415  2.7419  0.3976  1.5057
13220TIP3   OH261074   0.198   6.579   0.455  0.0077 -0.4097 -0.0927
13220TIP3    H161075   0.209   6.650   0.517  0.1595  1.7434 -2.4930
13220TIP3    H261076   0.281   6.531   0.457 -0.1027 -0.5426  1.5330
13221TIP3   OH261077   4.911   5.838  15.914  0.5266  0.5085  0.6957
13221TIP3    H161078   4.822   5.855  15.948  0.4061 -0.8831  1.0875
13221TIP3    H261079   4.901   5.845  15.819  0.4227  2.3333  0.8191
13222TIP3   OH261080   6.701   5.858   0.586  0.3200 -0.6150 -0.2457
13222TIP3    H161081   6.654   5.850   0.503 -2.1738  1.1923  0.9359
13222TIP3    H261082   6.787   5.891   0.561 -0.3965 -0.0735 -2.1345
13223TIP3   OH261083   5.476   4.498  12.166 -0.0593 -0.0572  0.4531
13223TIP3    H161084   5.383   4.517  12.155 -0.2363 -1.4583 -0.7878
13223TIP3    H261085   5.511   4.571  12.217 -0.8866  2.9628 -3.0350
13224TIP3   OH261086   4.152   6.613   1.427 -0.3336 -0.1611 -0.5233
13224TIP3    H161087   4.099   6.646   1.500 -0.3611 -0.3952 -0.4380
13224TIP3    H261088   4.243   6.626   1.455 -0.3432  0.0995 -0.6064
13225TIP3   OH261089   5.921   7.243   0.216  0.0272  0.1004  0.7732
13225TIP3    H161090   5.858   7.192   0.268  1.0577 -2.4851 -0.4186
13225TIP3    H261091   5.891   7.233   0.126  0.0174  1.9938  0.5459
13226TIP3   OH261092   2.709   3.349  12.898 -0.0979 -0.2326 -0.0717
13226TIP3    H161093   2.724   3.443  12.905  0.8407 -0.3012 -0.9622
13226TIP3    H261094   2.733   3.314  12.984 -1.0847  0.4158  0.4675
13227TIP3   OH261095   0.927   1.408   1.557 -0.2455 -0.5413  0.3006
13227TIP3    H161096   0.998   1.387   1.496 -0.3301 -0.7079  0.2600
13227TIP3    H261097   0.889   1.324   1.580  1.3381 -0.7038  2.4820
13228TIP3   OH261098   5.068   5.092  13.230 -0.1531  0.0750 -0.0806
13228TIP3    H161099   4.982   5.091  13.272  0.1978  0.4480  0.6689
13228TIP3    H261100   5.121   5.148  13.287 -0.1835  2.2271 -2.1291
13229TIP3   OH261101   4.722   1.166   4.523 -0.1762 -0.0570 -0.1992
13229TIP3    H161102   4.633   1.176   4.556 -0.3879 -1.4906 -0.3439
13229TIP3    H261103   4.719   1.203   4.435 -1.4508 -3.0879 -1.4821
13230TIP3   OH261104   2.512   6.272   0.484  0.6569 -0.5334 -1.1140
13230TIP3    H161105   2.417   6.287   0.483  0.6147 -0.5317  0.3883
13230TIP3    H261106   2.550   6.358   0.468  0.3905 -0.2117 -0.1070
13231TIP3   OH261107   3.791   2.811   2.912  0.4624 -0.1822 -0.1862
13231TIP3    H161108   3.879   2.848   2.924  0.2806  0.0863  0.3766
13231TIP3    H261109   3.785   2.792   2.819  0.1740  2.2313 -0.6878
13232TIP3   OH261110   2.517   2.784   4.188 -0.0312  0.0014 -0.0765
13232TIP3    H161111   2.481   2.865   4.151  1.4460  0.6176 -0.1916
13232TIP3    H261112   2.588   2.760   4.129  0.4571 -0.6129  0.7557
13233TIP3   OH261113   5.086   1.274   1.663 -0.1003  0.1971  0.2614
13233TIP3    H161114   5.181   1.260   1.670 -0.1363 -0.1395  0.1017
13233TIP3    H261115   5.048   1.196   1.703 -0.3116  0.5142  0.6792
13234TIP3   OH261116   5.781   2.356   4.336  0.0778  0.0969 -0.6115
13234TIP3    H161117   5.855   2.295   4.331 -0.4999 -0.6420 -0.2062
13234TIP3    H261118   5.749   2.348   4.425 -1.7302 -1.0586 -1.3363
13235TIP3   OH261119   5.050   6.227   5.894 -0.2140 -0.2673  0.6474
13235TIP3    H161120   5.066   6.274   5.975 -1.6804 -1.5631  1.7093
13235TIP3    H261121   5.066   6.135   5.916  3.8809 -0.2428 -1.7095
13236TIP3   OH261122   6.117   6.118   3.486  0.4457 -0.3282 -0.2525
13236TIP3    H161123   6.128   6.069   3.568 -0.6229 -0.9032 -0.4427
13236TIP3    H261124   6.036   6.083   3.448 -1.2830  2.7085  0.4254
13237TIP3   OH261125   4.442   0.033   3.771  0.4939 -0.4625  0.0479
13237TIP3    H161126   4.506   0.104   3.762  0.0513  0.1743  1.6520
13237TIP3    H261127   4.425   0.029   3.865 -2.5554  0.0284 -0.4479
13238TIP3   OH261128   2.163   6.123   0.844  0.5904  0.4395  0.3700
13238TIP3    H161129   2.216   6.087   0.915  0.3930  0.0318  0.3095
13238TIP3    H261130   2.204   6.090   0.764  1.2976  1.5490  0.2570
13239TIP3   OH261131   7.160   6.218  15.923 -0.0012  0.6473  0.1298
13239TIP3    H161132   7.070   6.209  15.953  0.2823 -0.0477  0.7865
13239TIP3    H261133   7.173   6.312  15.912 -0.7085  0.7679  0.3150
13240TIP3   OH261134   3.838   6.479   2.863  0.2278  0.1514  0.4832
13240TIP3    H161135   3.859   6.515   2.777 -0.4622 -1.5842 -0.4289
13240TIP3    H261136   3.878   6.540   2.925  0.6645  1.4597 -1.0569
13241TIP3   OH261137   3.070   1.688  15.163 -0.1063  0.1484  0.0899
13241TIP3    H161138   3.129   1.631  15.113  0.9606 -0.6165  2.1867
13241TIP3    H261139   2.994   1.633  15.183 -0.1834  0.2216  0.0020
13242TIP3   OH261140   3.527   0.829   1.724 -0.2257  0.2340 -0.0950
13242TIP3    H161141   3.618   0.813   1.749  0.2484  0.6295 -1.5157
13242TIP3    H261142   3.518   0.924   1.726 -0.6889  0.1795  0.3300
13243TIP3   OH261143   4.245   1.044  13.378  0.8157  0.5424 -0.0959
13243TIP3    H161144   4.212   0.985  13.310  0.0919  2.1595 -1.1856
13243TIP3    H261145   4.306   1.102  13.332  1.8999  0.3195  1.0589
13244TIP3   OH261146   3.148   4.671   2.106 -0.5379 -0.3892  0.1249
13244TIP3    H161147   3.134   4.693   2.198  1.2624 -0.1600  0.3649
13244TIP3    H261148   3.223   4.612   2.107 -1.3719 -1.5104 -1.0874
13245TIP3   OH261149   3.784   5.325   1.221 -0.0938 -0.2545 -0.3507
13245TIP3    H161150   3.761   5.415   1.200 -2.5521 -0.6337  0.4603
13245TIP3    H261151   3.717   5.272   1.177 -1.1096 -1.4231  2.4790
13246TIP3   OH261152   7.110   5.665   3.133  0.4492 -0.5041 -0.2640
13246TIP3    H161153   7.104   5.569   3.139  2.1276 -0.5728  0.6664
13246TIP3    H261154   7.156   5.691   3.212  1.2824  0.9546 -1.1999
13247TIP3   OH261155   4.146   5.640   3.705 -0.0540 -0.4497  1.0617
13247TIP3    H161156   4.201   5.562   3.702  3.0398  1.6224  0.9435
13247TIP3    H261157   4.095   5.638   3.624  0.2603 -2.1565  0.8992
13248TIP3   OH261158   1.748   6.841   0.654 -0.0257 -0.6282 -0.5336
13248TIP3    H161159   1.718   6.904   0.720  0.0193  0.3669 -1.4535
13248TIP3    H261160   1.668   6.798   0.624 -0.4388  1.1304 -2.0700
13249TIP3   OH261161   7.179   5.345  13.298  0.0657 -0.5197  0.0266
13249TIP3    H161162   7.168   5.329  13.204 -1.0933  0.9737 -0.1009
13249TIP3    H261163   7.162   5.259  13.338  0.1576 -1.0789 -1.0894
13250TIP3   OH261164   6.209   5.152   0.862 -0.4786 -0.1815 -0.2807
13250TIP3    H161165   6.192   5.209   0.788 -1.2002  1.8501  1.3982
13250TIP3    H261166   6.298   5.174   0.889 -0.5739 -0.2011  0.0546
13251TIP3   OH261167   2.930   5.769  15.264  0.2417  0.5858 -0.1653
13251TIP3    H161168   3.017   5.742  15.293 -0.1666 -0.7962 -0.1915
13251TIP3    H261169   2.896   5.822  15.336  1.2311  1.4072 -0.2962
13252TIP3   OH261170   1.357   6.207   4.333  0.1501 -0.0382 -0.0293
13252TIP3    H161171   1.367   6.296   4.367 -2.1849 -0.5039  2.0024
13252TIP3    H261172   1.407   6.153   4.394 -0.2672 -0.3697  0.0160
13253TIP3   OH261173   7.052   6.218   2.270  0.0114 -1.0928  0.5934
13253TIP3    H161174   7.105   6.191   2.345  1.9676 -2.0491 -1.0757
13253TIP3    H261175   7.050   6.314   2.276  2.2795 -1.0109  0.5013
13254TIP3   OH261176   0.593   7.141  15.049  0.2241 -0.0432  0.0636
13254TIP3    H161177   0.612   7.048  15.064 -1.1868 -0.5003 -0.8631
13254TIP3    H261178   0.623   7.157  14.960 -0.1827  0.2045 -0.0295
13255TIP3   OH261179   2.437   0.724  15.024  0.1342 -0.7362 -0.4584
13255TIP3    H161180   2.501   0.663  15.059  0.0014  1.0558  3.2764
13255TIP3    H261181   2.485   0.807  15.017 -1.1777  0.1144  0.3712
13256TIP3   OH261182   5.873   0.576   3.338 -0.5612 -0.1434 -0.0016
13256TIP3    H161183   5.844   0.611   3.422 -1.5094  0.1571 -0.4408
13256TIP3    H261184   5.812   0.504   3.320  0.9720 -1.6026  0.5893
13257TIP3   OH261185   5.375   6.827  15.321  0.4268 -0.2928  0.3535
13257TIP3    H161186   5.390   6.917  15.351 -0.3429  0.0587 -0.3015
13257TIP3    H261187   5.463   6.788  15.319  0.7383  0.3659  0.8763
13258TIP3   OH261188   6.292   7.252   3.058  0.0278 -0.0180 -0.1335
13258TIP3    H161189   6.306   7.280   2.968  1.0317  0.3875  0.1499
13258TIP3    H261190   6.292   7.333   3.109  1.3941 -0.3924  0.4833
13259TIP3   OH261191   4.494   0.091   1.933  0.3552 -0.4642 -0.2445
13259TIP3    H161192   4.532   0.176   1.954  0.2123  0.2741 -2.7963
13259TIP3    H261193   4.563   0.028   1.954  0.6847  0.3131  1.0736
13260TIP3   OH261194   0.327   0.141   1.430  0.0990  0.2396  0.7023
13260TIP3    H161195   0.321   0.150   1.335  1.4336 -0.4201  0.5448
13260TIP3    H261196   0.363   0.053   1.444  1.0296  0.7735  1.7720
13261TIP3   OH261197   5.350   6.865   2.318  0.0987  0.6180  0.2271
13261TIP3    H161198   5.258   6.888   2.304  0.1744  0.9509  0.2750
13261TIP3    H261199   5.397   6.948   2.312  0.4221  0.4196 -0.0063
13262TIP3   OH261200   5.984   1.176   0.849 -0.1536  0.0268 -0.4264
13262TIP3    H161201   5.930   1.097   0.848 -2.5804  1.5324  2.2655
13262TIP3    H261202   5.999   1.194   0.942  1.7864  1.8132 -1.0362
13263TIP3   OH261203   7.236   5.004  13.249  0.8716  1.0490 -0.1568
13263TIP3    H161204   7.143   4.993  13.232  1.4308 -1.5923 -1.8303
13263TIP3    H261205   7.241   5.022  13.343 -1.2297 -0.3131  0.2579
13264TIP3   OH261206   5.320   3.737  13.942 -0.1430  0.0586  0.2284
13264TIP3    H161207   5.387   3.705  13.881 -0.7682  0.5090 -0.7140
13264TIP3    H261208   5.298   3.660  13.995 -0.3206 -0.6215 -0.8038
13265TIP3   OH261209   2.265   2.623   1.363  0.1024 -0.5153 -0.2578
13265TIP3    H161210   2.341   2.670   1.330  0.4414 -0.6790  0.2815
13265TIP3    H261211   2.208   2.613   1.287  0.7515 -0.6566 -0.7295
13266TIP3   OH261212   2.934   5.696   3.050  0.6687 -0.3075  0.0247
13266TIP3    H161213   2.969   5.784   3.044 -0.3461  0.2355  1.8493
13266TIP3    H261214   3.011   5.639   3.057  1.3518  0.3267 -1.9321
13267TIP3   OH261215   5.420   6.113  15.077  0.5956 -0.1692 -0.2137
13267TIP3    H161216   5.464   6.082  15.156 -1.2772 -0.0483  0.9019
13267TIP3    H261217   5.337   6.065  15.074 -0.4595  1.6093 -0.7498
13268TIP3   OH261218   1.199   6.163   3.570  0.2819  0.6558 -0.0327
13268TIP3    H161219   1.248   6.102   3.624  0.9554 -0.0631 -1.4418
13268TIP3    H261220   1.220   6.249   3.607 -0.4729  0.0854  1.7921
13269TIP3   OH261221   5.821   2.028   1.742 -0.3224 -0.0822  0.6258
13269TIP3    H161222   5.781   2.112   1.721 -0.8939 -0.4312  0.3320
13269TIP3    H261223   5.878   2.009   1.668 -2.8871 -1.6675 -1.0096
13270TIP3   OH261224   5.968   2.902   3.092 -0.3631  0.6406 -0.4481
13270TIP3    H161225   5.899   2.908   3.158 -1.0219 -0.9217 -0.9576
13270TIP3    H261226   5.922   2.903   3.008  0.3234  0.7744 -0.8303
13271TIP3   OH261227   7.086   4.564   1.295 -0.6448 -0.1840  0.3445
13271TIP3    H161228   7.162   4.510   1.315 -0.0503  0.0159 -1.2886
13271TIP3    H261229   7.090   4.635   1.359  0.3206 -0.3855  0.5204
13272TIP3   OH261230   3.898   6.764   0.761  0.0885 -0.4413  0.8158
13272TIP3    H161231   3.983   6.722   0.750 -0.4373 -0.8454 -1.7858
13272TIP3    H261232   3.858   6.763   0.674 -3.1802 -1.5099  2.2556
13273TIP3   OH261233   6.770   5.402  15.304 -0.3106 -0.1351 -0.6814
13273TIP3    H161234   6.832   5.476  15.302 -0.1348 -0.3024 -1.6113
13273TIP3    H261235   6.799   5.345  15.233 -0.2400 -1.2700  0.2447
13274TIP3   OH261236   3.958   7.030   1.384 -0.4527 -0.4965  0.0474
13274TIP3    H161237   3.887   7.094   1.386  0.1426  0.1767 -0.1072
13274TIP3    H261238   4.004   7.048   1.303  0.8738  0.1529  0.9261
13275TIP3   OH261239   3.580   0.283  14.656  0.0022  0.0924  0.1234
13275TIP3    H161240   3.572   0.205  14.602  0.3030  0.8292 -1.0047
13275TIP3    H261241   3.493   0.324  14.651 -0.2531 -0.3410  0.9826
13276TIP3   OH261242   2.689   1.517   2.391 -0.8408 -0.1072 -0.6762
13276TIP3    H161243   2.750   1.573   2.343 -0.3467  0.3087  0.4071
13276TIP3    H261244   2.737   1.435   2.404 -0.4229  0.2894  0.3474
13277TIP3   OH261245   4.886   6.958   0.067  0.1977 -0.0503 -0.2863
13277TIP3    H161246   4.834   6.905   0.006  0.8514 -0.1740 -0.7425
13277TIP3    H261247   4.935   7.017   0.010 -0.6628  1.1840  0.2255
13278TIP3   OH261248   6.198   5.931   0.038  0.4753  0.0181 -0.1614
13278TIP3    H161249   6.104   5.919   0.046  0.5481  0.5079  1.6763
13278TIP3    H261250   6.230   5.934   0.129  2.0068  1.7485 -0.7193
13279TIP3   OH261251   2.307   0.817   1.172  0.5606  0.0523 -0.4482
13279TIP3    H161252   2.368   0.884   1.141 -0.4568  1.5092  0.5991
13279TIP3    H261253   2.340   0.794   1.259  0.0984  0.2544 -0.2158
13280TIP3   OH261254   4.243   0.248  14.809 -0.3023 -0.8237  0.0700
13280TIP3    H161255   4.256   0.164  14.765  0.5509 -1.3936  1.3974
13280TIP3    H261256   4.244   0.227  14.902 -1.6232  0.4419  0.3947
13281TIP3   OH261257   1.252   1.613  15.557  0.0781 -0.3665 -0.3778
13281TIP3    H161258   1.192   1.625  15.630 -0.2702 -0.4037 -0.6526
13281TIP3    H261259   1.339   1.624  15.594 -0.0521 -1.3884  0.2499
13282TIP3   OH261260   0.928   6.720   3.640  0.3227  0.2038 -0.6336
13282TIP3    H161261   0.894   6.797   3.594  2.3366  1.7164  0.3222
13282TIP3    H261262   0.955   6.754   3.726  0.8095 -1.6798 -0.0330
13283TIP3   OH261263   4.245   0.437  14.412 -0.5612  0.0472  0.0028
13283TIP3    H161264   4.228   0.353  14.370 -0.1835  0.5463 -1.1573
13283TIP3    H261265   4.308   0.481  14.355  0.3153  0.5457  1.3317
13284TIP3   OH261266   0.710   5.640  15.510 -0.0624 -0.4814 -0.3020
13284TIP3    H161267   0.662   5.568  15.552 -0.9517  0.4045  0.2359
13284TIP3    H261268   0.783   5.658  15.570  1.6027 -2.5478 -1.6581
13285TIP3   OH261269   1.656   4.788  14.553 -0.7401  0.0171  0.1412
13285TIP3    H161270   1.674   4.783  14.647  0.4280  1.9197  0.0531
13285TIP3    H261271   1.735   4.828  14.515 -1.5560  0.1095 -1.5252
13286TIP3   OH261272   5.294   1.498  14.503  0.0161  0.3477 -0.2463
13286TIP3    H161273   5.321   1.495  14.594 -2.1989 -1.4342  0.4012
13286TIP3    H261274   5.249   1.415  14.488 -0.3054  0.9206 -2.7563
13287TIP3   OH261275   6.880   4.368  15.172  0.0504 -0.4132 -0.1281
13287TIP3    H161276   6.946   4.351  15.105  0.8687  0.6975  0.3761
13287TIP3    H261277   6.885   4.293  15.231  1.7166  0.2449  0.5801
13288TIP3   OH261278   1.514   4.778  15.142 -0.0297  0.4198 -0.4541
13288TIP3    H161279   1.508   4.784  15.047 -0.4005  0.9187 -0.4045
13288TIP3    H261280   1.459   4.703  15.164  2.5488 -1.6741 -0.8726
13289TIP3   OH261281   5.263   3.716   1.307 -0.0287 -0.1099 -0.5109
13289TIP3    H161282   5.262   3.777   1.381  0.1756  1.1575 -1.5474
13289TIP3    H261283   5.355   3.690   1.299  0.2363  1.0985 -1.4157
13290TIP3   OH261284   4.012   5.034   0.291  0.5496 -0.0495 -0.2438
13290TIP3    H161285   3.946   4.970   0.264  0.1185  0.6040 -0.7465
13290TIP3    H261286   3.962   5.102   0.336  0.7680  0.8889 -1.4099
13291TIP3   OH261287   0.049   6.386  13.776 -0.1889  0.2018 -0.1002
13291TIP3    H161288   0.108   6.333  13.721  1.5671  2.8533 -0.8954
13291TIP3    H261289   0.013   6.324  13.839  2.4729 -1.7783 -0.4264
13292TIP3   OH261290   6.499   4.259   3.177 -0.4969 -0.3431 -0.4570
13292TIP3    H161291   6.469   4.283   3.265 -0.7610 -1.9076 -0.0954
13292TIP3    H261292   6.587   4.224   3.191 -0.6958 -0.9669 -0.7523
13293TIP3   OH261293   5.594   6.661  15.338 -0.4685 -0.4620  0.0743
13293TIP3    H161294   5.624   6.693  15.423 -3.4207  0.1273  0.9548
13293TIP3    H261295   5.585   6.567  15.349 -0.7614 -0.3963  0.3773
13294TIP3   OH261296   0.858   5.559   3.318  0.2688 -0.1494  0.1573
13294TIP3    H161297   0.925   5.591   3.258  1.0344  0.1491  1.1551
13294TIP3    H261298   0.819   5.639   3.355 -0.2416 -0.3286  0.0039
13295TIP3   OH261299   1.729   5.547   2.027  0.1305 -0.5814  0.4208
13295TIP3    H161300   1.717   5.607   2.100  1.3373 -0.6071  0.6496
13295TIP3    H261301   1.649   5.558   1.974 -0.5970 -0.3303  1.5541
13296TIP3   OH261302   7.047   5.977   0.872 -0.6734 -0.4005  0.1104
13296TIP3    H161303   7.130   5.990   0.918 -0.1025  0.5841 -1.1457
13296TIP3    H261304   7.059   5.895   0.824 -1.1404 -1.2456  1.4283
13297TIP3   OH261305   0.262   6.569   3.473  0.1326 -0.2467  0.0575
13297TIP3    H161306   0.333   6.630   3.489  1.0905 -1.4157  0.3149
13297TIP3    H261307   0.183   6.616   3.501  1.1092 -0.0102  2.5716
13298TIP3   OH261308   6.577   4.718  15.129  0.1161 -0.5266  0.4914
13298TIP3    H161309   6.572   4.753  15.218 -1.1708 -0.4172  0.3903
13298TIP3    H261310   6.512   4.648  15.128  1.3600 -1.7043  0.1421
13299TIP3   OH261311   6.959   6.333   2.664 -0.1646  0.3162  0.3128
13299TIP3    H161312   6.875   6.290   2.644  0.1080 -1.0724  2.0708
13299TIP3    H261313   7.024   6.282   2.617  0.0959 -0.9020  1.9549
13300TIP3   OH261314   5.672   3.679   1.761 -0.2856 -0.2452 -0.2007
13300TIP3    H161315   5.646   3.749   1.822  0.9369  0.2881 -0.2775
13300TIP3    H261316   5.765   3.694   1.745 -0.5648 -0.4048 -2.1728
13301TIP3   OH261317   1.108   5.513  13.948  0.0861 -0.7127  0.4763
13301TIP3    H161318   1.021   5.542  13.974 -0.0635 -1.1293  0.4469
13301TIP3    H261319   1.134   5.450  14.015  0.9262  0.4058  1.2244
13302TIP3   OH261320   6.976   5.961   2.167 -0.1625 -0.0448 -0.0592
13302TIP3    H161321   7.009   6.039   2.212  0.0379 -0.0905 -0.1239
13302TIP3    H261322   6.971   5.895   2.235 -2.1087  0.5374  0.3775
13303TIP3   OH261323   6.795   6.561  15.929 -0.1467  0.5622 -0.3033
13303TIP3    H161324   6.854   6.510  15.875  0.4578  2.8049 -1.8323
13303TIP3    H261325   6.753   6.622  15.869 -0.4542  2.2086  1.5132
13304TIP3   OH261326   2.727   7.039   2.643  0.1390 -0.2378  0.2724
13304TIP3    H161327   2.654   6.994   2.686 -0.1911  0.4571  0.4382
13304TIP3    H261328   2.692   7.126   2.621  1.3323  0.5868  1.5775
13305TIP3   OH261329   6.243   6.095  15.778  0.1522 -0.0543  0.4421
13305TIP3    H161330   6.253   6.082  15.872  1.2738 -0.3508  0.2958
13305TIP3    H261331   6.300   6.170  15.759 -0.2629  0.1576  0.0401
13306TIP3   OH261332   4.943   5.871   0.619 -0.0010 -0.3359 -0.7112
13306TIP3    H161333   4.938   5.898   0.711  2.6528  1.6070 -1.0652
13306TIP3    H261334   4.980   5.783   0.622 -2.8408 -1.5852  0.1623
13307TIP3   OH261335   1.428   1.184   0.266 -0.3081  0.6806 -0.5180
13307TIP3    H161336   1.396   1.095   0.251  0.3044  0.5796 -1.2601
13307TIP3    H261337   1.489   1.200   0.194 -0.7999  1.8920 -0.6802
13308TIP3   OH261338   6.979   7.011   0.862  0.0344 -0.5706  0.0125
13308TIP3    H161339   6.999   7.033   0.771  0.6165  0.9393  0.4827
13308TIP3    H261340   6.946   7.093   0.899 -2.2457 -1.7207  0.6108
13309TIP3   OH261341   7.188   4.914  15.166 -0.0298  0.0540 -0.0350
13309TIP3    H161342   7.188   4.975  15.093 -0.4687  0.2888  0.1593
13309TIP3    H261343   7.150   4.833  15.130 -1.2784  0.5189  0.2185
13310TIP3   OH261344   7.045   0.722   2.203 -0.0703 -0.4430  0.1833
13310TIP3    H161345   6.953   0.750   2.196  0.9832  4.0684  2.2019
13310TIP3    H261346   7.086   0.756   2.124  0.1790 -0.8981  0.1225
13311TIP3   OH261347   1.945   3.675   1.859  0.0699  0.1032 -0.1590
13311TIP3    H161348   1.960   3.601   1.918  1.3904  0.4311 -0.0588
13311TIP3    H261349   1.958   3.752   1.914  0.6686  0.4094 -0.7241
13312TIP3   OH261350   5.930   5.607   1.939  0.1230  0.1898 -0.2617
13312TIP3    H161351   5.958   5.520   1.967  0.2328  0.4975  0.5978
13312TIP3    H261352   6.011   5.658   1.935  0.2429 -0.1210 -2.1452
13313TIP3   OH261353   0.378   4.177   0.731  0.4797  0.3540  0.6333
13313TIP3    H161354   0.297   4.152   0.687 -0.6665  0.6511  2.5097
13313TIP3    H261355   0.362   4.267   0.761  2.2556  1.1499 -0.6881
13314TIP3   OH261356   0.404   2.516   0.682  0.1542  0.2360 -0.1104
13314TIP3    H161357   0.355   2.563   0.750  2.6116  0.8033  1.3812
13314TIP3    H261358   0.475   2.576   0.659  1.8941 -1.7059  0.0113
13315TIP3   OH261359   5.722   6.543   1.961 -0.1904  0.7377 -0.3732
13315TIP3    H161360   5.796   6.544   2.022 -0.3983  0.8182 -0.1238
13315TIP3    H261361   5.737   6.466   1.906 -1.0965 -0.5309  1.1159
13316TIP3   OH261362   4.828   0.479  14.890 -0.7138 -0.0509 -0.4279
13316TIP3    H161363   4.898   0.430  14.931  0.5466  1.3465 -0.8496
13316TIP3    H261364   4.863   0.568  14.880 -2.1776  0.4339 -1.5259
13317TIP3   OH261365   4.170   5.048   0.062 -0.2818 -0.0418  0.0721
13317TIP3    H161366   4.096   5.046   0.122 -0.6172  0.2644 -0.3335
13317TIP3    H261367   4.247   5.057   0.119 -0.6907  1.4702  0.3915
13318TIP3   OH261368   3.486   4.480  14.273  0.0928  0.7731 -0.3034
13318TIP3    H161369   3.493   4.558  14.328 -1.5666  0.6501  0.0925
13318TIP3    H261370   3.527   4.505  14.190 -0.6127  2.1387 -0.2519
13319TIP3   OH261371   1.719   5.137  15.602 -0.3116  0.1271  0.5454
13319TIP3    H161372   1.705   5.204  15.669 -1.3299 -0.9162  1.3941
13319TIP3    H261373   1.706   5.182  15.519 -0.3194  1.1267  1.0833
13320TIP3   OH261374   1.495   7.302   4.637  0.2218 -0.1937  0.0042
13320TIP3    H161375   1.516   7.211   4.658  1.7471  0.0192 -0.5226
13320TIP3    H261376   1.578   7.340   4.610 -0.8136  0.7802 -1.9231
13321TIP3   OH261377   5.164   7.217   2.310  0.2840  0.2032 -0.0183
13321TIP3    H161378   5.118   7.138   2.336  0.5399  0.3353  0.8449
13321TIP3    H261379   5.251   7.186   2.282  1.0721  0.3694  2.1655
13322TIP3   OH261380   4.448   6.879  15.316 -0.2329  0.0100  0.3585
13322TIP3    H161381   4.446   6.840  15.229  1.4627 -2.5765  1.4025
13322TIP3    H261382   4.529   6.929  15.318  0.6043 -1.3588  1.0131
13323TIP3   OH261383   1.318   4.664   2.536  0.2764 -0.0536 -0.3361
13323TIP3    H161384   1.265   4.585   2.549  0.3923 -0.1309 -0.3234
13323TIP3    H261385   1.295   4.695   2.448 -1.6089  1.3172  0.6278
13324TIP3   OH261386   0.427   5.536   1.817 -0.6113  0.2081  0.0737
13324TIP3    H161387   0.519   5.552   1.796 -0.7751 -0.5151 -1.2609
13324TIP3    H261388   0.429   5.457   1.871 -0.3157  1.1808  1.5100
13325TIP3   OH261389   1.860   2.586   0.349 -0.2426 -0.2420 -0.3233
13325TIP3    H161390   1.789   2.582   0.413  0.4936  0.7769  0.5732
13325TIP3    H261391   1.896   2.498   0.347  2.2160  0.5496  3.5648
13326TIP3   OH261392   5.551   3.710   1.508  0.0725 -0.2637 -0.6825
13326TIP3    H161393   5.580   3.701   1.599 -1.8781  1.0508  0.0781
13326TIP3    H261394   5.567   3.623   1.470 -0.3587 -1.2267  1.2689
13327TIP3   OH261395   5.478   3.014   0.613  0.3572  0.0076  0.3883
13327TIP3    H161396   5.405   2.954   0.594  0.2604 -0.0016  0.7891
13327TIP3    H261397   5.534   3.007   0.536  0.7902 -1.2736  0.8083
13328TIP3   OH261398   1.629   6.182   0.161  0.5479 -0.6641 -0.7151
13328TIP3    H161399   1.710   6.230   0.180 -1.2084  1.8800  0.6477
13328TIP3    H261400   1.600   6.150   0.247  0.2366 -1.7896 -1.2326
13329TIP3   OH261401   4.784   6.466  15.218  0.4330 -0.0117 -0.0961
13329TIP3    H161402   4.745   6.400  15.275  1.3838 -1.2160 -0.8232
13329TIP3    H261403   4.736   6.458  15.136 -0.1960  0.9720  0.1653
13330TIP3   OH261404   5.846   5.926   0.657  0.4871 -0.6708 -0.1280
13330TIP3    H161405   5.813   5.957   0.741  0.4658 -2.2125  0.4438
13330TIP3    H261406   5.927   5.975   0.644 -0.2199  0.5874  0.1198
13331TIP3   OH261407   2.822   6.017  13.898 -0.2121  0.5118  0.4290
13331TIP3    H161408   2.762   6.038  13.826  0.6550  2.1990  0.1791
13331TIP3    H261409   2.850   6.102  13.931 -0.7711 -0.2443  2.9335
13332TIP3   OH261410   6.769   5.956   1.429  0.1652  0.4918  0.9159
13332TIP3    H161411   6.723   6.037   1.448  3.8832  2.6972  1.0524
13332TIP3    H261412   6.812   5.933   1.512  0.0281 -1.0421  0.5829
13333TIP3   OH261413   1.394   0.477   0.656  0.1544  0.0861  0.1884
13333TIP3    H161414   1.309   0.504   0.691 -1.2904 -1.8261 -1.7244
13333TIP3    H261415   1.449   0.465   0.733 -1.3003  1.3207  1.4486
13334TIP3   OH261416   2.253   4.321  14.840  0.0900  0.0730  0.2164
13334TIP3    H161417   2.164   4.297  14.814 -0.1295  0.0516  0.9592
13334TIP3    H261418   2.307   4.247  14.813 -0.6687 -1.5729  3.0336
13335TIP3   OH261419   2.090   4.796   0.411 -0.3501  0.2263  0.1109
13335TIP3    H161420   2.076   4.735   0.338  0.5378 -0.9781  0.9454
13335TIP3    H261421   2.002   4.828   0.431 -0.9568 -1.3940  0.1776
13336TIP3   OH261422   3.733   3.135   0.882 -1.1373 -0.0152 -0.0344
13336TIP3    H161423   3.655   3.126   0.936  0.0882 -0.4173  1.7187
13336TIP3    H261424   3.724   3.067   0.816 -2.7617  0.6242 -0.4929
13337TIP3   OH261425   1.216   5.667   2.571 -0.4710 -0.2821 -0.5448
13337TIP3    H161426   1.279   5.730   2.607 -1.1498  1.5525 -2.4831
13337TIP3    H261427   1.269   5.612   2.513  0.1598 -1.6520  1.3018
13338TIP3   OH261428   0.557   0.491  14.570  0.1334 -0.1416 -0.0824
13338TIP3    H161429   0.648   0.464  14.575  0.0874 -0.1930  0.5611
13338TIP3    H261430   0.507   0.409  14.574 -0.0653  0.0532  3.5316
13339TIP3   OH261431   5.937   3.694   2.065  0.0100  0.4648  0.1519
13339TIP3    H161432   5.958   3.762   2.001 -2.0146  0.5749 -0.4302
13339TIP3    H261433   5.889   3.628   2.014 -1.3264  0.3997  1.4843
13340TIP3   OH261434   5.404   6.836   0.701 -0.1762 -0.2227 -0.3042
13340TIP3    H161435   5.343   6.850   0.629 -1.3245 -0.2461  0.6408
13340TIP3    H261436   5.353   6.856   0.780  1.6455  1.8555  0.4107
13341TIP3   OH261437   4.972   3.814   0.963 -0.0846 -0.1122 -0.1157
13341TIP3    H161438   4.888   3.827   0.919 -0.8059 -0.2905  1.1785
13341TIP3    H261439   4.972   3.722   0.989 -0.1547  0.2495  1.2099
13342TIP3   OH261440   5.655   5.156  15.111  0.0876  0.1939  0.2167
13342TIP3    H161441   5.572   5.134  15.154 -0.6095  0.7740 -0.8115
13342TIP3    H261442   5.667   5.086  15.047 -0.9460  1.4625 -1.4306
13343TIP3   OH261443   2.862   5.278  15.817 -0.2133  0.7729  0.3405
13343TIP3    H161444   2.838   5.289  15.725  0.2886  0.3102  0.1509
13343TIP3    H261445   2.782   5.298  15.865  0.2851  3.9796 -0.0268
13344TIP3   OH261446   0.066   6.363   1.179 -0.5414  0.4154  0.0371
13344TIP3    H161447  -0.015   6.311   1.174 -0.7118  0.5886  0.9486
13344TIP3    H261448   0.114   6.326   1.254  0.1173  0.4674 -0.3527
13345TIP3   OH261449   4.525   5.792   0.116 -0.3843 -0.1239 -0.1260
13345TIP3    H161450   4.451   5.733   0.129  0.5410 -1.0429  1.1161
13345TIP3    H261451   4.583   5.744   0.056  0.3477 -0.4693  0.8484
13346TIP3   OH261452   2.138   5.481   3.760 -0.1090  0.6183 -0.0606
13346TIP3    H161453   2.111   5.398   3.721 -0.3557 -0.3075  2.0257
13346TIP3    H261454   2.222   5.500   3.718 -0.5179 -0.1664 -1.2756
13347TIP3   OH261455   4.819   4.244   1.866  0.7760 -0.2091  0.0858
13347TIP3    H161456   4.831   4.300   1.943  1.1826  0.7224 -0.6450
13347TIP3    H261457   4.794   4.159   1.902  3.3851 -0.4726  1.3906
13348TIP3   OH261458   0.338   4.728  15.930 -0.3030  0.1048 -0.1717
13348TIP3    H161459   0.313   4.821  15.926 -3.0949 -0.5897  0.1761
13348TIP3    H261460   0.285   4.692  16.000 -0.5183 -2.1380 -1.4554
13349TIP3   OH261461   7.024   3.072  14.555 -0.4256 -0.2066 -0.1112
13349TIP3    H161462   7.023   3.166  14.534  0.2530  0.4608  2.6926
13349TIP3    H261463   6.932   3.046  14.556 -0.6899  0.7528  0.4917
13350TIP3   OH261464   4.570   7.083   0.755  0.5964 -0.9826 -0.5137
13350TIP3    H161465   4.504   7.076   0.825  0.1649 -0.8828 -0.9124
13350TIP3    H261466   4.647   7.041   0.792  1.1725  1.3567  1.0101
13351TIP3   OH261467   5.274   6.426   1.400  0.4088 -0.5885  0.4661
13351TIP3    H161468   5.298   6.517   1.379 -0.4792 -0.4508  0.0441
13351TIP3    H261469   5.190   6.433   1.445 -0.0281 -1.2559 -0.2283
13352TIP3   OH261470   0.091   1.129   0.303  0.0821 -0.4405  0.0036
13352TIP3    H161471   0.104   1.104   0.212 -0.5495 -1.1969  0.1244
13352TIP3    H261472   0.001   1.104   0.323  0.2089 -0.2528  0.8265
13353TIP3   OH261473   6.992   1.619   0.268  0.1323  0.8363  0.5251
13353TIP3    H161474   6.940   1.622   0.188  0.0263  0.0190  0.5570
13353TIP3    H261475   7.023   1.528   0.273  2.0400  1.4406  0.1918
13354TIP3   OH261476   2.597   5.839   3.479 -0.2554 -0.5190 -0.0228
13354TIP3    H161477   2.606   5.763   3.421 -0.4648  0.1895 -0.9962
13354TIP3    H261478   2.541   5.900   3.430  0.8412  0.7423  0.2679
13355TIP3   OH261479   6.137   4.298   2.770  0.4054  0.1286  0.0951
13355TIP3    H161480   6.068   4.259   2.716 -0.8147  0.4563  1.4099
13355TIP3    H261481   6.094   4.370   2.816  2.5608  2.9720 -2.1570
13356TIP3   OH261482   5.193   2.783   1.605  0.0034 -0.1192 -0.7470
13356TIP3    H161483   5.169   2.691   1.615 -0.4667  0.0741 -0.1243
13356TIP3    H261484   5.207   2.793   1.511  2.2855 -1.3754 -0.5706
13357TIP3   OH261485   0.369   3.906   3.427 -0.2238  0.6169  0.0922
13357TIP3    H161486   0.346   3.903   3.520  1.0392  0.0364  0.4055
13357TIP3    H261487   0.386   3.814   3.405  0.9279  0.9283 -0.3284
13358TIP3   OH261488   5.697   0.398   2.290  0.2167 -0.3801 -0.5746
13358TIP3    H161489   5.759   0.435   2.226  1.7145 -0.4386  0.8161
13358TIP3    H261490   5.702   0.303   2.276  2.5412 -0.6022  1.3484
13359TIP3   OH261491   5.471   5.037   0.323 -0.1790 -0.7024  0.6158
13359TIP3    H161492   5.388   5.052   0.278 -0.6569  0.0123  1.7223
13359TIP3    H261493   5.528   5.109   0.294 -0.6087 -0.0259  1.4343
13360TIP3   OH261494   0.212   7.255   0.591 -0.2806  0.0800 -0.2546
13360TIP3    H161495   0.232   7.291   0.505  1.4064  1.7438  0.7788
13360TIP3    H261496   0.297   7.237   0.630 -1.0181 -0.4619  1.1539
13361TIP3   OH261497   5.029   6.793   3.107 -0.1342  0.2713  0.5562
13361TIP3    H161498   4.954   6.741   3.136  0.4946  0.6187  2.9053
13361TIP3    H261499   4.991   6.862   3.052 -1.3725 -0.3818  0.5894
13362TIP3   OH261500   1.313   5.738   1.971  0.4411  0.0525  0.0175
13362TIP3    H161501   1.239   5.678   1.982 -0.4428  1.1438  0.1030
13362TIP3    H261502   1.291   5.789   1.893  0.9419  0.6111  0.2387
13363TIP3   OH261503   0.745   6.281   0.728  0.3841 -0.2546  0.0390
13363TIP3    H161504   0.761   6.252   0.638  0.5841 -0.6119  0.1884
13363TIP3    H261505   0.825   6.325   0.754  0.7588 -1.1471  0.4316
13364TIP3   OH261506   0.530   0.408   0.575  0.4898  0.4041 -0.1852
13364TIP3    H161507   0.583   0.411   0.495 -1.0093  0.0866 -1.1993
13364TIP3    H261508   0.440   0.420   0.545 -0.0935  0.2110  1.4517
13365TIP3   OH261509   6.522   1.309   0.378  0.3884  1.1317  0.1624
13365TIP3    H161510   6.514   1.404   0.390  1.2522  1.4074 -1.3388
13365TIP3    H261511   6.608   1.297   0.338  0.9562 -0.4353  1.8363
13366TIP3   OH261512   3.372   6.119  14.599  0.1963 -0.0126 -0.2535
13366TIP3    H161513   3.374   6.170  14.518  0.6582  0.7279  0.2140
13366TIP3    H261514   3.279   6.111  14.620  0.0985  0.2587 -0.5784
13367TIP3   OH261515   3.375   1.722  15.098 -0.3618  0.3511 -0.1420
13367TIP3    H161516   3.429   1.716  15.177  2.0090  1.0007 -1.6729
13367TIP3    H261517   3.341   1.633  15.085 -2.5673  0.6819  2.7751
13368TIP3   OH261518   2.045   5.051   1.510 -0.2419  0.3986  0.0263
13368TIP3    H161519   2.062   4.966   1.469  2.0563  1.0904 -0.5635
13368TIP3    H261520   1.965   5.039   1.560 -0.7446 -1.6933 -1.2419
13369TIP3   OH261521   2.171   5.358  15.981 -1.0501 -0.4560  0.2683
13369TIP3    H161522   2.095   5.372  16.036  0.6941  2.9508  1.9519
13369TIP3    H261523   2.236   5.318  16.038 -0.4643 -0.3142 -0.2846
13370TIP3   OH261524   3.322   1.112   3.860 -0.5643 -0.3815 -0.3515
13370TIP3    H161525   3.264   1.036   3.853 -0.1133 -0.6104 -1.7015
13370TIP3    H261526   3.350   1.111   3.952  0.2633 -2.5007 -0.5725
13371TIP3   OH261527   5.741   5.736   1.799 -0.2757  0.0822 -0.3770
13371TIP3    H161528   5.813   5.679   1.826 -0.9144 -1.0906 -1.1344
13371TIP3    H261529   5.767   5.823   1.830  1.7183 -0.2229 -1.1365
13372TIP3   OH261530   4.772   3.928   0.134  0.0289 -0.5501  0.1322
13372TIP3    H161531   4.711   3.977   0.078  0.8966 -0.3834 -0.6905
13372TIP3    H261532   4.859   3.954   0.102  0.5485 -0.1349  1.8409
13373TIP3   OH261533   4.219   6.763   5.441  0.7517 -0.4372  0.5290
13373TIP3    H161534   4.240   6.742   5.350 -1.3759 -1.8538  0.3237
13373TIP3    H261535   4.202   6.678   5.482  0.9293  0.2475  2.0582
13374TIP3   OH261536   4.870   5.290   2.001  0.3679  0.0104  0.2935
13374TIP3    H161537   4.820   5.286   1.919 -0.4803 -1.8182  0.8836
13374TIP3    H261538   4.932   5.217   1.995 -0.3882 -0.7637  1.7142
13375TIP3   OH261539   5.428   4.857  15.469  0.4375 -0.3075 -0.2287
13375TIP3    H161540   5.368   4.923  15.437 -0.8389 -1.5369 -0.4265
13375TIP3    H261541   5.456   4.889  15.555 -0.4190  0.3227 -0.1864
13376TIP3   OH261542   3.917   0.886   2.461  0.4490 -0.0274  0.1223
13376TIP3    H161543   3.937   0.980   2.453 -2.7464  0.8637  1.7478
13376TIP3    H261544   3.953   0.862   2.546 -0.7518  0.3113  0.7357
13377TIP3   OH261545   3.781   7.237   1.420 -0.2836  0.8672 -0.1669
13377TIP3    H161546   3.776   7.324   1.460 -3.1706  0.6294  0.0770
13377TIP3    H261547   3.757   7.251   1.329  1.6265  0.6589 -0.7315
13378TIP3   OH261548   3.365   2.675   0.189 -0.4615 -0.6897 -0.5573
13378TIP3    H161549   3.401   2.720   0.266  1.0164  1.3418 -2.3463
13378TIP3    H261550   3.435   2.616   0.161 -0.6965 -0.8573 -0.7905
13379TIP3   OH261551   5.003   4.162  15.164 -0.6346  0.1950 -0.4215
13379TIP3    H161552   4.958   4.151  15.248  0.2317 -1.5176 -0.1668
13379TIP3    H261553   5.047   4.079  15.149 -1.0207  0.3691 -2.7356
13380TIP3   OH261554   6.275   3.400  15.664  0.0559  0.8895 -0.1093
13380TIP3    H161555   6.332   3.455  15.718 -0.9698  2.9908 -1.1146
13380TIP3    H261556   6.261   3.321  15.717 -2.0747  3.4698  3.4168
13381TIP3   OH261557   6.565   6.423  15.519  0.1047 -0.1397 -0.1014
13381TIP3    H161558   6.579   6.378  15.436 -2.2644 -0.2039 -0.5062
13381TIP3    H261559   6.525   6.507  15.495 -0.5838 -0.1474  0.9564
13382TIP3   OH261560   0.641   4.232  14.914 -0.0916  0.3663  0.2651
13382TIP3    H161561   0.699   4.301  14.881  1.4832 -0.9321  0.2289
13382TIP3    H261562   0.663   4.224  15.007 -0.6456  0.2792  0.3928
13383TIP3   OH261563   3.640   4.452   0.719  0.2275 -0.0997  0.2789
13383TIP3    H161564   3.567   4.434   0.660 -0.4935 -0.1146  1.1548
13383TIP3    H261565   3.715   4.409   0.679 -0.2414 -0.0447 -0.6558
13384TIP3   OH261566   3.733   6.312  14.956 -0.3989  0.1875 -0.1719
13384TIP3    H161567   3.754   6.229  14.998 -0.5674  0.5334  0.6067
13384TIP3    H261568   3.653   6.293  14.905  0.7758 -0.6732 -1.7528
13385TIP3   OH261569   6.694   1.155   2.499  0.1484 -0.2036 -0.4477
13385TIP3    H161570   6.604   1.126   2.485  1.0821 -2.7183 -1.5435
13385TIP3    H261571   6.723   1.185   2.413  0.6878 -0.3962 -0.3313
13386TIP3   OH261572   6.586   6.378  14.691  0.2496 -0.8870  0.3894
13386TIP3    H161573   6.575   6.284  14.677 -1.6192 -0.4459 -1.2707
13386TIP3    H261574   6.531   6.397  14.767  0.7083 -1.1517  0.7883
13387TIP3   OH261575   6.023   6.444   0.009 -0.2773 -0.2286  0.4067
13387TIP3    H161576   6.052   6.535   0.019  2.0146 -0.9672  0.8012
13387TIP3    H261577   5.981   6.423   0.092 -0.1464  0.2323  0.5934
13388TIP3   OH261578   4.107   5.023  15.344 -0.1020  0.3057 -0.0514
13388TIP3    H161579   4.093   5.018  15.439  1.8781  1.1887  0.3258
13388TIP3    H261580   4.056   5.100  15.317 -1.2540 -0.3666  0.1583
13389TIP3   OH261581   5.215   3.127   4.777 -0.1506 -0.0021 -0.9297
13389TIP3    H161582   5.217   3.071   4.854 -0.6996  1.0135 -0.1505
13389TIP3    H261583   5.306   3.154   4.763 -0.3114  1.3746  0.5562
13390TIP3   OH261584   1.185   3.724  13.325  0.2022 -0.2405 -0.2322
13390TIP3    H161585   1.145   3.691  13.245  0.1214 -0.9062  0.0778
13390TIP3    H261586   1.247   3.656  13.351  0.4253  0.0940  0.1186
13391TIP3   OH261587   7.223   0.650   1.664 -0.2103  0.3001  0.3710
13391TIP3    H161588   7.129   0.645   1.650 -0.3908  1.8524  0.9308
13391TIP3    H261589   7.241   0.580   1.727 -0.6401 -1.3532 -1.2775
13392TIP3   OH261590   7.179   2.735   3.125 -0.3259  0.3466  0.9308
13392TIP3    H161591   7.106   2.675   3.140  0.0534 -0.2117  0.5878
13392TIP3    H261592   7.152   2.818   3.165 -1.8374  0.6416 -0.6688
13393TIP3   OH261593   3.427   3.516   3.978  0.8228 -0.1384  0.3916
13393TIP3    H161594   3.509   3.564   3.964 -0.7054  2.1759 -1.0316
13393TIP3    H261595   3.362   3.585   3.993 -0.8483 -1.9466  1.6126
13394TIP3   OH261596   1.441   3.099   4.540 -0.3462  0.5770 -0.4665
13394TIP3    H161597   1.535   3.085   4.549 -0.6176 -0.9219  0.1087
13394TIP3    H261598   1.412   3.121   4.629 -1.1823 -3.0165  0.2142
13395TIP3   OH261599   4.036   3.027   5.301  0.4615 -0.8677 -0.4413
13395TIP3    H161600   3.974   3.100   5.307  0.2474 -0.8365 -2.6075
13395TIP3    H261601   4.030   2.984   5.386 -1.5530 -0.0739 -0.1366
13396TIP3   OH261602   2.520   0.330   2.866  0.3831 -0.0596 -0.5126
13396TIP3    H161603   2.510   0.237   2.843  0.0584 -0.4942  1.3397
13396TIP3    H261604   2.611   0.350   2.843  0.3491 -0.7175 -1.2781
13397TIP3   OH261605   2.035   2.005   1.346 -0.2873 -0.1964 -0.2411
13397TIP3    H161606   2.096   2.077   1.333 -0.8969  0.4716  0.5680
13397TIP3    H261607   1.951   2.047   1.362 -0.9370 -1.1050 -1.1660
13398TIP3   OH261608   4.989   1.660   0.237 -0.6426  0.2679  0.1125
13398TIP3    H161609   4.976   1.595   0.169 -2.1305 -0.0592  0.6904
13398TIP3    H261610   5.008   1.609   0.316  3.1452  0.6890 -0.4244
13399TIP3   OH261611   6.339   7.062   3.271  0.3431  0.7964  0.3409
13399TIP3    H161612   6.283   7.092   3.343  0.4747  0.6643  0.4987
13399TIP3    H261613   6.315   7.118   3.197  0.9714  1.6734  0.7879
13400TIP3   OH261614   1.210   7.038   3.857 -0.0779  0.0526 -0.2612
13400TIP3    H161615   1.115   7.048   3.861 -0.1986 -0.5204 -1.4795
13400TIP3    H261616   1.244   7.119   3.893 -1.0279  0.1937  0.3464
13401TIP3   OH261617   2.909   1.923   4.158  0.4484  0.2850 -0.2324
13401TIP3    H161618   2.986   1.870   4.179 -0.0962 -0.4903 -0.1695
13401TIP3    H261619   2.943   2.012   4.147  1.4041 -0.1138 -0.5430
13402TIP3   OH261620   5.285   1.334   1.065 -0.3198 -0.0891  0.0063
13402TIP3    H161621   5.237   1.295   1.138 -1.2920  0.5601 -0.2721
13402TIP3    H261622   5.360   1.377   1.106 -2.6127  3.1036  1.0596
13403TIP3   OH261623   6.686   4.254   0.873  0.4407 -0.1702 -0.1931
13403TIP3    H161624   6.703   4.162   0.892  0.4819 -0.0087  0.5612
13403TIP3    H261625   6.773   4.294   0.868  0.4218 -0.1670 -0.4944
13404TIP3   OH261626   3.531   0.505   2.950  0.0637 -0.2016  0.0730
13404TIP3    H161627   3.545   0.412   2.934  0.4484 -0.5831  2.4449
13404TIP3    H261628   3.523   0.544   2.863  0.8982 -2.2910 -0.9549
13405TIP3   OH261629   5.746   2.317   1.979 -0.1650 -0.0964 -0.1302
13405TIP3    H161630   5.799   2.260   2.035  1.3657 -0.1607 -1.6010
13405TIP3    H261631   5.809   2.379   1.942 -1.7218  2.2762  1.0611
13406TIP3   OH261632   1.155   2.324  15.498 -0.6582  0.2828  0.2896
13406TIP3    H161633   1.251   2.325  15.499 -0.5076 -2.4815 -3.0034
13406TIP3    H261634   1.131   2.416  15.494  1.8503  1.0214  0.9494
13407TIP3   OH261635   6.364   1.630   3.269  0.0785  0.4415 -0.1845
13407TIP3    H161636   6.419   1.584   3.332  0.3569  0.4617 -0.4138
13407TIP3    H261637   6.311   1.562   3.228 -0.2005  0.4455  0.1706
13408TIP3   OH261638   1.680   7.006   3.491  0.4664 -0.3118  0.2621
13408TIP3    H161639   1.728   6.960   3.560  0.9781 -0.2706 -0.0712
13408TIP3    H261640   1.725   6.982   3.410 -1.3757 -2.0441 -0.3079
13409TIP3   OH261641   6.017   6.517  15.427  0.0456  0.2537 -0.4201
13409TIP3    H161642   5.947   6.456  15.452  0.0215  0.4238 -0.0690
13409TIP3    H261643   6.095   6.482  15.469 -0.2857  1.4094  1.2417
13410TIP3   OH261644   1.677   1.990   1.623 -0.3428  0.3186 -0.1448
13410TIP3    H161645   1.585   2.015   1.632 -0.0820  1.0495  0.5677
13410TIP3    H261646   1.706   2.030   1.541 -1.0160 -1.0328 -1.0548
13411TIP3   OH261647   1.177   3.729   2.599  0.4469  0.4017  0.0793
13411TIP3    H161648   1.145   3.745   2.511 -0.5969  0.7493  0.5163
13411TIP3    H261649   1.260   3.777   2.603  0.5322  0.3238 -0.7352
13412TIP3   OH261650   5.455   0.626   4.083  0.1277  0.0866  0.2555
13412TIP3    H161651   5.546   0.641   4.107 -0.2569  0.3487  1.5635
13412TIP3    H261652   5.436   0.693   4.017 -0.0169  2.0057  2.2167
13413TIP3   OH261653   1.549   2.812   4.863 -0.0716 -0.1629  0.2605
13413TIP3    H161654   1.585   2.729   4.832 -1.4519 -1.3261  1.6829
13413TIP3    H261655   1.620   2.851   4.914  0.2697 -0.9206  0.3660
13414TIP3   OH261656   2.516   0.165   3.274  0.2953  0.1011 -0.6131
13414TIP3    H161657   2.441   0.204   3.320  1.3665 -0.3089  1.5795
13414TIP3    H261658   2.512   0.072   3.298  1.8961  0.2090  0.0840
13415TIP3   OH261659   1.401   1.214   3.460  0.0927 -0.2239 -0.5903
13415TIP3    H161660   1.328   1.263   3.498 -0.0216 -0.3482 -0.6473
13415TIP3    H261661   1.453   1.188   3.536  0.0513 -0.1764 -0.5452
13416TIP3   OH261662   1.537   2.610   3.562 -1.0132 -0.2544 -0.4418
13416TIP3    H161663   1.489   2.529   3.581 -2.1838  0.0340 -2.1111
13416TIP3    H261664   1.490   2.650   3.489  0.0897  1.4907 -0.2384
13417TIP3   OH261665   1.117   6.872   4.088 -0.1107  0.9058  0.1870
13417TIP3    H161666   1.150   6.942   4.145  1.0269  1.8325 -1.5617
13417TIP3    H261667   1.190   6.853   4.029 -1.1322 -0.3308 -0.6954
13418TIP3   OH261668   6.990   0.913   0.056  0.8561  0.1581  0.8142
13418TIP3    H161669   7.077   0.875   0.068  0.1498 -2.6749 -2.3205
13418TIP3    H261670   6.934   0.862   0.115  0.5148 -1.3890 -0.8083
13419TIP3   OH261671   2.098   2.730   0.480 -0.4357 -0.2582 -0.2139
13419TIP3    H161672   2.103   2.774   0.394  0.2679  0.0970  0.0078
13419TIP3    H261673   2.076   2.640   0.459 -1.1941  0.0343 -0.7202
13420TIP3   OH261674   2.215   1.017   5.092 -0.5789  0.0192 -0.2300
13420TIP3    H161675   2.202   0.928   5.125 -0.5059  0.2253  0.3604
13420TIP3    H261676   2.310   1.027   5.086 -0.5482  0.4791  0.8812
13421TIP3   OH261677   0.998   2.180   3.444 -0.0110  0.2415  0.1333
13421TIP3    H161678   0.944   2.101   3.444 -1.6962  1.3091  3.0100
13421TIP3    H261679   0.957   2.237   3.510  2.0547  2.8906 -0.7882
13422TIP3   OH261680   2.005   1.179   3.858  0.2211 -0.0059  0.0629
13422TIP3    H161681   2.033   1.152   3.770  0.6852  0.5852  0.0315
13422TIP3    H261682   2.081   1.224   3.895 -1.5208  4.0837 -1.0622
13423TIP3   OH261683   0.446   0.341   2.531 -0.4509 -0.3748  0.1780
13423TIP3    H161684   0.490   0.337   2.616 -0.1833 -0.9916  0.0141
13423TIP3    H261685   0.455   0.252   2.495 -1.3531 -0.3569 -0.0974
13424TIP3   OH261686   3.192   1.649  13.781  0.1115  0.1868  0.0240
13424TIP3    H161687   3.161   1.560  13.763 -2.5221  1.1254 -0.2933
13424TIP3    H261688   3.212   1.650  13.874 -0.2389 -0.6162  0.1050
13425TIP3   OH261689   1.020   1.143   1.267  0.0138 -0.2036 -0.1574
13425TIP3    H161690   0.926   1.160   1.268 -0.0852 -0.6804  1.2205
13425TIP3    H261691   1.040   1.116   1.357  1.1193 -1.9374 -0.8840
13426TIP3   OH261692   6.330   0.182   5.554 -0.6473  0.0951  0.2355
13426TIP3    H161693   6.419   0.211   5.534 -0.4950  0.0108  0.7907
13426TIP3    H261694   6.323   0.188   5.649 -1.8496  1.8627  0.0671
13427TIP3   OH261695   5.723   6.933   1.407  0.0607 -0.1228 -0.0588
13427TIP3    H161696   5.709   6.980   1.324 -0.5703 -1.6198 -0.8130
13427TIP3    H261697   5.781   6.861   1.384 -0.1828 -0.5974  0.7913
13428TIP3   OH261698   6.944   7.168  15.462  0.1082 -0.0847 -0.4931
13428TIP3    H161699   7.001   7.119  15.521 -0.0566  0.7274  0.3497
13428TIP3    H261700   6.872   7.108  15.443 -0.4671  0.0616  1.1176
13429TIP3   OH261701   0.996   2.655   4.915  0.2019 -0.1582  0.1672
13429TIP3    H161702   1.040   2.738   4.896  1.5136 -0.7831  0.4432
13429TIP3    H261703   1.017   2.599   4.841 -0.9168 -0.1630 -0.1520
13430TIP3   OH261704   5.904   3.597   2.452 -0.4588  0.2433 -0.1076
13430TIP3    H161705   5.871   3.675   2.407  0.3822  0.6789  0.0219
13430TIP3    H261706   5.974   3.564   2.395 -0.6602 -0.2943 -0.0522
13431TIP3   OH261707   4.356   0.678   1.622  0.0102  0.4840  0.4906
13431TIP3    H161708   4.340   0.587   1.646 -0.4535  0.6901  0.9678
13431TIP3    H261709   4.441   0.676   1.578 -0.3273 -0.2864 -0.1383
13432TIP3   OH261710   0.280   1.952   1.096 -0.6389 -0.4737  0.0556
13432TIP3    H161711   0.199   1.942   1.045 -0.9513 -1.4849  0.7352
13432TIP3    H261712   0.300   1.863   1.126  0.5110 -0.1643  0.2325
13433TIP3   OH261713   6.408   7.288  15.032  0.4349  0.0100 -0.4349
13433TIP3    H161714   6.374   7.290  15.121  1.1221 -0.9765 -0.1439
13433TIP3    H261715   6.352   7.226  14.986  1.4184 -1.1176 -0.1273
13434TIP3   OH261716   0.092   0.035   5.620 -0.1601  0.1103  0.6315
13434TIP3    H161717   0.146   0.087   5.680  0.1314  1.0502 -0.4272
13434TIP3    H261718   0.015   0.089   5.604 -0.9296 -0.7730  1.2957
13435TIP3   OH261719   1.879   6.852   2.318  0.2091 -0.4211 -0.1678
13435TIP3    H161720   1.790   6.830   2.291  0.0232 -0.1161  0.1844
13435TIP3    H261721   1.869   6.882   2.408  0.7704 -1.0865  0.1166
13436TIP3   OH261722   1.536   2.463   1.786  0.0419  0.1573 -0.1532
13436TIP3    H161723   1.478   2.431   1.855  0.9887 -0.1272  0.5227
13436TIP3    H261724   1.491   2.539   1.749  0.3106  1.3676  1.9423
13437TIP3   OH261725   4.082   2.432   2.795 -0.0123 -0.6792  0.3304
13437TIP3    H161726   4.077   2.491   2.719  0.1194  0.5139  1.2298
13437TIP3    H261727   4.155   2.467   2.846 -1.4181 -0.2196  2.0542
13438TIP3   OH261728   5.021   0.712   1.162 -0.0511  0.0987 -0.3055
13438TIP3    H161729   4.950   0.722   1.099  0.3617  0.7604 -0.6759
13438TIP3    H261730   5.006   0.781   1.227  0.2361  0.2265 -0.3725
13439TIP3   OH261731   6.430   3.856   3.829 -0.0101 -0.2278 -0.0460
13439TIP3    H161732   6.447   3.900   3.745  2.2967 -0.4154  0.2903
13439TIP3    H261733   6.431   3.763   3.808 -0.2579 -0.2534  0.0525
13440TIP3   OH261734   2.549   0.877   2.018  0.2464 -0.3414  0.0106
13440TIP3    H161735   2.472   0.871   1.962  0.9769 -3.3685 -0.7873
13440TIP3    H261736   2.593   0.958   1.991  0.0646 -1.2285 -3.1784
13441TIP3   OH261737   6.286   2.110   4.054  0.3497  0.2076 -0.7839
13441TIP3    H161738   6.231   2.168   4.002  1.2866  0.3610 -1.6285
13441TIP3    H261739   6.374   2.121   4.017  0.5424 -1.7070 -0.9145
13442TIP3   OH261740   0.836   0.416   2.593  0.1078 -0.4067 -0.3154
13442TIP3    H161741   0.868   0.449   2.509 -1.5331  1.4635 -0.2221
13442TIP3    H261742   0.853   0.487   2.654  0.1913 -1.3019  0.7112
13443TIP3   OH261743   1.277   0.096   1.027  0.0177  0.0409 -0.8707
13443TIP3    H161744   1.307   0.186   1.038  0.2404  0.1360 -2.1714
13443TIP3    H261745   1.246   0.070   1.114  1.4691  0.8093 -0.1066
13444TIP3   OH261746   0.359   3.467   1.030  0.1595  0.6813 -0.5001
13444TIP3    H161747   0.288   3.503   0.977 -0.0748  0.4518 -0.3456
13444TIP3    H261748   0.324   3.385   1.065  0.5058  0.5593 -0.4332
13445TIP3   OH261749   2.645   2.759   1.194  0.1940 -0.8328 -0.6055
13445TIP3    H161750   2.664   2.708   1.272  0.5251  2.5115  1.5885
13445TIP3    H261751   2.722   2.747   1.138 -0.4266 -3.9572 -0.8698
13446TIP3   OH261752   0.351   5.108   1.928  0.0248 -0.2045 -0.0096
13446TIP3    H161753   0.396   5.121   1.844 -1.2250 -1.2108 -0.8685
13446TIP3    H261754   0.411   5.053   1.979  0.0062 -1.1415 -0.9693
13447TIP3   OH261755   1.178   0.501   1.692  0.3873 -0.0502 -0.8270
13447TIP3    H161756   1.192   0.435   1.760  0.8664  0.9363  0.0509
13447TIP3    H261757   1.223   0.466   1.616  0.3508 -0.8982 -0.4660
13448TIP3   OH261758   0.275   0.269  15.497 -0.6677  0.1367 -0.5366
13448TIP3    H161759   0.224   0.257  15.418 -1.1405 -1.9540  0.0519
13448TIP3    H261760   0.218   0.317  15.556 -0.6836  0.8173 -1.1140
13449TIP3   OH261761   5.431   6.825   3.479 -0.3874 -0.1198 -0.3675
13449TIP3    H161762   5.484   6.760   3.432  0.0431  0.1990 -0.3271
13449TIP3    H261763   5.402   6.780   3.558  1.6420  0.3784  0.7066
13450TIP3   OH261764   4.549   6.829   0.617  0.3075  0.0361 -0.1230
13450TIP3    H161765   4.476   6.882   0.584  0.4291  0.3467  0.1012
13450TIP3    H261766   4.595   6.888   0.677  1.1063  0.0534 -0.7408
13451TIP3   OH261767   1.916   0.707   1.508  0.4903  0.0773  0.1628
13451TIP3    H161768   2.009   0.695   1.492  0.4065 -0.2180 -0.1055
13451TIP3    H261769   1.893   0.787   1.460  0.8065  0.6872  1.0195
13452TIP3   OH261770   1.830   4.559   4.467  0.6867  0.4511  0.1019
13452TIP3    H161771   1.766   4.505   4.420  0.1430  1.1465  0.0483
13452TIP3    H261772   1.915   4.521   4.443  0.3277 -0.1679 -0.2089
13453TIP3   OH261773   6.307   6.639   2.799 -0.8813 -0.2013  0.1732
13453TIP3    H161774   6.354   6.716   2.830  0.8262 -0.5606 -1.4194
13453TIP3    H261775   6.327   6.571   2.863 -1.1487  0.2741  0.7648
13454TIP3   OH261776   2.488   6.658   3.576 -0.1803  0.2424  0.0502
13454TIP3    H161777   2.573   6.628   3.545  0.6524  1.3460  1.2122
13454TIP3    H261778   2.478   6.617   3.663 -1.8717 -1.7196 -1.0240
13455TIP3   OH261779   1.690   5.504   4.132 -0.4947  0.1131  0.0519
13455TIP3    H161780   1.718   5.452   4.057 -2.0756  0.9985 -1.1779
13455TIP3    H261781   1.764   5.561   4.151  0.6222 -1.4132  0.3734
13456TIP3   OH261782   1.837   2.147   2.700  0.1150  0.7675  0.1421
13456TIP3    H161783   1.777   2.200   2.648  0.8363  0.4397 -1.0494
13456TIP3    H261784   1.781   2.105   2.766 -0.8348  1.0699 -0.4605
13457TIP3   OH261785   0.250   2.295   1.266  0.2072 -0.1693  0.2520
13457TIP3    H161786   0.161   2.263   1.253 -0.2144  0.6438  1.0273
13457TIP3    H261787   0.280   2.252   1.346 -1.0223  2.6277  2.3232
13458TIP3   OH261788   7.007   3.150   1.481  0.0732 -0.4871  0.3168
13458TIP3    H161789   6.995   3.074   1.423  2.4905 -1.5765  1.1259
13458TIP3    H261790   6.946   3.135   1.553 -1.1156 -0.4694 -0.6885
13459TIP3   OH261791   1.494   3.475   3.798  0.4248 -0.2744  0.9533
13459TIP3    H161792   1.429   3.437   3.738 -1.6183  0.6897  2.5135
13459TIP3    H261793   1.574   3.482   3.745 -1.1175 -0.1290 -1.4408
13460TIP3   OH261794   5.537   1.830   1.493  0.2303 -0.0299 -0.5055
13460TIP3    H161795   5.532   1.917   1.453 -1.9567  1.0668  1.9858
13460TIP3    H261796   5.576   1.845   1.579 -2.0860 -1.1503  0.7962
13461TIP3   OH261797   6.501   6.115   2.967  0.2006  0.0410 -1.0124
13461TIP3    H161798   6.596   6.114   2.953  0.2043 -0.5728 -0.9387
13461TIP3    H261799   6.489   6.178   3.039  0.6289 -0.4877 -0.4644
13462TIP3   OH261800   2.832   1.874   3.034  0.2126  0.0535 -0.0224
13462TIP3    H161801   2.877   1.935   3.091  0.3337 -0.1964  0.1525
13462TIP3    H261802   2.765   1.926   2.990 -0.1672  0.1591  0.6665
13463TIP3   OH261803   0.009   2.580   2.542  0.3888  0.1935  0.1518
13463TIP3    H161804  -0.024   2.492   2.561 -0.2056  0.3632 -0.0823
13463TIP3    H261805  -0.004   2.628   2.624 -0.8389  0.5238 -0.2238
13464TIP3   OH261806   0.862   6.662   0.768 -0.3123 -0.0750  0.1853
13464TIP3    H161807   0.929   6.716   0.727 -1.6455 -1.0046 -3.3644
13464TIP3    H261808   0.909   6.584   0.797  0.9101  1.2402  1.9114
13465TIP3   OH261809   6.528   2.661   2.152  0.5866  0.6897  0.6046
13465TIP3    H161810   6.499   2.652   2.061  0.1672 -2.1973  0.9756
13465TIP3    H261811   6.468   2.726   2.190 -1.2970 -0.4379 -0.3540
13466TIP3   OH261812   3.377   4.690   5.248 -0.1659  0.0333  0.2263
13466TIP3    H161813   3.383   4.783   5.228 -0.4601 -0.1100 -0.5704
13466TIP3    H261814   3.283   4.674   5.260 -0.5543 -0.8410 -3.2210
13467TIP3   OH261815   6.500   6.344   1.931  0.4861 -0.3056  0.0552
13467TIP3    H161816   6.412   6.308   1.919  0.5582 -0.9859  1.3796
13467TIP3    H261817   6.539   6.342   1.844 -0.1309 -1.8179 -0.2119
13468TIP3   OH261818   0.849   2.959   2.480  0.3515 -1.1295 -0.7272
13468TIP3    H161819   0.757   2.936   2.490  0.6719 -2.1041  0.1140
13468TIP3    H261820   0.880   2.905   2.407 -0.0570  0.1678 -1.8741
13469TIP3   OH261821   2.116   4.047   2.295  0.3696  0.2568  0.0404
13469TIP3    H161822   2.102   4.039   2.201  0.8899  0.4216 -0.0486
13469TIP3    H261823   2.177   3.977   2.317  0.2317  0.2026  0.2616
13470TIP3   OH261824   3.226   2.417   5.923  0.2980 -0.2493 -0.9660
13470TIP3    H161825   3.215   2.506   5.956  1.4036 -1.2000  2.1318
13470TIP3    H261826   3.316   2.415   5.890  0.1471 -0.1048 -1.3840
13471TIP3   OH261827   0.641   5.797   2.144 -0.2909 -0.4651 -0.3644
13471TIP3    H161828   0.576   5.811   2.076 -0.0789 -1.3623 -0.7647
13471TIP3    H261829   0.673   5.885   2.166 -1.8166  0.0033  0.0303
13472TIP3   OH261830   0.152   5.629   2.983 -0.3079 -0.2924  0.2598
13472TIP3    H161831   0.095   5.658   3.054  1.8019  0.5548  1.6677
13472TIP3    H261832   0.187   5.545   3.013 -0.7072 -0.7404 -0.5268
13473TIP3   OH261833   2.057   7.251   2.497 -0.5736 -0.1247  0.0784
13473TIP3    H161834   1.965   7.235   2.518 -1.3354  0.5599 -2.5414
13473TIP3    H261835   2.076   7.192   2.424  0.3442  1.4213 -0.9784
13474TIP3   OH261836   5.873   2.137   2.119 -0.1135  0.3767 -0.4427
13474TIP3    H161837   5.820   2.061   2.144  2.4478 -0.7856  1.7880
13474TIP3    H261838   5.964   2.109   2.134  0.8780  4.0641  1.1437
13475TIP3   OH261839   2.495   5.997   3.138 -0.1318 -0.0799  0.1847
13475TIP3    H161840   2.509   5.903   3.144 -0.4587 -0.0719  1.0917
13475TIP3    H261841   2.583   6.035   3.147 -0.1001 -0.2613  0.6450
13476TIP3   OH261842   6.818   3.754   2.115  0.0870  0.1620  0.2690
13476TIP3    H161843   6.744   3.774   2.171 -0.5314 -0.2780 -0.3762
13476TIP3    H261844   6.864   3.837   2.105 -2.3071  1.2673 -2.2014
13477TIP3   OH261845   0.365   4.552  15.694 -0.3884  0.1812  0.0376
13477TIP3    H161846   0.302   4.575  15.626 -1.5356 -0.6872  0.7842
13477TIP3    H261847   0.405   4.635  15.719 -1.2986  0.7547 -0.3987
13478TIP3   OH261848   7.264   5.898   1.012  0.3716 -0.1469 -0.0249
13478TIP3    H161849   7.220   5.816   0.989 -0.2625 -0.1692  1.2242
13478TIP3    H261850   7.333   5.907   0.946 -0.0423 -1.2855 -0.6365
13479TIP3   OH261851   5.575   3.797   2.586  0.3251  0.2083  0.3065
13479TIP3    H161852   5.613   3.747   2.514 -0.4512 -1.2278  0.8533
13479TIP3    H261853   5.487   3.819   2.556  0.0926 -0.1671  0.6939
13480TIP3   OH261854   2.366   6.420   4.916 -0.7232 -0.0671 -0.1155
13480TIP3    H161855   2.391   6.469   4.995  0.1416 -1.0651  0.2334
13480TIP3    H261856   2.279   6.454   4.893  0.4065  2.5794 -0.6361
13481TIP3   OH261857   6.596   5.792   0.348  0.6200 -0.4896 -0.1595
13481TIP3    H161858   6.549   5.755   0.274  1.3401 -0.9317 -0.4046
13481TIP3    H261859   6.675   5.830   0.309 -0.0712  1.2385  0.0958
13482TIP3   OH261860   0.953   2.273   4.531  0.2386  0.7146 -0.0412
13482TIP3    H161861   0.927   2.190   4.572 -1.5855 -0.1757 -2.9016
13482TIP3    H261862   1.021   2.249   4.468 -1.1301  1.1987 -1.7277
13483TIP3   OH261863   4.776   0.435   1.659  1.2944 -0.2415 -0.0258
13483TIP3    H161864   4.836   0.509   1.650 -0.5283  1.0443 -2.0185
13483TIP3    H261865   4.793   0.380   1.583 -0.5819  0.5691 -1.0791
13484TIP3   OH261866   1.911   7.104   5.271  0.0129  0.1213 -0.3434
13484TIP3    H161867   1.915   7.197   5.251  0.9961  0.1288 -0.1711
13484TIP3    H261868   1.819   7.081   5.263 -0.3007  1.2096  0.0746
13485TIP3   OH261869   2.311   2.165   2.568  0.7857 -0.3861 -0.0019
13485TIP3    H161870   2.382   2.113   2.530  2.6446  0.6597  2.0037
13485TIP3    H261871   2.310   2.245   2.516 -0.2609 -1.2261 -1.3090
13486TIP3   OH261872   2.493   3.136  15.791 -0.0060 -0.5334  0.3695
13486TIP3    H161873   2.440   3.201  15.837 -0.2278 -1.2324  1.1100
13486TIP3    H261874   2.567   3.120  15.850 -0.0084 -1.0326  0.2372
13487TIP3   OH261875   6.591   1.123   0.570  0.5075  0.5657 -0.4412
13487TIP3    H161876   6.552   1.193   0.517 -1.5644  1.0327  1.5858
13487TIP3    H261877   6.651   1.078   0.511 -0.4812  2.1020 -2.6865
13488TIP3   OH261878   6.294   2.017   0.609 -0.0406 -0.0764 -0.3575
13488TIP3    H161879   6.255   1.992   0.525  1.4958 -0.1524 -1.0724
13488TIP3    H261880   6.368   2.073   0.585  1.0841 -0.9972  0.8898
13489TIP3   OH261881   5.894   2.124   3.427 -0.5802 -0.7570 -0.3178
13489TIP3    H161882   5.978   2.167   3.411 -0.7161 -0.8115 -1.2241
13489TIP3    H261883   5.915   2.051   3.484 -0.4770  1.0152  2.0009
13490TIP3   OH261884   6.979   3.373   2.725  0.2318 -0.6686 -0.0950
13490TIP3    H161885   7.009   3.313   2.792 -0.1597  0.4942  1.1441
13490TIP3    H261886   6.888   3.348   2.709  0.5601 -1.4507 -0.7720
13491TIP3   OH261887   3.743   6.744   5.020  0.1809 -0.4230  0.6016
13491TIP3    H161888   3.669   6.705   5.066 -0.7233 -1.2996 -1.4929
13491TIP3    H261889   3.750   6.694   4.939  2.5136  0.2404  0.3444
13492TIP3   OH261890   6.531   0.988   1.745  0.0207  0.0419 -0.5949
13492TIP3    H161891   6.465   1.046   1.783 -1.3436 -0.9358 -1.3822
13492TIP3    H261892   6.606   0.995   1.803 -1.0206  0.6885  0.7127
13493TIP3   OH261893   2.919   4.938  14.813  0.4873  0.4128 -0.0550
13493TIP3    H161894   2.889   4.975  14.896 -0.1990 -2.4127  0.9875
13493TIP3    H261895   2.852   4.965  14.749  0.3397  1.4903  0.5467
13494TIP3   OH261896   0.276   5.530   4.130 -0.0175 -0.2736  0.0689
13494TIP3    H161897   0.353   5.547   4.183  0.2992 -0.9537 -0.1638
13494TIP3    H261898   0.305   5.543   4.040 -0.6302  1.1621  0.0700
13495TIP3   OH261899   2.751   2.161   1.507 -0.0946 -0.4070 -0.2057
13495TIP3    H161900   2.673   2.216   1.514 -0.0299 -0.2905 -0.4075
13495TIP3    H261901   2.824   2.220   1.523 -0.1163 -0.8216  1.5736
13496TIP3   OH261902   4.932   2.559   3.553  0.4399  0.5894 -0.5713
13496TIP3    H161903   5.025   2.544   3.535  0.6316 -0.0657  0.9286
13496TIP3    H261904   4.900   2.475   3.586 -0.9999  0.4322 -2.2939
13497TIP3   OH261905   3.864   3.684   1.179 -0.2618  0.3187  0.3236
13497TIP3    H161906   3.895   3.603   1.219 -1.3456  0.5544  1.6451
13497TIP3    H261907   3.815   3.655   1.102 -1.8271 -0.3645  1.5558
13498TIP3   OH261908   1.421   1.415   2.821  0.0082  0.1823  0.5446
13498TIP3    H161909   1.481   1.392   2.892 -0.2307  0.0303  0.7002
13498TIP3    H261910   1.338   1.374   2.846 -0.0352 -0.0083  0.0940
13499TIP3   OH261911   6.355   5.724  15.934 -0.3865 -0.2867  0.1752
13499TIP3    H161912   6.343   5.816  15.955  1.6109  0.3291 -1.2634
13499TIP3    H261913   6.309   5.712  15.851  1.3004 -0.0081 -0.8251
13500TIP3   OH261914   3.220   5.456   1.721 -0.3680 -0.0109  0.2213
13500TIP3    H161915   3.196   5.456   1.629 -1.3430  3.7373  0.4316
13500TIP3    H261916   3.137   5.456   1.768  0.1234 -0.8724  1.1117
13501TIP3   OH261917   0.584   4.828   2.085 -0.0735 -0.0422  0.2356
13501TIP3    H161918   0.546   4.745   2.058 -1.0412  0.0015  1.4212
13501TIP3    H261919   0.511   4.878   2.120  0.9323  0.3140  1.8781
13502TIP3   OH261920   0.840   4.822   1.099 -0.3335 -0.2594 -0.2510
13502TIP3    H161921   0.918   4.874   1.115 -0.8251  0.4473 -0.1360
13502TIP3    H261922   0.802   4.809   1.186  0.3694 -1.7424 -0.1450
13503TIP3   OH261923   5.440   1.406   4.747  0.0559 -0.3148 -0.2454
13503TIP3    H161924   5.412   1.457   4.823  0.5996  1.4996 -1.2171
13503TIP3    H261925   5.529   1.436   4.729 -0.0723 -0.6981 -1.5991
13504TIP3   OH261926   1.982   2.978   1.122 -0.2237  0.3740 -0.0361
13504TIP3    H161927   2.066   3.018   1.145 -0.5662  0.5726  0.9043
13504TIP3    H261928   1.934   3.047   1.077 -0.2389  0.5527  0.2538
13505TIP3   OH261929   6.320   4.482   0.139  0.2456 -0.4146  0.2089
13505TIP3    H161930   6.337   4.430   0.060 -1.7953  0.5551 -0.9149
13505TIP3    H261931   6.406   4.513   0.167  1.2081 -2.3018 -0.5456
13506TIP3   OH261932   1.810   7.276   6.359 -0.1706  0.1688  0.0263
13506TIP3    H161933   1.735   7.218   6.346  0.0044 -0.9077  3.3119
13506TIP3    H261934   1.771   7.359   6.386 -0.2718  0.3640 -0.7188
13507TIP3   OH261935   3.113   5.170   0.590  0.4349 -0.2941  0.0112
13507TIP3    H161936   3.081   5.212   0.511 -0.5327  2.2774  1.7159
13507TIP3    H261937   3.053   5.097   0.605 -0.9139  0.7355 -0.2659
13508TIP3   OH261938   0.540   0.046   1.999 -0.1506  0.0467  0.2289
13508TIP3    H161939   0.511  -0.046   2.001 -1.6359  0.4743 -0.9230
13508TIP3    H261940   0.632   0.042   2.023 -0.0892 -1.8043 -0.2195
13509TIP3   OH261941   4.126   4.983   1.459  0.5564 -0.1790 -0.3482
13509TIP3    H161942   4.212   5.023   1.448  0.0433  1.5443  1.5202
13509TIP3    H261943   4.069   5.030   1.397  0.7663 -0.6849 -0.9243
13510TIP3   OH261944   2.793   0.796   3.126 -0.4876 -0.2954  0.6751
13510TIP3    H161945   2.802   0.882   3.167  1.7687  0.2071 -0.7797
13510TIP3    H261946   2.725   0.807   3.059  0.1468  0.5050  0.1570
13511TIP3   OH261947   3.805   0.178   3.549 -0.3857  0.2484  0.1872
13511TIP3    H161948   3.737   0.242   3.530  0.3431  0.4691 -1.8014
13511TIP3    H261949   3.801   0.166   3.644 -0.9333  2.7656  0.5119
13512TIP3   OH261950   5.232   6.901   1.310  0.4153 -0.4458 -0.4172
13512TIP3    H161951   5.271   6.823   1.268  1.2850 -0.4095  0.2960
13512TIP3    H261952   5.284   6.913   1.389 -0.7604 -0.0890  0.3035
13513TIP3   OH261953   1.656   0.418  15.951 -0.1516  0.0109 -0.3849
13513TIP3    H161954   1.578   0.431  15.897 -1.0608 -0.7436  0.7492
13513TIP3    H261955   1.680   0.327  15.938  0.0817  0.0309 -0.0970
13514TIP3   OH261956   2.474   5.502   2.425 -0.1966  0.5618 -0.1756
13514TIP3    H161957   2.544   5.477   2.364 -0.3154 -0.9524  0.2879
13514TIP3    H261958   2.477   5.598   2.426  1.2708  0.5466 -0.8649
13515TIP3   OH261959   7.077   1.187   2.710  1.0250  0.5723 -0.3650
13515TIP3    H161960   7.027   1.160   2.788  0.5405 -0.7857 -1.1276
13515TIP3    H261961   7.168   1.188   2.739  0.7547  1.1928  0.5190
13516TIP3   OH261962   0.647   2.735   0.319 -0.7541  0.4584 -0.4653
13516TIP3    H161963   0.729   2.688   0.306 -0.6785  0.4267  0.0843
13516TIP3    H261964   0.673   2.827   0.324 -0.5366  0.3280  1.3184
13517TIP3   OH261965   2.475   3.911   1.400  0.1939 -0.2350  0.5292
13517TIP3    H161966   2.427   3.844   1.351  0.2786  0.4562 -0.5024
13517TIP3    H261967   2.556   3.925   1.350 -0.1863  1.2110  0.2980
13518TIP3   OH261968   0.017   2.798   4.547  0.1517  0.3333 -0.4282
13518TIP3    H161969  -0.051   2.767   4.487  1.2073 -3.2596  0.1453
13518TIP3    H261970   0.097   2.797   4.495  0.6840 -0.6782  0.3869
13519TIP3   OH261971   2.637   3.426  15.588  0.4514 -0.6186  0.2300
13519TIP3    H161972   2.571   3.360  15.569  0.1398 -0.3422  0.3576
13519TIP3    H261973   2.719   3.388  15.556  0.2167 -0.9186 -0.0144
13520TIP3   OH261974   1.058   1.117   4.208 -0.2685  0.5449 -0.0579
13520TIP3    H161975   1.120   1.080   4.145 -0.6374 -1.5222  0.7370
13520TIP3    H261976   1.058   1.054   4.280  0.7226  3.2254  2.3731
13521TIP3   OH261977   3.080   1.547  15.814  0.1050  0.3666  0.6270
13521TIP3    H161978   3.053   1.605  15.742  0.5832 -0.5432 -0.3067
13521TIP3    H261979   3.048   1.590  15.893 -0.9575  1.0960 -0.1778
13522TIP3   OH261980   7.071   0.112   3.580  0.3931  0.6712 -0.2688
13522TIP3    H161981   7.000   0.084   3.523 -0.3774  1.9393  0.0687
13522TIP3    H261982   7.036   0.099   3.669  0.8908  0.5255 -0.0912
13523TIP3   OH261983   1.452   1.109   2.620  0.0438  0.1287 -0.1684
13523TIP3    H161984   1.416   1.110   2.709  0.6706 -1.5604  0.1299
13523TIP3    H261985   1.534   1.060   2.628  0.3936  0.4750 -1.5737
13524TIP3   OH261986   0.321   7.271   4.436 -0.3814 -0.0232 -0.0972
13524TIP3    H161987   0.283   7.295   4.520  1.1300 -0.6821  0.7920
13524TIP3    H261988   0.413   7.252   4.455 -0.2380 -1.1223 -1.7159
13525TIP3   OH261989   1.973   5.832  15.902  0.6130 -0.0061 -0.2624
13525TIP3    H161990   2.065   5.838  15.928  0.7794 -0.5273 -0.7419
13525TIP3    H261991   1.926   5.878  15.972  1.1721 -0.3245  0.3239
13526TIP3   OH261992   3.283   4.349   0.825  0.3984  0.1979 -0.1174
13526TIP3    H161993   3.344   4.283   0.791 -1.3129 -2.2063  1.3602
13526TIP3    H261994   3.237   4.382   0.747  2.3113  0.7773 -1.0340
13527TIP3   OH261995   2.591   1.161   2.491  0.6529  0.3865 -0.5481
13527TIP3    H161996   2.653   1.207   2.547  0.0842  2.2973 -1.4585
13527TIP3    H261997   2.598   1.069   2.517 -0.0517  1.3017  3.1280
13528TIP3   OH261998   5.798   4.601   5.081  0.0686 -0.9475  0.3604
13528TIP3    H161999   5.716   4.566   5.045  0.7455 -1.7355 -0.4617
13528TIP3    H262000   5.865   4.572   5.018  0.8149  0.7385  0.3704
13529TIP3   OH262001   2.070   4.373   4.337 -0.0060  0.4060 -0.0886
13529TIP3    H162002   2.146   4.323   4.367 -0.4919 -0.9037 -0.9618
13529TIP3    H262003   1.997   4.311   4.343 -0.4664  0.7241 -2.0563
13530TIP3   OH262004   2.098   0.352   5.230  0.0767 -0.1667  0.6264
13530TIP3    H162005   2.133   0.363   5.142 -1.2179  0.1032  0.1390
13530TIP3    H262006   2.119   0.261   5.253 -1.7668 -1.0139 -0.9499
13531TIP3   OH262007   1.855   0.522   1.706  0.1024  0.2232  0.7102
13531TIP3    H162008   1.763   0.508   1.727 -0.1031 -0.3691 -0.5938
13531TIP3    H262009   1.854   0.569   1.623  0.9365  2.2823  1.8056
13532TIP3   OH262010   3.424   0.016   2.003 -0.3506  0.2419 -0.2605
13532TIP3    H162011   3.492   0.057   1.949  0.2606  1.5574  1.4365
13532TIP3    H262012   3.346   0.069   1.989 -0.6719 -0.4899 -1.2204
13533TIP3   OH262013   6.275   6.330   0.028 -0.3107 -0.5084 -0.2021
13533TIP3    H162014   6.313   6.389   0.093 -0.1401 -1.0978  0.2339
13533TIP3    H262015   6.182   6.351   0.027  0.1043  1.4588 -1.7993
13534TIP3   OH262016   3.258   5.429   3.392  0.3139 -0.5314  0.5152
13534TIP3    H162017   3.221   5.380   3.319 -0.8126  0.0620  0.6713
13534TIP3    H262018   3.337   5.381   3.416 -1.1973 -2.7815  1.2078
13535TIP3   OH262019   5.290   1.514   0.484  0.2597  0.4174  0.0882
13535TIP3    H162020   5.339   1.437   0.454  2.2953  0.7280  2.4358
13535TIP3    H262021   5.337   1.588   0.445  0.1562  0.6027  0.3175
13536TIP3   OH262022   2.479   6.810   5.378  0.8730  0.2596  0.2339
13536TIP3    H162023   2.426   6.754   5.322  3.7824 -0.6819 -1.6886
13536TIP3    H262024   2.417   6.873   5.414 -1.2985  0.1116 -3.0579
13537TIP3   OH262025   7.300   2.038   2.996 -0.5846 -0.3908  0.1460
13537TIP3    H162026   7.327   2.026   3.087  1.2395  1.9223 -0.0551
13537TIP3    H262027   7.246   1.962   2.977  1.5965 -2.5175  2.1768
13538TIP3   OH262028   0.932   3.168   1.700  1.1889 -0.0824 -0.3712
13538TIP3    H162029   0.918   3.083   1.659  0.6624 -0.1432 -0.0757
13538TIP3    H262030   1.026   3.172   1.716  1.3314 -0.2328 -1.1945
13539TIP3   OH262031   7.098   5.582  15.028  0.3239  0.1981  0.0568
13539TIP3    H162032   7.089   5.576  15.123  1.1172  0.8272  0.1744
13539TIP3    H262033   7.188   5.552  15.011  0.2856  0.3818 -0.4651
13540TIP3   OH262034   2.093   1.396   5.270  0.1455 -0.4591 -0.7465
13540TIP3    H162035   2.068   1.309   5.239  2.8543 -0.6160 -2.6398
13540TIP3    H262036   2.171   1.382   5.323  0.4934  0.7860 -0.9048
13541TIP3   OH262037   2.081   4.969   5.616 -0.1023 -0.0347  0.4903
13541TIP3    H162038   2.079   4.873   5.610 -2.2827 -0.1114  1.7533
13541TIP3    H262039   1.991   4.995   5.594  0.7610  1.7994 -0.9349
13542TIP3   OH262040   7.218   6.836   3.808 -0.6616  0.4845 -0.1087
13542TIP3    H162041   7.229   6.909   3.869 -0.7960  0.3976  0.0192
13542TIP3    H262042   7.142   6.788   3.841  0.7918 -1.0225  1.1198
13543TIP3   OH262043   2.361   0.273   3.953  0.1610  0.0273 -0.0060
13543TIP3    H162044   2.378   0.188   3.994  0.0376  0.3575  0.7232
13543TIP3    H262045   2.410   0.270   3.871  2.0473  0.1576  1.0936
13544TIP3   OH262046   7.045   5.875   0.500  0.3686 -0.6360 -0.2760
13544TIP3    H162047   7.021   5.806   0.562 -0.4927  1.7411  2.1515
13544TIP3    H262048   7.137   5.892   0.517  0.5727 -1.1497 -0.8502
13545TIP3   OH262049   0.121   6.780   2.944  0.0378  0.0673  0.0311
13545TIP3    H162050   0.099   6.758   3.035 -1.0522 -0.2691 -0.3029
13545TIP3    H262051   0.042   6.757   2.894  0.1430  1.4415 -0.8177
13546TIP3   OH262052   5.200   0.166   2.712  0.2187  0.2046  0.1572
13546TIP3    H162053   5.161   0.155   2.625  1.3376  3.2396 -0.8019
13546TIP3    H262054   5.266   0.097   2.719  2.0837  1.6296 -2.5959
13547TIP3   OH262055   6.995   0.293   1.536 -0.6091  0.2529  0.1675
13547TIP3    H162056   6.923   0.239   1.569  0.4631 -0.8634  0.7412
13547TIP3    H262057   7.074   0.252   1.573  0.4306  0.5364 -1.7052
13548TIP3   OH262058   4.975   1.539   1.380 -0.0858 -0.3436 -0.2855
13548TIP3    H162059   4.902   1.486   1.351 -0.8106 -0.1336  1.1263
13548TIP3    H262060   4.941   1.589   1.454  1.5525 -0.4380  0.5558
13549TIP3   OH262061   7.073   6.136   1.776  0.0741 -0.4815  0.3249
13549TIP3    H162062   7.085   6.069   1.844  2.0702  0.9848  1.4698
13549TIP3    H262063   7.158   6.178   1.769 -0.6941  0.7891 -1.6377
13550TIP3   OH262064   4.037   0.719   2.296  0.3989  0.1892 -0.4593
13550TIP3    H162065   4.124   0.747   2.268  0.4491  0.6027  0.0856
13550TIP3    H262066   4.004   0.793   2.347 -0.0494 -0.1801 -0.2082
13551TIP3   OH262067   6.842   0.414   2.772  0.2793 -0.4240  0.1664
13551TIP3    H162068   6.914   0.473   2.747 -0.5747  1.4493  1.9197
13551TIP3    H262069   6.883   0.328   2.777  1.6166  0.0034 -2.3056
13552TIP3   OH262070   7.142   3.579   1.774  0.0888  0.3181 -0.1043
13552TIP3    H162071   7.155   3.500   1.722 -0.8010  0.5212 -0.6393
13552TIP3    H262072   7.092   3.550   1.850  1.4634  0.0046  0.7000
13553TIP3   OH262073   0.461   1.876   2.614  0.0682 -0.1033  0.5673
13553TIP3    H162074   0.399   1.840   2.677  0.3927 -0.9503  0.4140
13553TIP3    H262075   0.420   1.957   2.584 -0.0605  0.3325  1.8988
13554TIP3   OH262076   1.879   6.804   4.642  0.1632  0.2311 -0.4290
13554TIP3    H162077   1.891   6.717   4.679  1.2420 -0.3813 -2.1583
13554TIP3    H262078   1.967   6.833   4.620 -0.2339  1.5635 -0.3064
13555TIP3   OH262079   0.082   5.694   4.831  0.2839  0.0163 -0.1205
13555TIP3    H162080   0.100   5.623   4.893 -1.0090 -0.3959 -0.2011
13555TIP3    H262081   0.165   5.706   4.785  0.2318 -2.2409 -0.8961
13556TIP3   OH262082   1.488   5.675   3.275  0.0668  0.6240  0.4190
13556TIP3    H162083   1.477   5.607   3.208  1.6313  0.0827  0.6913
13556TIP3    H262084   1.470   5.757   3.229  1.3051  0.2695 -0.7360
13557TIP3   OH262085   6.801   1.079   2.036  0.1551  0.0014  0.0788
13557TIP3    H162086   6.852   1.053   2.112  2.2121  3.5822  0.0648
13557TIP3    H262087   6.812   1.008   1.974  0.7382 -1.6973  2.0789
13558TIP3   OH262088   5.991   0.565   2.581 -0.0981  0.6098  0.0666
13558TIP3    H162089   6.016   0.565   2.489 -0.7483  0.5878 -0.1105
13558TIP3    H262090   6.074   0.574   2.628  0.0338  3.3221 -0.5923
13559TIP3   OH262091   4.648   0.215   5.505 -0.1073  0.1464  0.7681
13559TIP3    H162092   4.660   0.218   5.600  0.3282 -0.6465  0.7471
13559TIP3    H262093   4.555   0.234   5.492 -0.4183 -0.8628  1.4355
13560TIP3   OH262094   6.112   4.882  14.232 -0.5082 -0.4210 -0.8872
13560TIP3    H162095   6.134   4.971  14.260 -0.4738 -0.8353  0.4283
13560TIP3    H262096   6.025   4.890  14.194 -0.5681  0.1538 -0.6317
13561TIP3   OH262097   5.379   2.314   3.081  0.4433  0.0603  0.2181
13561TIP3    H162098   5.304   2.256   3.082  0.5281 -0.0218  1.7114
13561TIP3    H262099   5.454   2.258   3.102  0.9202  0.1786 -1.0712
13562TIP3   OH262100   5.898   6.542   5.116  0.4077 -0.1990  0.7752
13562TIP3    H162101   5.876   6.636   5.120  1.0647  0.0444 -0.7570
13562TIP3    H262102   5.929   6.521   5.204  1.2721  1.2893  0.8439
13563TIP3   OH262103   1.674   2.227   3.670  0.3591 -0.2935  0.0769
13563TIP3    H162104   1.749   2.279   3.640  0.2938 -1.1859 -1.7280
13563TIP3    H262105   1.712   2.152   3.715  0.5209 -0.2385  0.0318
13564TIP3   OH262106   3.525   7.017   3.934 -0.2438  0.1819  0.4679
13564TIP3    H162107   3.595   6.980   3.988  0.4336 -0.3195 -0.7272
13564TIP3    H262108   3.493   7.092   3.984  1.6789  0.8821  0.6858
13565TIP3   OH262109   1.946   0.054   5.157 -0.1837  0.5229  0.1988
13565TIP3    H162110   1.905   0.068   5.072 -1.1782 -2.1976  0.1812
13565TIP3    H262111   2.039   0.067   5.142 -0.4333  0.8206 -1.1237
13566TIP3   OH262112   1.912   0.797  15.917 -0.2906  0.3007  0.0245
13566TIP3    H162113   1.979   0.759  15.974 -2.2443  0.0749  2.2570
13566TIP3    H262114   1.857   0.722  15.892 -2.5728  1.1287  2.2684
13567TIP3   OH262115   5.628   5.572   4.218 -0.3903 -0.1903 -0.2494
13567TIP3    H162116   5.587   5.600   4.300  0.0870 -0.7767  0.1864
13567TIP3    H262117   5.555   5.564   4.156 -1.2423 -3.2540  1.0628
13568TIP3   OH262118   1.064   0.937   4.429 -0.3786  0.4958  0.5506
13568TIP3    H162119   0.990   0.886   4.395 -0.5542  1.5232 -0.6364
13568TIP3    H262120   1.123   0.871   4.466 -0.9299 -0.5175 -0.3438
13569TIP3   OH262121   2.003   5.580   1.958  0.1765 -0.2067 -0.6383
13569TIP3    H162122   1.910   5.567   1.976  0.0178  1.4350 -0.1642
13569TIP3    H262123   2.030   5.502   1.910 -1.1573 -1.2416  0.2959
13570TIP3   OH262124   2.664   6.138   5.341 -0.4872  0.1246  0.4262
13570TIP3    H162125   2.605   6.191   5.395 -0.1673  1.0432 -0.1187
13570TIP3    H262126   2.720   6.202   5.296  0.3764 -0.7073  0.3112
13571TIP3   OH262127   6.008   0.799   4.236 -0.1785  0.4206  0.7757
13571TIP3    H162128   6.103   0.804   4.245 -0.1412 -1.4171  1.5604
13571TIP3    H262129   5.978   0.757   4.316 -1.5564  0.0192  0.0652
13572TIP3   OH262130   1.421   2.169   4.832 -0.0631 -0.1392  0.0390
13572TIP3    H162131   1.515   2.164   4.850 -0.2329 -1.0262  0.7257
13572TIP3    H262132   1.398   2.260   4.854  0.5151 -0.0944  0.4921
13573TIP3   OH262133   2.357   5.055   1.225  0.4500 -0.4166 -0.5396
13573TIP3    H162134   2.300   5.026   1.296  2.1951 -1.0040  0.6520
13573TIP3    H262135   2.330   5.145   1.208  0.1185 -0.2023  1.0093
13574TIP3   OH262136   4.068   0.022   1.301 -0.3118  0.1284 -0.0032
13574TIP3    H162137   3.980   0.025   1.262 -0.2294 -1.1122 -0.3055
13574TIP3    H262138   4.052   0.003   1.394 -0.3259 -1.5527 -0.3237
13575TIP3   OH262139   5.195   1.353   1.351  0.5542 -0.0153  0.8505
13575TIP3    H162140   5.159   1.314   1.431 -0.6943 -1.5151 -0.4112
13575TIP3    H262141   5.142   1.431   1.336  0.4041 -0.0544  1.1697
13576TIP3   OH262142   0.540   6.646   1.919 -0.5965 -0.1924  0.5425
13576TIP3    H162143   0.610   6.695   1.877 -0.1169 -1.2493  0.0981
13576TIP3    H262144   0.530   6.686   2.005  0.3279  0.1722  0.4779
13577TIP3   OH262145   5.402   0.921   3.685 -0.1902  0.2490 -0.2867
13577TIP3    H162146   5.357   0.900   3.767  0.8543  1.6216  0.6462
13577TIP3    H262147   5.473   0.858   3.680 -2.0963 -1.8730 -1.7204
13578TIP3   OH262148   0.118   2.660  15.610 -0.0972  0.4371  0.1253
13578TIP3    H162149   0.073   2.743  15.598 -1.1414 -0.1362  0.0112
13578TIP3    H262150   0.086   2.605  15.538  0.8180  0.0311  0.0201
13579TIP3   OH262151   4.567   2.606   3.159 -0.0366  0.2065 -0.3902
13579TIP3    H162152   4.595   2.664   3.088 -0.8343  0.8487 -0.1943
13579TIP3    H262153   4.552   2.521   3.118  0.6165  0.2818 -0.7802
13580TIP3   OH262154   0.005   1.119  15.754  0.1387  0.4440 -0.3526
13580TIP3    H162155   0.034   1.130  15.663  0.5517 -1.1959 -0.4354
13580TIP3    H262156  -0.076   1.069  15.747  0.0386  0.5324  0.1768
13581TIP3   OH262157   1.505   0.817   3.164  0.1404  0.1284  0.6142
13581TIP3    H162158   1.467   0.903   3.145 -1.2105 -0.3157  1.2162
13581TIP3    H262159   1.458   0.757   3.106  1.2143 -0.1744  0.0592
13582TIP3   OH262160   7.280   0.486   0.268 -0.5623  0.1713 -0.2090
13582TIP3    H162161   7.290   0.516   0.358  0.3298 -0.3793 -0.1239
13582TIP3    H262162   7.262   0.566   0.218 -1.2799  0.4545  0.4787
13583TIP3   OH262163   6.764   1.820   4.288 -0.5222 -0.1132 -0.5127
13583TIP3    H162164   6.840   1.765   4.307 -1.4784 -1.0584  0.6429
13583TIP3    H262165   6.754   1.876   4.364 -0.8322  0.1792 -0.7657
13584TIP3   OH262166   1.646   5.827   0.385 -0.6743 -0.2767 -0.6327
13584TIP3    H162167   1.663   5.828   0.479  2.3352 -1.6216 -1.0829
13584TIP3    H262168   1.551   5.828   0.377 -0.9770  1.1987  2.3754
13585TIP3   OH262169   7.021   1.930   3.861  0.2976  0.0746 -0.8695
13585TIP3    H162170   7.095   1.981   3.826  0.2300  1.3705  0.8422
13585TIP3    H262171   6.947   1.955   3.805  0.4525  1.2163 -0.5811
13586TIP3   OH262172   6.584   3.541  15.268 -0.2819  0.1959 -0.1927
13586TIP3    H162173   6.513   3.526  15.206  1.0022 -1.6165 -1.2396
13586TIP3    H262174   6.554   3.500  15.349 -0.9157  0.4468 -0.2987
13587TIP3   OH262175   3.045   2.644   0.813  0.2622  0.4938  0.0635
13587TIP3    H162176   3.094   2.705   0.868  2.4793 -1.5382  0.4303
13587TIP3    H262177   3.079   2.557   0.837 -2.6919 -0.8932 -0.5484
13588TIP3   OH262178   7.173   1.001   1.100  0.4009 -0.7549  0.3538
13588TIP3    H162179   7.179   0.925   1.157  1.3235 -1.1926 -0.3136
13588TIP3    H262180   7.170   1.076   1.159  0.4644 -1.2574  0.9920
13589TIP3   OH262181   3.602   1.533   2.926 -0.5959 -0.2741 -0.2688
13589TIP3    H162182   3.519   1.576   2.906 -0.0527  0.1756 -1.6697
13589TIP3    H262183   3.591   1.498   3.014 -1.8910  0.7023 -0.0260
13590TIP3   OH262184   6.685   2.367   0.069  0.0717 -0.2976  0.1506
13590TIP3    H162185   6.700   2.372  -0.026 -2.0876 -0.2606 -0.2243
13590TIP3    H262186   6.655   2.277   0.083  0.6202 -0.3716  0.8419
13591TIP3   OH262187   3.380   6.054   3.579  0.3252  0.1800 -0.0927
13591TIP3    H162188   3.368   5.974   3.630 -0.0372  1.3439  1.7055
13591TIP3    H262189   3.456   6.096   3.619  0.6638  0.6132 -1.1865
13592TIP3   OH262190   1.318   0.443   2.201 -0.3552  1.0899 -0.0114
13592TIP3    H162191   1.385   0.487   2.253 -1.4172  1.5468  0.9909
13592TIP3    H262192   1.251   0.510   2.187 -0.8463  0.4857 -0.5753
13593TIP3   OH262193   6.844   6.483   0.444  0.4599 -0.0710 -0.5142
13593TIP3    H162194   6.922   6.486   0.498 -0.0455  1.8855  0.1371
13593TIP3    H262195   6.867   6.532   0.365 -0.1971  0.7379 -0.2033
13594TIP3   OH262196   4.339   5.071   0.662 -0.4320 -0.4589  0.2240
13594TIP3    H162197   4.318   5.007   0.730 -0.1812  0.4772  1.1883
13594TIP3    H262198   4.323   5.156   0.703 -1.4413  0.0953 -1.2661
13595TIP3   OH262199   0.401   1.594  15.104 -0.2668 -0.3528 -0.5589
13595TIP3    H162200   0.340   1.525  15.078 -0.3030 -0.0429 -1.2887
13595TIP3    H262201   0.408   1.651  15.028 -1.5904  1.4574  0.6183
13596TIP3   OH262202   0.927   5.497   4.175  0.0125 -0.0414  0.3893
13596TIP3    H162203   0.970   5.508   4.090  0.7604  0.3403  0.8100
13596TIP3    H262204   0.975   5.555   4.234 -1.0891  0.3778  0.8765
13597TIP3   OH262205   2.426   1.049   1.821  0.4653  0.5264 -0.6382
13597TIP3    H162206   2.432   1.110   1.895 -0.0412  0.7181 -0.7500
13597TIP3    H262207   2.389   1.101   1.750 -2.3377 -0.5227 -0.0122
13598TIP3   OH262208   6.410   6.726   3.937  0.8455  0.0678 -0.1904
13598TIP3    H162209   6.328   6.729   3.887 -0.0532 -1.0635  1.1662
13598TIP3    H262210   6.468   6.786   3.891 -0.4840  0.2730 -1.6513
13599TIP3   OH262211   6.895   6.356   3.076 -0.0539 -0.5383  0.5269
13599TIP3    H162212   6.911   6.274   3.029 -0.4101  0.4211 -1.3428
13599TIP3    H262213   6.922   6.424   3.015  0.5361  0.7454  2.1837
13600TIP3   OH262214   6.527   6.741   2.232 -0.2883  0.2878  0.0299
13600TIP3    H162215   6.452   6.696   2.272 -0.3110  0.1473 -0.1671
13600TIP3    H262216   6.574   6.672   2.186  1.6383 -0.2361  2.6035
13601TIP3   OH262217   1.397   2.260   1.940  0.7450  0.0498  0.2916
13601TIP3    H162218   1.361   2.203   2.008 -0.4325 -0.6111 -0.8465
13601TIP3    H262219   1.421   2.201   1.869  0.1256  0.8828 -0.6394
13602TIP3   OH262220   4.654   2.604   3.450 -0.0167 -0.4959  0.4425
13602TIP3    H162221   4.675   2.649   3.368  0.0842 -1.3369  0.0064
13602TIP3    H262222   4.737   2.599   3.497  0.7989 -3.6466 -1.1925
13603TIP3   OH262223   6.683   4.620  14.037 -0.5209  0.1171  0.3980
13603TIP3    H162224   6.620   4.556  14.005 -0.4641  0.4954 -0.5062
13603TIP3    H262225   6.768   4.589  14.005 -0.3646  0.1017  0.8236
13604TIP3   OH262226   4.485   4.617   2.679 -0.0952  0.1569 -0.6797
13604TIP3    H162227   4.515   4.659   2.760  1.1564 -1.6957 -0.1480
13604TIP3    H262228   4.526   4.667   2.609  0.5854  0.4293 -0.0915
13605TIP3   OH262229   0.403   0.790   1.309 -0.0944 -0.6607 -0.4797
13605TIP3    H162230   0.334   0.732   1.340  0.3425 -0.7300  0.3774
13605TIP3    H262231   0.359   0.874   1.293 -0.6075 -1.0474 -1.1298
13606TIP3   OH262232   3.383   1.346   3.745  0.3177 -0.2215 -0.3503
13606TIP3    H162233   3.376   1.256   3.776 -0.5768 -0.4488 -1.1892
13606TIP3    H262234   3.299   1.386   3.767 -0.1262 -0.2374 -1.9823
13607TIP3   OH262235   2.580   6.188   5.670 -0.1648  0.7283  0.0057
13607TIP3    H162236   2.486   6.172   5.673 -0.5308  2.7070 -0.2324
13607TIP3    H262237   2.605   6.201   5.762  0.1733 -1.2251  0.2242
13608TIP3   OH262238   0.830   4.038   4.575 -0.0302 -0.8216  0.0541
13608TIP3    H162239   0.847   3.969   4.638  0.9862  1.1261  1.9768
13608TIP3    H262240   0.834   4.119   4.626 -1.1201  0.6752 -2.1380
13609TIP3   OH262241   5.516   6.546   3.090  0.6614 -0.0035  0.4009
13609TIP3    H162242   5.570   6.600   3.033 -0.3191  0.0110 -0.5148
13609TIP3    H262243   5.426   6.573   3.072  0.2063 -1.4724  0.4132
13610TIP3   OH262244   1.780   0.891   3.567 -0.1540  0.2793  0.9716
13610TIP3    H162245   1.743   0.874   3.480  0.5313  0.5347  0.6308
13610TIP3    H262246   1.778   0.986   3.576  1.3154  0.3530  0.5576
13611TIP3   OH262247   6.633   1.148   4.223 -0.3150  0.2008  0.3030
13611TIP3    H162248   6.618   1.069   4.275  2.7237 -1.1383 -0.7082
13611TIP3    H262249   6.581   1.134   4.144  0.1186 -0.7263  0.1779
13612TIP3   OH262250   4.030   1.483   4.498  0.3627 -0.3416 -0.0148
13612TIP3    H162251   4.097   1.459   4.433  0.9045 -2.4925  1.2759
13612TIP3    H262252   4.044   1.422   4.570  0.7000  2.9436  2.8011
13613TIP3   OH262253   2.031   2.435   1.756  0.0549 -0.5839 -0.1800
13613TIP3    H162254   2.019   2.517   1.708 -0.2702 -1.3557 -1.4544
13613TIP3    H262255   1.942   2.406   1.777  0.1908 -0.3491  0.7167
13614TIP3   OH262256   2.322   0.703   3.755 -0.1554 -0.1328 -0.2443
13614TIP3    H162257   2.226   0.707   3.757 -0.0994  0.9545  2.5526
13614TIP3    H262258   2.343   0.674   3.666 -3.0787 -0.6412 -0.8204
13615TIP3   OH262259   2.635   2.043   2.988  0.1399  0.6096  0.5060
13615TIP3    H162260   2.627   2.056   3.082  2.4924 -0.8743  0.9497
13615TIP3    H262261   2.642   2.131   2.952  2.8911  1.1197  2.1291
13616TIP3   OH262262   4.735   3.294   4.531  0.4063  0.6102  0.7380
13616TIP3    H162263   4.720   3.303   4.625  0.1342 -1.2200  0.8940
13616TIP3    H262264   4.680   3.221   4.505  2.9159 -1.0110 -0.2195
13617TIP3   OH262265   6.313   3.984   5.937 -0.0034  0.4371 -0.1912
13617TIP3    H162266   6.322   4.069   5.894 -1.7314  0.0368 -1.4151
13617TIP3    H262267   6.230   3.991   5.985  1.1410  0.3412  1.8683
13618TIP3   OH262268   4.230   3.390   4.350 -0.3356 -0.5815  0.2482
13618TIP3    H162269   4.146   3.345   4.339 -0.5539  0.5943 -3.2301
13618TIP3    H262270   4.207   3.482   4.363  0.4018 -0.3624  0.0090
13619TIP3   OH262271   2.798   6.962   3.301  0.0355 -0.5352 -0.1534
13619TIP3    H162272   2.806   7.054   3.326 -0.5535 -0.5291  0.0274
13619TIP3    H262273   2.716   6.958   3.252 -0.8205 -1.2698  1.3042
13620TIP3   OH262274   2.674   0.180   2.002 -0.8974  0.8738 -0.3756
13620TIP3    H162275   2.733   0.228   2.060 -1.8857  1.3925  0.2166
13620TIP3    H262276   2.601   0.153   2.058 -1.3337  0.4336 -1.1420
13621TIP3   OH262277   6.481   0.015   2.840 -0.2731  0.2945 -0.2775
13621TIP3    H162278   6.511   0.065   2.916 -1.7733  0.2586  0.3543
13621TIP3    H262279   6.529  -0.067   2.845  1.3519  1.1863 -0.6771
13622TIP3   OH262280   1.140   2.337   3.633 -0.6682 -0.7699  0.2727
13622TIP3    H162281   1.143   2.243   3.614 -1.0090 -0.6906 -0.1729
13622TIP3    H262282   1.232   2.362   3.641 -0.5240 -0.8149 -1.2363
13623TIP3   OH262283   6.721   1.137   4.945 -0.7210 -0.2003 -0.4578
13623TIP3    H162284   6.651   1.103   5.000 -0.6639 -0.0819 -0.3103
13623TIP3    H262285   6.769   1.059   4.917  0.0088 -0.1771  0.6943
13624TIP3   OH262286   0.265   0.916   2.760 -0.0281  0.0525 -0.0110
13624TIP3    H162287   0.238   0.908   2.851  1.0536  0.2364  0.3323
13624TIP3    H262288   0.189   0.955   2.716 -1.0828 -1.3314  0.5175
13625TIP3   OH262289   1.654   0.234   1.672  0.4791  0.0688  0.2292
13625TIP3    H162290   1.702   0.261   1.750  1.6740 -1.2799 -0.0335
13625TIP3    H262291   1.579   0.294   1.669 -0.2160 -0.5812  3.0410
13626TIP3   OH262292   3.823   0.130   3.849  0.2846 -0.2589 -0.3500
13626TIP3    H162293   3.830   0.166   3.937 -1.0417  0.2960 -0.4580
13626TIP3    H262294   3.888   0.060   3.846  1.6127  0.9227  0.4596
13627TIP3   OH262295   4.570   0.593   2.725  0.3266 -0.5627 -0.2345
13627TIP3    H162296   4.480   0.624   2.720  0.5568 -0.0111 -0.9905
13627TIP3    H262297   4.615   0.656   2.781 -0.2566 -2.0420  1.9518
13628TIP3   OH262298   0.839   1.602   2.363 -0.1149 -0.3009 -0.1268
13628TIP3    H162299   0.932   1.589   2.346  0.5648  2.7134  0.9705
13628TIP3    H262300   0.836   1.671   2.429 -3.1371 -0.6929  0.2427
13629TIP3   OH262301   7.079   1.834   5.199  0.2948  0.0221  0.3047
13629TIP3    H162302   7.080   1.925   5.225 -3.8790  0.3355 -0.1570
13629TIP3    H262303   7.014   1.830   5.128  1.8961 -2.9397 -1.1054
13630TIP3   OH262304   3.925   0.885  15.600  0.3372  0.0263 -0.2011
13630TIP3    H162305   3.860   0.948  15.570 -1.3512 -1.2803  0.6312
13630TIP3    H262306   3.969   0.928  15.673  0.9703  1.2243 -1.2723
13631TIP3   OH262307   1.145   2.348   2.853  0.5045 -0.2736  0.2184
13631TIP3    H162308   1.177   2.437   2.837  1.0230 -0.4124  0.4870
13631TIP3    H262309   1.103   2.353   2.939  3.0239 -0.9467  1.5259
13632TIP3   OH262310   4.273   1.614   4.315 -0.1448 -0.2663 -0.1436
13632TIP3    H162311   4.218   1.678   4.271 -0.6535 -0.5460  0.0907
13632TIP3    H262312   4.285   1.649   4.404 -0.3514 -0.4522 -0.0420
13633TIP3   OH262313   3.289   1.871   4.314 -0.5620 -0.6751  0.6659
13633TIP3    H162314   3.372   1.907   4.282  0.2381  0.1899  3.6183
13633TIP3    H262315   3.228   1.883   4.241  1.2582  1.0086 -0.6178
13634TIP3   OH262316   2.623   4.839   0.953  0.3373  0.8186 -0.1304
13634TIP3    H162317   2.635   4.934   0.944  0.8920  0.8734  1.0662
13634TIP3    H262318   2.538   4.822   0.915  0.3521  1.7698 -0.6056
13635TIP3   OH262319   3.425   0.088   3.305  0.1315 -0.2360  0.0848
13635TIP3    H162320   3.398   0.038   3.228  0.2444 -0.7411  0.3704
13635TIP3    H262321   3.346   0.137   3.330  0.9421  2.3362 -2.1786
13636TIP3   OH262322   2.613   1.924   3.641 -0.0055  0.0567 -0.0926
13636TIP3    H162323   2.543   1.918   3.706  1.1013 -1.7099  0.9787
13636TIP3    H262324   2.598   1.850   3.582  1.6038 -1.0571  0.8444
13637TIP3   OH262325   4.002   7.234   3.880 -0.0422  0.1606 -0.0301
13637TIP3    H162326   3.997   7.146   3.917 -0.6182  0.6120  0.9547
13637TIP3    H262327   4.081   7.231   3.825 -0.2990 -1.0966 -0.3545
13638TIP3   OH262328   1.267   3.174   5.546  0.5710 -0.3962  0.1352
13638TIP3    H162329   1.326   3.145   5.615 -0.2836  2.0078  1.9520
13638TIP3    H262330   1.180   3.148   5.577 -0.0040  2.2255  0.8838
13639TIP3   OH262331   2.012   2.515   5.991 -0.3054  0.3273  0.1340
13639TIP3    H162332   2.088   2.465   5.963 -0.0780  1.0527 -0.5679
13639TIP3    H262333   1.963   2.455   6.046  0.6056 -0.2577  0.3247
13640TIP3   OH262334   3.675   1.872   5.358  0.1124  0.1362 -0.3035
13640TIP3    H162335   3.693   1.966   5.362 -0.2856  0.2108 -0.2042
13640TIP3    H262336   3.676   1.843   5.450  1.4412 -0.1925 -0.4170
13641TIP3   OH262337   5.322   5.799   4.420  0.4925 -0.4135 -0.4293
13641TIP3    H162338   5.410   5.761   4.425  0.5413 -0.1596  0.9799
13641TIP3    H262339   5.300   5.798   4.327  2.1691 -0.0859 -0.8460
13642TIP3   OH262340   0.215   1.948   4.729  0.0823  0.1869  0.0659
13642TIP3    H162341   0.280   2.009   4.694 -0.0956 -0.1068 -0.7914
13642TIP3    H262342   0.135   1.970   4.681 -0.0836 -0.4432  0.0543
13643TIP3   OH262343   3.053   2.554   3.736 -0.1026  0.1032  0.4969
13643TIP3    H162344   2.972   2.524   3.695 -0.2697  0.9376  0.2110
13643TIP3    H262345   3.026   2.584   3.823 -0.1154  0.4878  0.3588
13644TIP3   OH262346   5.147   6.944   3.329 -0.5323 -0.3016  0.1036
13644TIP3    H162347   5.224   6.889   3.345  0.0275  0.4513  0.0201
13644TIP3    H262348   5.114   6.916   3.244  0.3589  0.1957 -0.4095
13645TIP3   OH262349   3.875   0.310   2.289 -0.5506 -0.0385 -0.4589
13645TIP3    H162350   3.900   0.258   2.365  0.4734 -0.5794 -1.1415
13645TIP3    H262351   3.788   0.279   2.266 -0.4877 -0.5247 -0.0548
13646TIP3   OH262352   1.866   2.240   5.853 -0.7185  0.1164  0.0457
13646TIP3    H162353   1.828   2.234   5.941  0.0771  0.5209  0.4196
13646TIP3    H262354   1.845   2.328   5.824  1.3402  0.9194  0.9133
13647TIP3   OH262355   2.714   0.577   3.613 -0.0517  0.3061  0.2160
13647TIP3    H162356   2.670   0.584   3.528 -1.8819 -1.9597  0.9081
13647TIP3    H262357   2.675   0.648   3.666 -1.9794 -0.8507  0.4076
13648TIP3   OH262358   4.935   0.091   4.834  0.5394  0.1357 -0.4800
13648TIP3    H162359   4.849   0.048   4.839  1.2752 -1.4738 -1.3445
13648TIP3    H262360   4.955   0.115   4.924 -0.2466 -0.6210 -0.0921
13649TIP3   OH262361   1.739   1.015   2.915  0.3748  0.0621  0.0450
13649TIP3    H162362   1.718   1.058   2.998 -0.2302 -0.9429  0.4222
13649TIP3    H262363   1.665   0.956   2.900  1.3344 -1.0529 -0.3232
13650TIP3   OH262364   1.646   1.412   4.750  0.5616 -0.6572 -0.5728
13650TIP3    H162365   1.697   1.368   4.682  2.5951 -0.7565  0.9481
13650TIP3    H262366   1.707   1.476   4.788 -1.3498  1.2166 -0.5938
13651TIP3   OH262367   3.478   0.333   0.135 -0.3523  0.0949  0.1152
13651TIP3    H162368   3.488   0.417   0.091 -0.8919  0.4949  0.7458
13651TIP3    H262369   3.482   0.268   0.065 -0.3637  0.6740 -0.4221
13652TIP3   OH262370   5.316   1.837   2.922  0.0065 -0.4083 -0.1445
13652TIP3    H162371   5.277   1.770   2.978  0.2281  1.6109  2.5242
13652TIP3    H262372   5.396   1.862   2.968  0.2582  1.2324 -1.4469
13653TIP3   OH262373   3.983   1.311   2.794  0.2694 -0.0848  0.1263
13653TIP3    H162374   3.965   1.267   2.877 -0.9772 -2.1071 -1.1758
13653TIP3    H262375   4.012   1.241   2.736  1.6436  1.3969 -1.0113
13654TIP3   OH262376   0.601   6.366   3.264 -0.2657  0.9289  0.1264
13654TIP3    H162377   0.652   6.304   3.317 -3.6232 -0.3372  2.0908
13654TIP3    H262378   0.629   6.350   3.174  1.6921 -0.7419  0.9963
13655TIP3   OH262379   0.843   0.483   3.324  0.1596  0.3528 -0.7210
13655TIP3    H162380   0.780   0.504   3.255 -0.6824  2.0276  0.5241
13655TIP3    H262381   0.868   0.568   3.360 -0.2459 -0.5291  1.7540
13656TIP3   OH262382   5.743   7.112   1.851  0.3054  0.1479 -0.0694
13656TIP3    H162383   5.773   7.100   1.761 -0.5836  1.2871 -0.5152
13656TIP3    H262384   5.754   7.205   1.869 -0.5665  0.1274  0.6235
13657TIP3   OH262385   6.750   3.494   4.100 -0.0570  0.9857  0.2934
13657TIP3    H162386   6.702   3.521   4.178  1.0189 -0.7800  1.6159
13657TIP3    H262387   6.784   3.575   4.063 -1.5259  1.9521  1.0172
13658TIP3   OH262388   6.293   1.320   2.481 -0.0738  0.0435  0.5751
13658TIP3    H162389   6.221   1.288   2.428  0.6017 -2.7794  1.2396
13658TIP3    H262390   6.326   1.242   2.526  3.2423  1.2811  0.4605
13659TIP3   OH262391   1.625   1.370   1.600 -0.0317  0.0664 -0.2352
13659TIP3    H162392   1.693   1.305   1.588  0.2862  0.6528 -1.6371
13659TIP3    H262393   1.588   1.384   1.513 -1.2721  0.4910  0.3342
13660TIP3   OH262394   6.662   1.877   1.309 -0.5870 -0.2020 -0.1119
13660TIP3    H162395   6.724   1.804   1.311 -0.1875  0.1445  0.2779
13660TIP3    H262396   6.622   1.878   1.397 -0.4363  0.1771 -0.0447
13661TIP3   OH262397   6.815   4.758   2.337 -0.1138  0.3634 -0.0211
13661TIP3    H162398   6.800   4.762   2.431  0.3489  0.2036  0.0591
13661TIP3    H262399   6.860   4.840   2.316  0.1626  0.2114 -0.0321
13662TIP3   OH262400   0.957   6.018   2.383 -0.4669 -0.1086  0.5573
13662TIP3    H162401   1.014   6.056   2.450 -1.1892  1.5129  0.2893
13662TIP3    H262402   0.871   6.057   2.400 -0.6715  0.2705 -1.2572
13663TIP3   OH262403   6.413   3.677   4.646 -0.2328 -0.7033 -0.1968
13663TIP3    H162404   6.349   3.719   4.589  0.4970  0.0610 -0.4632
13663TIP3    H262405   6.377   3.591   4.664 -0.3237 -1.0581 -2.0469
13664TIP3   OH262406   1.901   3.441   5.126 -0.1622  0.2324  0.4607
13664TIP3    H162407   1.973   3.383   5.151 -0.0601  1.5492  3.4577
13664TIP3    H262408   1.826   3.408   5.175 -0.9870  0.4363 -0.6608
13665TIP3   OH262409   4.996   7.234   5.293  0.1838  0.1204  0.0032
13665TIP3    H162410   4.951   7.312   5.324  0.9972  0.4867  0.2804
13665TIP3    H262411   5.083   7.239   5.332  0.4132 -0.6586 -0.3918
13666TIP3   OH262412   0.324   6.672   0.703 -0.4998  0.1035 -0.5218
13666TIP3    H162413   0.364   6.651   0.787 -0.6043 -1.7329 -0.9029
13666TIP3    H262414   0.396   6.701   0.648 -0.4041  1.1412  0.1278
13667TIP3   OH262415   4.733   1.854   2.802 -0.0082 -0.0239  0.4207
13667TIP3    H162416   4.798   1.788   2.776  0.1742  0.4122 -0.2361
13667TIP3    H262417   4.651   1.804   2.809  0.3107 -0.4954  0.8472
13668TIP3   OH262418   4.471   2.859   4.317 -0.5866  0.9449  0.1753
13668TIP3    H162419   4.424   2.913   4.254 -1.7677  2.0451  1.9636
13668TIP3    H262420   4.403   2.805   4.358 -0.0085  1.0424  1.2927
13669TIP3   OH262421   3.592   2.211   2.489  0.0532  0.1321 -0.3555
13669TIP3    H162422   3.663   2.155   2.457  0.0983  1.0940 -1.9471
13669TIP3    H262423   3.540   2.231   2.412 -1.3257  0.3673  0.6131
13670TIP3   OH262424   4.053   5.478   0.537 -0.1863  0.4962  0.6936
13670TIP3    H162425   4.101   5.529   0.603 -3.9123  1.6236  2.7279
13670TIP3    H262426   4.078   5.517   0.453  2.3563  1.0501  1.6644
13671TIP3   OH262427   3.074   2.658   4.816 -0.0698 -0.4711 -0.2408
13671TIP3    H162428   3.104   2.702   4.736  0.8630 -1.2756 -0.3433
13671TIP3    H262429   3.100   2.567   4.804  0.4058 -0.5263  1.1563
13672TIP3   OH262430   4.541   0.825   3.716  0.5691  0.1537 -0.4959
13672TIP3    H162431   4.594   0.846   3.793  0.2534  0.3546 -0.3329
13672TIP3    H262432   4.452   0.817   3.750  0.2748  1.2289 -1.0091
13673TIP3   OH262433   0.508   7.070   2.019  0.2008  0.2788 -0.0364
13673TIP3    H162434   0.548   7.013   1.954  3.2725  0.5592  1.4939
13673TIP3    H262435   0.484   7.011   2.091 -0.3044  0.4027 -0.0979
13674TIP3   OH262436   3.011   2.577   2.953 -0.4662  0.3383 -0.0561
13674TIP3    H162437   2.944   2.645   2.948 -0.6489  0.2736  1.2610
13674TIP3    H262438   3.000   2.526   2.873 -0.8707  1.3559 -0.6541
13675TIP3   OH262439   3.933   0.504   1.890  0.0355 -0.0510  0.3249
13675TIP3    H162440   3.981   0.495   1.808 -0.4895  1.3830 -0.1576
13675TIP3    H262441   3.995   0.476   1.958  1.0318  0.3384 -0.4174
13676TIP3   OH262442   2.487   6.880   5.005  0.4295  0.4523 -0.1191
13676TIP3    H162443   2.480   6.813   5.072 -1.3369 -0.0129 -0.7445
13676TIP3    H262444   2.477   6.833   4.922 -1.8560  1.5852 -0.5334
13677TIP3   OH262445   1.197   0.696   3.463  0.3206  0.5230 -0.1257
13677TIP3    H162446   1.281   0.654   3.447 -0.0639 -0.7775  1.1501
13677TIP3    H262447   1.164   0.718   3.376  2.1237  1.3519 -0.6068
13678TIP3   OH262448   3.019   5.354   2.339  0.0957 -0.3349 -0.1847
13678TIP3    H162449   3.063   5.271   2.322  1.3999  0.5409 -1.2201
13678TIP3    H262450   3.083   5.405   2.389 -0.9088 -0.1540  0.9291
13679TIP3   OH262451   1.583   4.320   3.037  0.1714  0.5211  0.3419
13679TIP3    H162452   1.615   4.339   3.125 -0.7155  0.5730  0.6492
13679TIP3    H262453   1.650   4.357   2.979  1.1485 -0.1777  0.9893
13680TIP3   OH262454   0.091   6.301   2.459 -0.1623 -0.2289 -0.0002
13680TIP3    H162455   0.182   6.307   2.490 -0.2582 -1.0831  0.4384
13680TIP3    H262456   0.080   6.379   2.405  0.7695 -0.0045  0.1205
13681TIP3   OH262457   0.844   5.239   3.078 -0.2159 -0.6447 -0.2564
13681TIP3    H162458   0.813   5.295   3.006  3.4794 -0.0925 -1.5674
13681TIP3    H262459   0.887   5.165   3.034  1.0330 -0.9158  1.3692
13682TIP3   OH262460   3.295   2.854   2.117 -0.5786 -0.1836 -0.2446
13682TIP3    H162461   3.324   2.763   2.126  1.6955  0.6650  1.7539
13682TIP3    H262462   3.298   2.871   2.023 -1.5194 -2.3063 -0.6961
13683TIP3   OH262463   4.702   6.496  14.190 -0.5386 -0.2578 -0.0684
13683TIP3    H162464   4.695   6.501  14.286 -0.7294 -0.8497 -0.0502
13683TIP3    H262465   4.707   6.587  14.162  0.1389 -0.0991  0.5573
13684TIP3   OH262466   0.835   2.004   2.761  0.0402  0.3500  0.5020
13684TIP3    H162467   0.894   2.071   2.727  0.9229  1.0242  3.1654
13684TIP3    H262468   0.751   2.048   2.770  0.4959  1.0132  1.7641
13685TIP3   OH262469   1.730   3.444   3.666  0.4112 -0.0308 -0.0393
13685TIP3    H162470   1.709   3.509   3.599  0.0125 -1.2144 -1.0920
13685TIP3    H262471   1.724   3.360   3.620 -2.8235 -1.0920  2.1688
13686TIP3   OH262472   2.963   2.625   5.911 -0.1799  0.1888 -0.2136
13686TIP3    H162473   2.880   2.663   5.884 -0.8278 -1.1508 -0.1173
13686TIP3    H262474   2.940   2.561   5.978  0.8972 -0.3942 -0.3895
13687TIP3   OH262475   4.126   0.256   4.821 -0.2816 -0.0946 -0.1862
13687TIP3    H162476   4.060   0.220   4.881  0.5248  0.8435  1.2733
13687TIP3    H262477   4.099   0.347   4.808 -1.5595 -0.7969 -2.8301
13688TIP3   OH262478   2.299   0.168   0.067  0.3420 -0.0437 -0.2861
13688TIP3    H162479   2.335   0.107   0.132  0.8911  0.1215 -0.4410
13688TIP3    H262480   2.364   0.171  -0.002 -0.1520 -0.0538 -0.7511
13689TIP3   OH262481   6.822   3.395   3.209 -0.8064  0.5053  0.5640
13689TIP3    H162482   6.788   3.381   3.121  0.9953  0.3480 -0.1258
13689TIP3    H262483   6.758   3.354   3.267 -1.0839 -0.9934 -0.7930
13690TIP3   OH262484   2.811   6.366   5.301  0.6555  0.0732  0.8295
13690TIP3    H162485   2.887   6.424   5.313  0.7016 -0.5817  4.5259
13690TIP3    H262486   2.742   6.408   5.352 -0.8043 -0.5610 -0.6045
13691TIP3   OH262487   4.576   0.402   0.896  0.2528  0.2141  0.4018
13691TIP3    H162488   4.531   0.410   0.812  1.3651 -0.2277 -0.2545
13691TIP3    H262489   4.511   0.367   0.955 -0.4987  0.3744 -0.3230
13692TIP3   OH262490   3.022   1.784   5.275  0.6559  0.5237 -0.2740
13692TIP3    H162491   3.110   1.763   5.243  0.7711  0.6246 -0.0238
13692TIP3    H262492   3.030   1.872   5.311  0.3051  0.7784 -0.8139
13693TIP3   OH262493   4.217   1.589   1.649 -0.3664  0.8544  0.4230
13693TIP3    H162494   4.286   1.625   1.705 -0.3211  1.6345 -0.1146
13693TIP3    H262495   4.152   1.554   1.709  0.6213 -0.1225  0.9404
13694TIP3   OH262496   6.904   5.516   2.807  0.2725  0.4971  0.1761
13694TIP3    H162497   6.954   5.446   2.765 -0.7849 -0.4135  0.3829
13694TIP3    H262498   6.927   5.595   2.759  1.1667 -0.0738 -0.3395
13695TIP3   OH262499   1.925   4.613   2.320 -0.0346  0.0249  1.0099
13695TIP3    H162500   1.940   4.683   2.383  0.8594  0.1411  0.6780
13695TIP3    H262501   1.833   4.622   2.296  0.8923  3.3756 -1.6989
13696TIP3   OH262502   0.217   0.990   4.172 -0.1819 -0.2877  0.0182
13696TIP3    H162503   0.185   0.933   4.102 -0.8061  1.6115 -1.2957
13696TIP3    H262504   0.139   1.015   4.221 -0.1425  0.7493 -0.4326
13697TIP3   OH262505   4.116   1.775   5.331  0.3252  0.5049  0.1855
13697TIP3    H162506   4.105   1.684   5.359 -0.9216  0.5518 -0.1078
13697TIP3    H262507   4.109   1.771   5.235  1.6773  0.7282  0.0646
13698TIP3   OH262508   0.623   0.341   4.769  0.1828 -0.1079 -0.4033
13698TIP3    H162509   0.610   0.377   4.682 -0.0806  0.3739 -0.1638
13698TIP3    H262510   0.581   0.255   4.766 -0.2933  0.1309 -0.5864
13699TIP3   OH262511   4.932   6.106  15.388  0.1260 -0.4026  0.0298
13699TIP3    H162512   4.995   6.170  15.354  2.0795 -2.6479 -0.7877
13699TIP3    H262513   4.924   6.127  15.481  1.6596  0.2970  0.0214
13700TIP3   OH262514   0.135   1.244   2.145 -0.2108  0.2085  0.4208
13700TIP3    H162515   0.196   1.234   2.218  1.7558 -1.8723 -1.4420
13700TIP3    H262516   0.141   1.337   2.122  1.4796  0.2472  0.9242
13701TIP3   OH262517   0.935   2.614   1.616  0.4745 -0.2906 -0.1584
13701TIP3    H162518   0.944   2.695   1.565 -0.9891  0.5745  0.9203
13701TIP3    H262519   1.010   2.561   1.590 -0.0868  0.2246 -3.0354
13702TIP3   OH262520   0.535   2.546   2.330  0.5740  0.4426  0.1666
13702TIP3    H162521   0.440   2.534   2.332  0.2785  2.4030 -0.7001
13702TIP3    H262522   0.569   2.474   2.382 -1.4375  0.1983  1.2109
13703TIP3   OH262523   3.523   0.057   4.629  0.2176  0.1999 -0.8884
13703TIP3    H162524   3.487   0.038   4.542  0.5730  0.5758 -1.1238
13703TIP3    H262525   3.471   0.131   4.660  0.6366  0.5995 -1.1339
13704TIP3   OH262526   5.571   2.475  14.232  0.0578 -0.0657 -0.5586
13704TIP3    H162527   5.624   2.445  14.158 -0.5825 -0.1448 -0.9905
13704TIP3    H262528   5.481   2.469  14.201 -0.1262  1.7109 -0.4369
13705TIP3   OH262529   4.985   6.436   2.693 -0.1782  0.1664  0.0053
13705TIP3    H162530   4.898   6.477   2.685  0.5458  1.5966 -0.7356
13705TIP3    H262531   5.026   6.481   2.766 -0.0983 -0.6132  0.4477
13706TIP3   OH262532   2.139   5.545   6.184 -0.3842 -0.4697  0.5074
13706TIP3    H162533   2.174   5.470   6.137 -1.4865 -0.2917 -0.6321
13706TIP3    H262534   2.047   5.549   6.158 -0.1608  1.6999 -0.0161
13707TIP3   OH262535   1.370   2.769   3.388  0.1101  0.6851  0.3687
13707TIP3    H162536   1.439   2.833   3.373 -0.4805  1.0191 -0.9820
13707TIP3    H262537   1.302   2.816   3.435  0.6869  0.4126  1.5046
13708TIP3   OH262538   1.210   3.162   3.835 -0.4716 -0.5320  0.0006
13708TIP3    H162539   1.116   3.148   3.828 -0.4931 -1.3128  1.6462
13708TIP3    H262540   1.223   3.252   3.804 -1.4484 -1.1355 -2.2934
13709TIP3   OH262541   0.974   1.057   2.745  0.6623  0.1546  0.2550
13709TIP3    H162542   0.954   1.151   2.741 -2.5355 -0.4314  0.6637
13709TIP3    H262543   1.069   1.052   2.750  0.8650  3.3927  0.4456
13710TIP3   OH262544   3.150   0.629   1.531 -0.5208 -0.0373 -0.4344
13710TIP3    H162545   3.127   0.537   1.517 -0.4302 -0.1804  0.3539
13710TIP3    H262546   3.089   0.659   1.599 -0.2147  0.3479 -0.3266
13711TIP3   OH262547   4.542   1.403   3.144 -0.4477 -0.5300  0.2205
13711TIP3    H162548   4.459   1.362   3.165  0.6600 -2.9360  0.0769
13711TIP3    H262549   4.607   1.353   3.194  0.8627  1.6864  0.8044
13712TIP3   OH262550   0.981   2.829   3.239 -0.2358 -0.6020 -0.2671
13712TIP3    H162551   0.985   2.734   3.231  1.9326 -0.4834 -0.9390
13712TIP3    H262552   0.972   2.859   3.148  0.8006 -0.1041 -0.2039
13713TIP3   OH262553   0.325   2.186   2.427  0.2556  0.3293  0.0183
13713TIP3    H162554   0.406   2.165   2.382 -0.4349 -1.1130 -0.5918
13713TIP3    H262555   0.310   2.279   2.409  1.7233  0.5866  0.0854
13714TIP3   OH262556   0.278   1.165  15.707  0.1785 -0.3161  0.0250
13714TIP3    H162557   0.191   1.135  15.732  0.6007 -2.9579 -1.4615
13714TIP3    H262558   0.289   1.250  15.751 -2.8303 -0.3019  0.7957
13715TIP3   OH262559   1.139   6.580   4.120 -0.1807 -1.1358  0.6535
13715TIP3    H162560   1.060   6.572   4.173 -0.2078 -0.2677  0.7449
13715TIP3    H262561   1.145   6.673   4.099  0.4395 -1.3055  0.0675
13716TIP3   OH262562   3.383   4.786   0.886  0.6085 -0.4491  0.4955
13716TIP3    H162563   3.378   4.849   0.958 -2.2076 -0.9157  0.7395
13716TIP3    H262564   3.397   4.701   0.929 -2.0701 -0.8755  0.6271
13717TIP3   OH262565   4.253   3.032   1.355  0.7166 -0.3652  0.1379
13717TIP3    H162566   4.250   3.099   1.287  0.1583 -0.1035  0.4162
13717TIP3    H262567   4.239   2.949   1.309 -0.9116 -0.0748  0.0918
13718TIP3   OH262568   3.850   2.430   1.345  0.3540 -0.6179  0.0525
13718TIP3    H162569   3.825   2.340   1.325 -1.6251 -0.1039  0.1001
13718TIP3    H262570   3.767   2.477   1.351  1.4158  1.5000 -1.2626
13719TIP3   OH262571   1.929   0.913   3.940 -0.1981 -0.6725  0.1583
13719TIP3    H162572   1.990   0.887   3.871  1.1819 -1.0157  1.4818
13719TIP3    H262573   1.926   1.008   3.935  0.5204 -0.6539  0.1734
13720TIP3   OH262574   3.607   1.319   2.153 -0.5650  0.6287  0.2061
13720TIP3    H162575   3.568   1.321   2.066 -0.5248  3.0513  0.1954
13720TIP3    H262576   3.536   1.349   2.211 -0.1451  0.4676  0.8095
13721TIP3   OH262577   4.525   0.481   5.273  0.4715  0.4948  0.2272
13721TIP3    H162578   4.523   0.513   5.182  1.1308  0.5843  0.2424
13721TIP3    H262579   4.619   0.472   5.293  0.3142 -0.5003  0.5543
13722TIP3   OH262580   4.165   4.625   1.258  0.2270  0.0188  0.1546
13722TIP3    H162581   4.109   4.680   1.313 -0.0782  0.7645 -0.8730
13722TIP3    H262582   4.106   4.560   1.220  0.1238  0.5000 -0.5387
13723TIP3   OH262583   2.890   3.715   4.107  0.0124 -0.1933 -0.2268
13723TIP3    H162584   2.882   3.777   4.035  1.7763  0.8448  0.4255
13723TIP3    H262585   2.978   3.677   4.096 -0.2798 -1.1137  0.5237
13724TIP3   OH262586   3.802   4.487   3.151  0.4804 -0.3311  0.1133
13724TIP3    H162587   3.745   4.494   3.227 -0.1958 -1.2050 -0.3100
13724TIP3    H262588   3.866   4.557   3.163 -1.5074  1.5775 -0.1041
13725TIP3   OH262589   2.142   0.153   2.121 -0.1194 -0.2193  0.0083
13725TIP3    H162590   2.118   0.230   2.173 -1.1228  0.1967 -1.0578
13725TIP3    H262591   2.078   0.086   2.147 -0.0943 -0.2698 -0.0604
13726TIP3   OH262592   2.313   0.112   4.616 -0.1737  0.4955  0.1260
13726TIP3    H162593   2.322   0.207   4.625 -2.0898  0.6152  1.0302
13726TIP3    H262594   2.284   0.100   4.525 -2.6245  1.0194  0.7978
13727TIP3   OH262595   2.617   6.543   3.235 -0.1385  0.1526 -0.2583
13727TIP3    H162596   2.666   6.474   3.192 -1.2606 -0.3453 -0.7438
13727TIP3    H262597   2.684   6.607   3.261  0.9278 -1.1789  0.3667
13728TIP3   OH262598   1.458   3.140   0.595  0.3276  0.2120 -0.3702
13728TIP3    H162599   1.483   3.139   0.687 -0.2519 -0.7549 -0.2156
13728TIP3    H262600   1.467   3.232   0.568  1.4235  0.3280  0.3852
13729TIP3   OH262601   2.997   2.314   1.610 -0.7104  0.3177 -0.0092
13729TIP3    H162602   3.061   2.294   1.542  0.5386 -0.8425  1.4527
13729TIP3    H262603   2.970   2.228   1.643  0.4684  0.8554  2.5264
13730TIP3   OH262604   5.487   0.995   3.375  0.3470  0.0477 -0.4630
13730TIP3    H162605   5.425   0.987   3.448  0.5564  0.4835 -0.2360
13730TIP3    H262606   5.485   0.910   3.332  0.1103 -0.1623 -0.0364
13731TIP3   OH262607   1.603   7.115   2.338 -0.2996  0.0749  0.2949
13731TIP3    H162608   1.636   7.122   2.248  2.8347 -1.8245  1.2094
13731TIP3    H262609   1.519   7.069   2.330 -1.4074  2.3704 -1.8624
13732TIP3   OH262610   3.082   4.130   2.333  0.0543 -0.0226 -0.0295
13732TIP3    H162611   3.163   4.180   2.324 -1.0186  1.6730 -0.4404
13732TIP3    H262612   3.012   4.194   2.319 -1.3468 -1.7436 -1.2109
13733TIP3   OH262613   2.305   6.844   6.247 -0.2180  0.5563  0.1902
13733TIP3    H162614   2.239   6.878   6.308 -0.8339 -0.7927  0.2869
13733TIP3    H262615   2.319   6.916   6.186 -1.7463  0.8888  0.2040
13734TIP3   OH262616   5.371   0.171   4.194 -0.4347  0.4470 -0.4425
13734TIP3    H162617   5.338   0.216   4.116 -1.7357 -0.8538 -0.6672
13734TIP3    H262618   5.313   0.095   4.204  0.9945 -0.5340  0.5942
13735TIP3   OH262619   0.997   2.409   3.075  0.5407  0.1848  0.2601
13735TIP3    H162620   1.020   2.476   3.139 -2.4072 -0.9179  2.6047
13735TIP3    H262621   0.901   2.405   3.078  0.3999 -0.8915 -3.2427
13736TIP3   OH262622   6.812   3.744   5.609 -0.0742 -0.2292 -0.0579
13736TIP3    H162623   6.721   3.759   5.583 -0.6173 -1.1528  1.2453
13736TIP3    H262624   6.841   3.671   5.555 -0.5672 -0.8621  0.5282
13737TIP3   OH262625   3.311   1.771   5.122  0.3460 -0.0724 -0.1897
13737TIP3    H162626   3.372   1.768   5.049  0.7547 -0.4399  0.1685
13737TIP3    H262627   3.365   1.761   5.200 -0.3154 -1.8633  0.0561
13738TIP3   OH262628   5.480   7.022   5.514 -0.4540  0.2544 -0.2150
13738TIP3    H162629   5.498   7.018   5.420  1.4180 -1.8826  0.1875
13738TIP3    H262630   5.553   7.074   5.549 -0.1328 -0.5054  0.2604
13739TIP3   OH262631   4.131   7.162   2.006  0.1464  0.6781  0.5843
13739TIP3    H162632   4.067   7.120   2.063  0.0603  0.3947  0.2867
13739TIP3    H262633   4.177   7.224   2.062 -0.9765  1.5120  0.5945
13740TIP3   OH262634   2.091   2.776   2.992 -0.3113 -0.4763 -0.1035
13740TIP3    H162635   1.997   2.796   2.994 -0.1321  0.2727  1.1965
13740TIP3    H262636   2.131   2.850   2.947 -0.3585 -0.9214 -0.8970
13741TIP3   OH262637   2.869   3.050   5.701 -0.1364 -0.2273  0.0183
13741TIP3    H162638   2.858   2.970   5.650 -0.9526 -0.4295  0.5018
13741TIP3    H262639   2.961   3.049   5.727  0.1082 -0.4805 -0.8469
13742TIP3   OH262640   4.009   0.819   5.997  0.2423  0.3567  0.0003
13742TIP3    H162641   4.003   0.729   6.029 -2.0130  0.5994  0.3563
13742TIP3    H262642   3.957   0.820   5.917  0.9719  1.1415 -0.4683
13743TIP3   OH262643   5.517   0.365   4.323 -0.5093  0.1106 -0.4015
13743TIP3    H162644   5.515   0.318   4.407  2.0334  1.0908  0.2547
13743TIP3    H262645   5.474   0.306   4.262 -2.0403 -0.8101  1.5010
13744TIP3   OH262646   0.793   2.328   4.869 -0.4463 -0.2082 -0.2341
13744TIP3    H162647   0.877   2.286   4.887  0.2290  1.7010  1.2492
13744TIP3    H262648   0.815   2.403   4.813 -0.8063  1.6425  1.9957
13745TIP3   OH262649   3.125   7.131   4.892  0.1751  0.1092  0.3190
13745TIP3    H162650   3.208   7.154   4.850  0.7993 -0.2518  1.3397
13745TIP3    H262651   3.091   7.059   4.838  1.1919 -0.6512  0.6651
13746TIP3   OH262652   5.558   5.259   4.937 -0.1876  0.4565  0.0908
13746TIP3    H162653   5.477   5.297   4.971  0.3625  0.8216  1.0032
13746TIP3    H262654   5.591   5.205   5.009  0.0126 -0.2562 -0.5311
13747TIP3   OH262655   4.335   3.126   5.761  0.3768 -0.1381 -0.0564
13747TIP3    H162656   4.240   3.118   5.767  0.2714  1.0454 -0.0839
13747TIP3    H262657   4.369   3.068   5.830 -0.3806  0.0476  0.4758
13748TIP3   OH262658   3.660   7.099   4.858 -0.7114  0.4450 -0.0400
13748TIP3    H162659   3.706   7.096   4.942  1.3363  0.7691 -1.1367
13748TIP3    H262660   3.587   7.160   4.874 -0.4379  0.3939  1.5426
13749TIP3   OH262661   6.774   2.260  15.210  0.3056 -0.0336 -0.0314
13749TIP3    H162662   6.718   2.210  15.150 -0.8411 -1.5028  2.2094
13749TIP3    H262663   6.859   2.217  15.204  0.0018 -0.6415 -0.0474
13750TIP3   OH262664   4.890   0.612   5.684 -0.0972  0.1607  0.3254
13750TIP3    H162665   4.821   0.605   5.618 -0.5003 -0.5519  0.8079
13750TIP3    H262666   4.862   0.683   5.741 -1.0303 -0.8709  1.1891
13751TIP3   OH262667   6.635   1.424   1.957 -0.2793  0.9491  0.0357
13751TIP3    H162668   6.541   1.408   1.958 -0.2629  0.4128 -2.8273
13751TIP3    H262669   6.664   1.405   2.047 -2.6922  0.0431  0.6580
13752TIP3   OH262670   5.270   4.834   5.117 -0.4324 -0.0339 -0.5348
13752TIP3    H162671   5.183   4.816   5.153 -0.8714  0.6234 -1.2527
13752TIP3    H262672   5.298   4.914   5.161 -0.5480  0.2219 -0.9267
13753TIP3   OH262673   4.542   1.774   2.327  0.2277 -0.0217  0.7391
13753TIP3    H162674   4.637   1.780   2.331  0.4081 -1.7915 -0.3861
13753TIP3    H262675   4.517   1.739   2.413  0.6589 -0.2454  0.7742
13754TIP3   OH262676   3.004   6.822   4.979 -0.2748 -0.1588  0.3956
13754TIP3    H162677   3.074   6.862   4.926 -0.2449 -0.7463 -0.0134
13754TIP3    H262678   2.933   6.886   4.976  0.3122  0.5379  0.9801
13755TIP3   OH262679   0.159   1.816   3.971  0.1649 -0.3976 -0.2923
13755TIP3    H162680   0.225   1.879   4.000  0.0300 -0.0482 -0.7459
13755TIP3    H262681   0.079   1.868   3.960 -0.4360 -0.9710  1.1247
13756TIP3   OH262682   2.749   2.592   5.260 -0.0288 -0.1567  0.3578
13756TIP3    H162683   2.774   2.510   5.304  1.6124  0.4951  0.7142
13756TIP3    H262684   2.816   2.604   5.192  1.5731  2.3838  2.2674
13757TIP3   OH262685   0.138   4.331   2.982  0.2579  0.0633 -0.4315
13757TIP3    H162686   0.066   4.271   2.962  0.7977 -0.6232 -0.3315
13757TIP3    H262687   0.166   4.363   2.896 -1.6044  2.0428 -0.3378
13758TIP3   OH262688   1.825   0.599   5.361 -0.1795 -0.3158  0.2550
13758TIP3    H162689   1.841   0.668   5.297 -0.5619  0.3258  0.8388
13758TIP3    H262690   1.743   0.558   5.334 -0.5296  0.1947  0.5368
13759TIP3   OH262691   1.352   0.205   5.353  0.6187  0.2893 -0.1834
13759TIP3    H162692   1.425   0.253   5.313  0.1570 -0.0420 -1.4800
13759TIP3    H262693   1.280   0.215   5.290 -0.7731  1.4654  1.5586
13760TIP3   OH262694   4.167   2.458   5.046 -0.1035 -0.6124  0.2073
13760TIP3    H162695   4.074   2.436   5.044 -0.5528  1.1942 -1.6263
13760TIP3    H262696   4.169   2.550   5.073  1.1838 -0.7506  0.6095
13761TIP3   OH262697   3.451   3.280   5.725  0.3129  0.5584  0.1772
13761TIP3    H162698   3.452   3.237   5.811 -2.7140  0.7026  0.3267
13761TIP3    H262699   3.363   3.318   5.719  0.3697  0.2234 -3.1696
13762TIP3   OH262700   3.616   1.976   4.450 -0.0087  0.0885  0.1065
13762TIP3    H162701   3.600   1.978   4.355  2.3028  0.8513 -0.3116
13762TIP3    H262702   3.649   1.887   4.466 -2.2120 -0.6749  0.5472
13763TIP3   OH262703   1.424   2.454   4.885  0.1405  0.0828 -0.2132
13763TIP3    H162704   1.432   2.508   4.964 -0.7961 -0.8223  0.5098
13763TIP3    H262705   1.508   2.466   4.840  0.2900  1.4094  0.4035
13764TIP3   OH262706   1.337   0.707   1.479 -0.2167 -0.1341  0.3644
13764TIP3    H162707   1.312   0.779   1.422 -1.3376 -1.0601 -0.3259
13764TIP3    H262708   1.254   0.669   1.508  0.3538 -1.9235 -0.2800
13765TIP3   OH262709   2.174   2.545   5.734 -0.3758 -0.1106  0.5785
13765TIP3    H162710   2.269   2.534   5.731 -0.3597 -0.0294  0.8358
13765TIP3    H262711   2.160   2.638   5.721 -0.3151  0.2276  2.7274
13766TIP3   OH262712   3.871   3.516   2.192  0.0578 -0.6317  0.1832
13766TIP3    H162713   3.928   3.580   2.149 -0.7073 -0.8021 -1.1100
13766TIP3    H262714   3.923   3.483   2.265  1.9883 -1.4663 -1.5167
13767TIP3   OH262715   4.559   2.352   3.489  0.3236 -0.0692 -0.5509
13767TIP3    H162716   4.584   2.441   3.461 -1.3817  0.3934 -0.6413
13767TIP3    H262717   4.642   2.307   3.501  1.2261  1.6774 -0.0746
13768TIP3   OH262718   4.750   3.915   4.054  0.4186 -0.0480 -0.0460
13768TIP3    H162719   4.729   4.004   4.028  0.6271  0.3658  1.1791
13768TIP3    H262720   4.842   3.904   4.030  0.5713  0.2881  0.3664
13769TIP3   OH262721   3.193   2.403   3.051  0.3762  0.3528  0.8350
13769TIP3    H162722   3.234   2.434   3.132  0.4098  0.1722  0.8870
13769TIP3    H262723   3.131   2.472   3.028 -0.6724 -0.2484  1.7889
13770TIP3   OH262724   4.784   1.978   2.526 -0.4364 -0.5231  0.4900
13770TIP3    H162725   4.758   1.920   2.598 -2.8184  0.9877  0.9230
13770TIP3    H262726   4.832   2.049   2.568  2.1231 -1.9267  0.0085
13771TIP3   OH262727   4.463   0.627   5.055 -0.5925 -0.7768 -0.1334
13771TIP3    H162728   4.464   0.721   5.037  1.6440 -0.5511  0.9253
13771TIP3    H262729   4.495   0.586   4.975  1.2111 -0.3899  0.3548
13772TIP3   OH262730   5.251   6.488   2.832  0.0136  0.0897 -0.4198
13772TIP3    H162731   5.345   6.485   2.814  0.1969  0.7454  0.3867
13772TIP3    H262732   5.226   6.396   2.844  0.6737 -0.0481 -0.0546
13773TIP3   OH262733   3.142   1.819   3.636 -0.2174 -0.1667 -0.4353
13773TIP3    H162734   3.157   1.911   3.657  0.5191 -0.0302 -1.5323
13773TIP3    H262735   3.049   1.806   3.651 -0.4210  0.8875 -0.7613
13774TIP3   OH262736   4.298   6.309   4.068 -0.2420 -0.3053  0.1006
13774TIP3    H162737   4.296   6.404   4.084 -0.1165 -0.3809  0.5727
13774TIP3    H262738   4.231   6.295   4.002 -1.7104 -0.1570  1.5341
13775TIP3   OH262739   4.058   4.010  15.969  0.4744  0.2206 -0.1122
13775TIP3    H162740   3.974   4.004  16.015 -0.8821 -0.0256 -2.5440
13775TIP3    H262741   4.088   3.919  15.964  1.0448  0.3393  1.0120
13776TIP3   OH262742   4.037   2.398   2.302  0.0213  0.3237  0.0745
13776TIP3    H162743   4.083   2.482   2.304  0.7870 -0.1103  0.8648
13776TIP3    H262744   4.074   2.351   2.228  0.3518  0.2598  0.2793
13777TIP3   OH262745   0.708   2.440   5.496 -0.0742  0.5741 -0.1033
13777TIP3    H162746   0.720   2.418   5.588 -0.4044 -1.1690 -0.4444
13777TIP3    H262747   0.791   2.417   5.454 -0.5532 -0.4343 -0.5321
13778TIP3   OH262748   3.600   6.470   4.402 -0.2771  0.4113  0.1674
13778TIP3    H162749   3.624   6.559   4.429  0.0031  0.8319 -1.3884
13778TIP3    H262750   3.518   6.481   4.353 -0.8498 -0.3388  0.9609
13779TIP3   OH262751   4.218   0.400   1.769  0.4375 -0.0311 -0.1031
13779TIP3    H162752   4.303   0.409   1.725 -0.1196  1.3653 -0.9372
13779TIP3    H262753   4.224   0.316   1.814  2.8383  0.7283  1.1177
13780TIP3   OH262754   4.995   1.049   0.600  0.2739  0.1446  0.5650
13780TIP3    H162755   5.047   1.105   0.657 -0.5863 -0.5261  2.0565
13780TIP3    H262756   4.906   1.081   0.609  0.2588  0.6317 -1.1656
13781TIP3   OH262757   2.848   6.665   4.327  0.3338 -0.0491  0.5738
13781TIP3    H162758   2.800   6.622   4.256 -0.3145 -2.3670  2.3554
13781TIP3    H262759   2.934   6.686   4.290 -0.6639  0.5335 -1.4475
13782TIP3   OH262760   0.092   3.499   0.937 -0.3692  0.3218  0.0784
13782TIP3    H162761   0.024   3.446   0.978 -0.4118  0.5817  0.3411
13782TIP3    H262762   0.088   3.476   0.844 -1.8488  1.4731 -0.1646
13783TIP3   OH262763   2.141   3.850   5.082  0.2274 -0.0214 -0.0388
13783TIP3    H162764   2.068   3.806   5.126  0.5105 -0.2226  0.2227
13783TIP3    H262765   2.200   3.876   5.152  0.6144 -0.2289 -0.2917
13784TIP3   OH262766   1.626   2.274   2.997  0.1784 -0.1053  0.0458
13784TIP3    H162767   1.580   2.192   2.979  0.1182  0.2544 -1.5575
13784TIP3    H262768   1.600   2.298   3.086 -1.1351 -0.9583 -0.0981
13785TIP3   OH262769   3.483   2.993   4.262 -0.4084 -0.2136  0.0235
13785TIP3    H162770   3.470   3.013   4.354 -1.8886 -0.5086 -0.1146
13785TIP3    H262771   3.536   2.913   4.262  0.2710  0.2286  0.5950
13786TIP3   OH262772   6.445   3.242   4.810 -0.6901 -0.4850  0.7698
13786TIP3    H162773   6.407   3.319   4.768  2.1818  0.0081 -1.0322
13786TIP3    H262774   6.418   3.249   4.902 -1.1731  2.2326  0.4568
13787TIP3   OH262775   6.157   4.977   1.794  0.2349 -0.2887  0.0453
13787TIP3    H162776   6.137   4.884   1.803 -1.9173  0.0836 -0.5058
13787TIP3    H262777   6.196   5.001   1.878  0.1978 -1.5552  0.4298
13788TIP3   OH262778   2.261   0.002   3.554  0.0365  0.3329  0.0009
13788TIP3    H162779   2.341   0.055   3.552  0.2386  0.0449  0.5885
13788TIP3    H262780   2.191   0.066   3.539  0.4343  0.4624 -1.3225
13789TIP3   OH262781   3.345   6.734   3.323 -0.2123  0.8253 -0.5339
13789TIP3    H162782   3.337   6.715   3.417 -0.1225 -0.4759 -0.7876
13789TIP3    H262783   3.254   6.744   3.293 -0.3036 -0.0302 -0.5604
13790TIP3   OH262784   7.101   1.999  15.055 -0.1210 -0.1923  0.0138
13790TIP3    H162785   7.035   1.942  15.016  0.3585 -0.1841 -0.8188
13790TIP3    H262786   7.056   2.043  15.128 -0.6600 -1.1573  0.2599
13791TIP3   OH262787   5.631   1.806   3.949 -0.8101 -0.7316  0.1042
13791TIP3    H162788   5.541   1.833   3.967 -0.7021  0.0728 -0.4886
13791TIP3    H262789   5.630   1.777   3.858 -0.1059  1.0549 -0.5131
13792TIP3   OH262790   1.725   7.040   6.037  0.0124 -0.0791  0.7935
13792TIP3    H162791   1.702   6.969   6.097  0.5347 -0.2351  0.8065
13792TIP3    H262792   1.775   6.999   5.967  0.4488  0.2977  0.8807
13793TIP3   OH262793   0.785   1.977   2.231  0.3343 -0.2487  0.1246
13793TIP3    H162794   0.724   2.026   2.286  0.1812  0.0450 -0.3097
13793TIP3    H262795   0.730   1.917   2.180  0.4897 -0.6304  0.3992
13794TIP3   OH262796   1.009   5.693   4.599  0.4879 -0.1105 -0.5164
13794TIP3    H162797   0.991   5.699   4.692  0.5463 -1.4890 -0.4036
13794TIP3    H262798   1.075   5.623   4.592 -0.8805 -1.3051 -1.7547
13795TIP3   OH262799   2.458   0.092   4.852  0.4146 -0.1318  0.2635
13795TIP3    H162800   2.407   0.091   4.771 -0.6950 -1.2819  0.9567
13795TIP3    H262801   2.524   0.023   4.840  1.9245  1.4448 -0.6867
13796TIP3   OH262802   5.591   6.592   3.358  0.1749 -0.2154 -0.2374
13796TIP3    H162803   5.674   6.635   3.338  0.2164  0.1583  0.6836
13796TIP3    H262804   5.552   6.573   3.273  0.2326  1.5059 -0.6808
13797TIP3   OH262805   3.487   2.342   5.833 -0.4179  0.1585 -0.0627
13797TIP3    H162806   3.547   2.372   5.764 -1.9568  1.2487 -0.9702
13797TIP3    H262807   3.524   2.260   5.864  2.2571  1.4565  0.3150
13798TIP3   OH262808   4.687   2.601   0.332  0.4062 -0.3874  0.1689
13798TIP3    H162809   4.712   2.668   0.268  1.3059 -0.8136  0.0746
13798TIP3    H262810   4.612   2.556   0.291  0.0790  0.2717  0.0429
13799TIP3   OH262811   4.006   1.728   5.062  0.1571 -0.1295 -0.1686
13799TIP3    H162812   3.961   1.659   5.014  0.8109 -0.9011  0.3337
13799TIP3    H262813   3.936   1.790   5.084 -0.3130 -0.2729 -1.2129
13800TIP3   OH262814   5.519   0.665   1.133  0.1051  0.1759  0.5017
13800TIP3    H162815   5.444   0.657   1.192 -0.6688 -0.5638 -0.5747
13800TIP3    H262816   5.515   0.755   1.102 -0.2486  0.1832  0.5658
13801TIP3   OH262817   4.398   1.595   5.514 -0.8083 -0.2196 -0.0674
13801TIP3    H162818   4.415   1.572   5.606 -0.2890  0.0586 -0.0967
13801TIP3    H262819   4.302   1.597   5.508 -0.8655  2.6966  1.2015
13802TIP3   OH262820   5.031   4.223   4.828 -0.0436 -0.4858  0.0511
13802TIP3    H162821   4.942   4.187   4.828  1.1971 -3.7034  0.9393
13802TIP3    H262822   5.064   4.205   4.916  1.1248  1.6554  0.0754
13803TIP3   OH262823   2.180   3.350  15.138 -0.2934  0.4134 -0.1150
13803TIP3    H162824   2.097   3.397  15.126  0.2702  1.5751  0.4004
13803TIP3    H262825   2.228   3.365  15.056 -1.1551 -1.4487 -0.9754
13804TIP3   OH262826   1.187   3.095   5.284 -0.5412 -0.2027  0.2836
13804TIP3    H162827   1.243   3.125   5.356  1.3376 -0.2325 -1.1306
13804TIP3    H262828   1.097   3.108   5.316  0.2623 -0.8981  2.8870
13805TIP3   OH262829   2.015   3.502   4.232  0.5542  0.3084 -0.1946
13805TIP3    H162830   2.034   3.488   4.325 -2.8905 -1.1606  0.3687
13805TIP3    H262831   2.050   3.424   4.188  3.1675  1.5194 -0.3024
13806TIP3   OH262832   3.916   0.773   3.975 -0.2943 -0.4444 -0.1089
13806TIP3    H162833   3.855   0.832   3.931  0.1629  0.1029 -0.0244
13806TIP3    H262834   3.973   0.742   3.904 -1.1474 -1.5563 -0.3131
13807TIP3   OH262835   4.914   6.264   5.667 -0.4453 -0.0105 -0.1826
13807TIP3    H162836   4.938   6.357   5.665  0.0384 -0.1414 -0.6945
13807TIP3    H262837   4.932   6.237   5.756 -1.5491  0.6339  0.2459
13808TIP3   OH262838   1.705   6.151   3.959  0.1411 -0.2297  0.1255
13808TIP3    H162839   1.721   6.132   4.052 -1.1903 -1.8227  0.0592
13808TIP3    H262840   1.633   6.214   3.960  1.8072  1.7192  0.2244
13809TIP3   OH262841   3.564   6.593   5.795  0.3054 -0.3316  0.9124
13809TIP3    H162842   3.489   6.558   5.746  0.8584 -0.3059  0.0322
13809TIP3    H262843   3.525   6.639   5.869 -0.7968  3.1004 -1.6422
13810TIP3   OH262844   1.407   2.696   2.884 -0.2104  0.0332 -0.2871
13810TIP3    H162845   1.358   2.640   2.824 -0.8003  1.2318 -0.9372
13810TIP3    H262846   1.344   2.718   2.953 -0.0398  0.0394 -0.1330
13811TIP3   OH262847   3.123   0.148   2.068  0.4922  0.1875 -0.2165
13811TIP3    H162848   3.196   0.168   2.127  1.4927  4.7720 -2.7862
13811TIP3    H262849   3.045   0.168   2.119  1.0683 -2.0393  1.6185
13812TIP3   OH262850   0.248   0.714   1.681 -0.8294  0.0786 -0.0297
13812TIP3    H162851   0.277   0.758   1.761 -1.7992  0.5490  0.0769
13812TIP3    H262852   0.325   0.713   1.624 -0.4744  0.8440  0.4350
13813TIP3   OH262853   2.223   2.190   4.251 -0.7969 -0.1568 -0.5624
13813TIP3    H162854   2.231   2.185   4.346  0.6277 -0.2059 -0.6599
13813TIP3    H262855   2.314   2.188   4.220 -1.3073 -3.1659 -2.0666
13814TIP3   OH262856   1.169   5.561   3.343  0.5661 -0.0020  0.0064
13814TIP3    H162857   1.117   5.481   3.338 -0.9020  0.9394  0.0232
13814TIP3    H262858   1.227   5.547   3.417 -0.4009 -0.6346  0.6499
13815TIP3   OH262859   3.507   0.187   3.576  0.0184  0.0721  0.3500
13815TIP3    H162860   3.422   0.162   3.611 -0.2515  1.3846  0.6756
13815TIP3    H262861   3.494   0.191   3.481 -0.5792  1.3113  0.4771
13816TIP3   OH262862   0.612   1.421   0.170 -0.0147 -0.3673  0.2020
13816TIP3    H162863   0.564   1.500   0.194 -0.3475  0.0883 -1.9235
13816TIP3    H262864   0.545   1.357   0.149  0.2372 -1.4592  2.5240
13817TIP3   OH262865   2.175   4.873   3.217 -0.0127 -0.3766  0.5485
13817TIP3    H162866   2.199   4.922   3.295  0.9935  1.8997 -1.1277
13817TIP3    H262867   2.098   4.917   3.183  0.7800 -0.0250 -0.8623
13818TIP3   OH262868   1.961   2.266   4.790 -0.6139  0.1513  0.0504
13818TIP3    H162869   1.967   2.325   4.865 -0.9426  1.0609 -0.6268
13818TIP3    H262870   1.975   2.323   4.714  2.4130 -1.1868 -0.4524
13819TIP3   OH262871   2.638   6.682   3.000 -0.1735  0.3056  0.1201
13819TIP3    H162872   2.554   6.682   3.046 -0.5743 -0.2192 -0.5975
13819TIP3    H262873   2.624   6.623   2.925  1.2516 -0.8851  0.7632
13820TIP3   OH262874   4.766   1.081   1.396 -0.2191  0.0967 -0.2313
13820TIP3    H162875   4.751   1.170   1.365  1.6441 -0.1231 -1.8758
13820TIP3    H262876   4.738   1.025   1.324  1.4942 -0.5265 -0.4401
13821TIP3   OH262877   0.250   6.627   2.124 -0.1181  0.3299  0.1047
13821TIP3    H162878   0.305   6.590   2.055  0.4212  0.0922  0.6519
13821TIP3    H262879   0.275   6.719   2.128  0.0932  0.2676  0.2139
13822TIP3   OH262880   7.254   0.404   4.436 -0.5693 -0.0053  0.2127
13822TIP3    H162881   7.347   0.426   4.429 -1.1567  3.1255  1.2859
13822TIP3    H262882   7.209   0.479   4.398 -2.6907 -0.9772  0.7345
13823TIP3   OH262883   2.526   2.593   3.469 -0.2374  0.0566 -0.3623
13823TIP3    H162884   2.463   2.617   3.537  0.3990 -0.4349  0.4118
13823TIP3    H262885   2.484   2.522   3.421  0.4285 -1.5184  1.2877
13824TIP3   OH262886   2.237   1.120   0.110 -0.9517  0.5410 -0.3596
13824TIP3    H162887   2.275   1.208   0.111 -0.3019  0.2691 -1.0757
13824TIP3    H262888   2.312   1.061   0.107 -1.3929 -0.0439 -0.0394
13825TIP3   OH262889   6.121   0.319   4.970 -0.6507  0.4822  0.0544
13825TIP3    H162890   6.137   0.230   5.002  0.7432  1.0066  0.8523
13825TIP3    H262891   6.085   0.365   5.046 -1.0415  0.6937 -0.2596
13826TIP3   OH262892   6.568   6.182   5.217 -0.4133  0.1572 -0.3027
13826TIP3    H162893   6.493   6.133   5.251  0.0704 -1.1077 -1.0157
13826TIP3    H262894   6.598   6.235   5.291 -0.8670 -0.7284  0.5311
13827TIP3   OH262895   4.518   0.880   5.723 -0.1768 -0.3102 -0.8080
13827TIP3    H162896   4.482   0.857   5.637  0.5048 -0.7481 -0.9774
13827TIP3    H262897   4.486   0.969   5.739 -0.3133 -0.2289 -1.5098
13828TIP3   OH262898   4.428   1.683   4.933  0.3321 -0.4584 -0.0715
13828TIP3    H162899   4.480   1.728   5.000 -0.1520  1.3508 -0.8791
13828TIP3    H262900   4.393   1.754   4.879 -0.8199 -1.8061 -1.1092
13829TIP3   OH262901   3.261   2.104   3.647  0.1224 -0.1667  0.0496
13829TIP3    H162902   3.252   2.172   3.713  0.0577 -0.6231  0.5138
13829TIP3    H262903   3.224   2.143   3.567 -2.0429 -0.4559  0.8676
13830TIP3   OH262904   1.336   6.663   2.790  0.2605  0.0662  0.3610
13830TIP3    H162905   1.285   6.682   2.869  0.6669 -1.1320  0.9219
13830TIP3    H262906   1.375   6.577   2.807  0.3876 -0.1736 -1.1333
13831TIP3   OH262907   5.185   2.984   0.889 -0.6997  0.3501 -0.7829
13831TIP3    H162908   5.224   2.932   0.818 -2.1875 -1.1128 -0.5701
13831TIP3    H262909   5.169   3.070   0.851 -0.5399 -0.1196 -1.9172
13832TIP3   OH262910   1.963   2.095   5.262  0.3150 -0.3570  0.6115
13832TIP3    H162911   2.056   2.096   5.240 -0.3702  1.3284 -2.4483
13832TIP3    H262912   1.921   2.057   5.185 -1.6495 -0.1252  1.5575
13833TIP3   OH262913   5.815   0.800   2.529 -0.1640  0.5464 -0.5940
13833TIP3    H162914   5.875   0.726   2.539 -0.2482  0.5983  0.3412
13833TIP3    H262915   5.734   0.761   2.496  0.4566  0.5109 -2.1379
13834TIP3   OH262916   2.420   5.071   3.995 -0.5725 -0.4213 -0.0259
13834TIP3    H162917   2.505   5.084   3.953 -0.0735 -1.7072  0.5476
13834TIP3    H262918   2.356   5.096   3.929  0.2719  2.4026  0.1897
13835TIP3   OH262919   6.687   6.784   1.363  0.5033 -0.0684 -0.8916
13835TIP3    H162920   6.592   6.787   1.371  0.6080 -0.4806  0.6690
13835TIP3    H262921   6.704   6.708   1.306 -0.0796 -0.2228 -0.8586
13836TIP3   OH262922   2.022   4.142   0.403 -0.1724  0.2138  0.4732
13836TIP3    H162923   2.089   4.098   0.456 -0.0486  2.5437  2.3478
13836TIP3    H262924   2.043   4.118   0.313  2.7513  0.3131  1.0772
13837TIP3   OH262925   2.526   0.633   4.764  0.3462  0.2711 -0.6323
13837TIP3    H162926   2.484   0.678   4.838  0.5462  0.4706 -0.6413
13837TIP3    H262927   2.550   0.547   4.798 -0.3835  0.0291 -0.7249
13838TIP3   OH262928   6.919   5.267   3.492 -0.0817  0.3777  0.1679
13838TIP3    H162929   6.944   5.355   3.519 -0.9345 -0.0228  2.3468
13838TIP3    H262930   6.826   5.260   3.515 -0.0956 -0.9857 -0.2467
13839TIP3   OH262931   5.386   2.178   4.971 -0.3826 -0.1438 -0.2049
13839TIP3    H162932   5.309   2.206   5.021  0.2713  0.7540  0.3042
13839TIP3    H262933   5.454   2.166   5.036  0.0466 -0.4967 -0.7114
13840TIP3   OH262934   3.167   0.419   2.337 -0.2271  0.0855 -0.3450
13840TIP3    H162935   3.232   0.445   2.403 -0.7227 -0.2952  0.3045
13840TIP3    H262936   3.218   0.374   2.270  0.3673  1.0079 -0.5185
13841TIP3   OH262937   4.945   6.490   0.816 -0.4858  0.4693  0.2595
13841TIP3    H162938   4.911   6.418   0.869 -0.3053  0.1548 -0.0497
13841TIP3    H262939   4.871   6.550   0.806 -0.8853 -0.0938 -0.2044
13842TIP3   OH262940   0.394   1.450   3.069  0.6347  0.1608 -0.0572
13842TIP3    H162941   0.410   1.524   3.010  0.1273  1.3287  1.2343
13842TIP3    H262942   0.300   1.456   3.090 -0.7012 -3.9670 -4.0484
13843TIP3   OH262943   5.147   5.961   0.463 -0.1773 -0.8608 -0.2819
13843TIP3    H162944   5.073   5.956   0.525 -0.7732 -0.5304 -0.9602
13843TIP3    H262945   5.109   5.998   0.384  0.9112  0.0816 -0.3637
13844TIP3   OH262946   5.361   0.216   2.133 -0.2303 -0.0920 -0.0311
13844TIP3    H162947   5.454   0.232   2.145 -0.3963  0.2520  0.8238
13844TIP3    H262948   5.319   0.258   2.208 -1.2289  1.3845 -1.3905
13845TIP3   OH262949   2.448   6.432   2.396 -0.4211 -0.1160  0.0561
13845TIP3    H162950   2.458   6.521   2.429  0.3908 -0.9923  2.2313
13845TIP3    H262951   2.354   6.423   2.378 -0.6129  0.9249  0.5256
13846TIP3   OH262952   3.970   4.005   5.836  0.1953  0.4276  0.0096
13846TIP3    H162953   4.011   3.924   5.866 -0.9011  0.0930  0.6286
13846TIP3    H262954   3.892   4.014   5.891  1.0122  2.5988  0.8636
13847TIP3   OH262955   0.284   6.633   4.638  0.2866 -0.1378 -0.0328
13847TIP3    H162956   0.339   6.677   4.702  0.1857 -0.4515  0.2729
13847TIP3    H262957   0.203   6.683   4.637 -0.0445 -0.6476  0.7370
13848TIP3   OH262958   6.602   0.826   2.764  0.2848 -0.2190  0.1085
13848TIP3    H162959   6.595   0.814   2.669 -1.5992 -2.5984  0.4941
13848TIP3    H262960   6.640   0.744   2.795  1.9444  0.9747  1.3340
13849TIP3   OH262961   3.694   0.811   1.482 -0.2208 -0.4548  0.0834
13849TIP3    H162962   3.625   0.837   1.544  0.2505  1.1830 -0.0487
13849TIP3    H262963   3.657   0.828   1.396 -1.0321 -3.1356 -0.1267
13850TIP3   OH262964   4.922   1.333   4.589  0.1534  0.4056 -0.5142
13850TIP3    H162965   4.859   1.263   4.576  0.9386 -0.3834 -0.1501
13850TIP3    H262966   4.875   1.399   4.639 -0.2737 -0.3453  0.0872
13851TIP3   OH262967   5.881   6.647   0.964 -0.2528  0.5046  0.2036
13851TIP3    H162968   5.903   6.718   0.904  0.2777  1.9491  2.0560
13851TIP3    H262969   5.953   6.646   1.028 -1.6920  0.2403  1.8792
13852TIP3   OH262970   6.379   2.824   3.842 -0.1765  0.3304  0.4449
13852TIP3    H162971   6.363   2.914   3.816  0.8978  0.2343 -0.6228
13852TIP3    H262972   6.459   2.799   3.795 -0.9658 -1.4601 -0.0131
13853TIP3   OH262973   3.147   2.848   2.981 -0.7132 -0.4921 -0.1724
13853TIP3    H162974   3.097   2.831   2.901  0.6494 -3.4037 -0.4860
13853TIP3    H262975   3.114   2.783   3.043 -0.1730  0.2710  0.9197
13854TIP3   OH262976   3.999   6.612   1.726 -0.1103 -0.0615  0.4149
13854TIP3    H162977   4.004   6.699   1.685  0.1711  0.6314  1.8986
13854TIP3    H262978   3.981   6.630   1.818  2.2103 -1.5077  1.1871
13855TIP3   OH262979   3.526   2.800   2.326 -0.0264 -0.0228  0.5969
13855TIP3    H162980   3.477   2.845   2.257 -0.6002  1.4557  1.9599
13855TIP3    H262981   3.608   2.774   2.283 -1.0031 -0.4886 -1.0578
13856TIP3   OH262982   4.417   1.209   1.963  0.8098  0.3058  0.0970
13856TIP3    H162983   4.330   1.199   2.001  0.9626  1.1085  0.6919
13856TIP3    H262984   4.403   1.213   1.869  0.0001  2.1683  0.2637
13857TIP3   OH262985   0.511   5.370   3.166  0.2455 -0.1204  0.0672
13857TIP3    H162986   0.550   5.358   3.252 -3.9987 -0.9580  2.0123
13857TIP3    H262987   0.513   5.284   3.125 -2.3794 -0.8719  1.4666
13858TIP3   OH262988   5.534   0.964  14.730 -0.3056  0.1868  0.4335
13858TIP3    H162989   5.542   0.897  14.797  2.1783  0.1971  0.1830
13858TIP3    H262990   5.609   0.951  14.673 -1.1669  1.5809 -1.0778
13859TIP3   OH262991   6.787   2.564   2.067  0.2443 -0.0287  0.7207
13859TIP3    H162992   6.699   2.602   2.059  0.5301  0.4437 -0.1482
13859TIP3    H262993   6.841   2.634   2.102  0.9757  0.6925 -1.7351
13860TIP3   OH262994   5.452   0.384   1.733  0.8224  0.0246  0.6283
13860TIP3    H162995   5.531   0.348   1.773  0.0141  0.3451  2.5961
13860TIP3    H262996   5.415   0.440   1.801 -0.4523  0.8281 -0.7034
13861TIP3   OH262997   4.860   1.134   5.345 -0.0467  0.4319  0.1391
13861TIP3    H162998   4.816   1.118   5.261 -1.4185  0.1498  0.8827
13861TIP3    H262999   4.874   1.229   5.347  1.7705  0.2079 -1.2510
13862TIP3   OH263000   6.357   5.018   1.175 -0.1445  0.1214 -0.0044
13862TIP3    H163001   6.421   5.089   1.170 -1.2180  0.9890 -1.5971
13862TIP3    H263002   6.389   4.963   1.247  0.6854  2.2013  1.2604
13863TIP3   OH263003   3.771   1.922   0.651 -0.6648  0.7658  0.2592
13863TIP3    H163004   3.693   1.867   0.643 -0.4291  0.3866  0.5486
13863TIP3    H263005   3.823   1.901   0.574 -0.8678  1.0530  0.0418
13864TIP3   OH263006   3.185   1.407   4.153  0.2003  0.0776  0.9799
13864TIP3    H163007   3.112   1.418   4.213  0.1329 -0.7242  1.0544
13864TIP3    H263008   3.144   1.389   4.068  0.3134 -0.7161  1.0929
13865TIP3   OH263009   4.728   1.228  15.741  0.6521 -0.3526 -0.0616
13865TIP3    H163010   4.806   1.274  15.772  0.7464 -0.3868 -0.2521
13865TIP3    H263011   4.758   1.138  15.725  0.2955 -0.6798  1.0394
13866TIP3   OH263012   4.211   7.172   3.729 -0.2395  0.2423  0.0797
13866TIP3    H163013   4.262   7.104   3.772  0.3640  0.6205 -0.0404
13866TIP3    H263014   4.268   7.248   3.727 -1.0497  0.8780  0.5599
13867TIP3   OH263015   4.817   3.054   2.206 -0.2829 -0.0366  0.5754
13867TIP3    H163016   4.756   3.086   2.139 -1.6222  1.8360  2.6063
13867TIP3    H263017   4.761   3.038   2.282  1.5315  0.0279  1.9350
13868TIP3   OH263018   4.305   3.909   3.738  0.2243 -0.0767 -0.4412
13868TIP3    H163019   4.258   3.940   3.814 -0.1961 -1.8732  0.0658
13868TIP3    H263020   4.272   3.962   3.665 -1.1824 -0.0340  0.2211
13869TIP3   OH263021   6.927   0.282   1.982 -0.4652 -0.0904  0.1040
13869TIP3    H163022   6.982   0.336   2.039 -1.1623 -0.0237  0.7098
13869TIP3    H263023   6.869   0.344   1.938 -0.1553 -0.1779 -0.4387
13870TIP3   OH263024   5.631   1.835   1.784 -0.0151  0.2482  0.4386
13870TIP3    H163025   5.687   1.911   1.770 -1.5533  1.1419 -0.9917
13870TIP3    H263026   5.646   1.811   1.876  1.5463  1.3960  0.4991
13871TIP3   OH263027   6.346   3.598   4.204  0.1534 -0.6514  0.6418
13871TIP3    H163028   6.274   3.643   4.247 -0.5846 -1.1761 -0.0430
13871TIP3    H263029   6.365   3.651   4.126 -1.3912 -2.0449 -0.7172
13872TIP3   OH263030   6.480   6.834   4.637  0.0123 -0.2444 -0.2165
13872TIP3    H163031   6.468   6.925   4.665  0.2486  0.1018 -1.2034
13872TIP3    H263032   6.476   6.783   4.718  0.5618  0.7114  0.4270
13873TIP3   OH263033   3.406   6.149   3.974  0.3174  0.2564  0.0414
13873TIP3    H163034   3.484   6.202   3.956 -0.3137  1.0766 -0.3204
13873TIP3    H263035   3.368   6.188   4.052  1.8377 -1.9490  1.9557
13874TIP3   OH263036   2.130   1.390   4.458  0.3097 -0.5788  0.4614
13874TIP3    H163037   2.101   1.299   4.447  0.7794 -0.6706 -0.0292
13874TIP3    H263038   2.130   1.403   4.553 -2.2111 -0.2875  0.4536
13875TIP3   OH263039   4.809   1.942   1.616  0.8779 -0.6418  0.4376
13875TIP3    H163040   4.783   1.856   1.582  3.1345 -1.2156  0.0655
13875TIP3    H263041   4.844   1.988   1.540  1.7525 -0.2362  1.0863
13876TIP3   OH263042   5.021   3.974   2.170 -0.7662  1.2082  0.1359
13876TIP3    H163043   4.996   4.024   2.248  0.1127  0.2852  1.0164
13876TIP3    H263044   4.958   3.901   2.168  0.0774  0.4461  0.7885
13877TIP3   OH263045   4.651   6.702   5.065 -0.5719  0.3120  0.7946
13877TIP3    H163046   4.659   6.797   5.057 -0.9128  0.2750 -0.0445
13877TIP3    H263047   4.726   6.676   5.117  0.9646  0.7471 -1.1674
13878TIP3   OH263048   4.077   1.893   0.767 -0.6109 -0.0183  0.8078
13878TIP3    H163049   4.010   1.949   0.728 -1.4196 -0.6158  1.3233
13878TIP3    H263050   4.044   1.804   0.755  0.3656 -0.3620  0.5641
13879TIP3   OH263051   4.087   4.349   3.084 -0.4151 -0.5254 -0.2909
13879TIP3    H163052   4.046   4.286   3.143 -0.3412  1.3991  1.8557
13879TIP3    H263053   4.032   4.427   3.091  0.5480  0.2727 -1.5099
13880TIP3   OH263054   1.175   6.345   3.973  0.4122 -0.2163  0.2390
13880TIP3    H163055   1.135   6.426   4.006 -0.9828 -0.2900 -1.2358
13880TIP3    H263056   1.224   6.311   4.048  1.0217  1.9876  0.8825
13881TIP3   OH263057   0.917   3.375   2.616 -0.1707 -0.0225 -0.7300
13881TIP3    H163058   0.965   3.394   2.697  0.2276 -1.7659 -0.5504
13881TIP3    H263059   0.962   3.425   2.549  0.6570 -0.0577 -0.2056
13882TIP3   OH263060   5.869   7.211   3.590 -0.4914  0.0974  0.5980
13882TIP3    H163061   5.856   7.305   3.581 -2.3341  0.3142  4.3608
13882TIP3    H263062   5.929   7.202   3.665  2.1379 -1.6777 -1.6367
13883TIP3   OH263063   3.998   1.759  15.294  0.1905 -0.3083  0.3555
13883TIP3    H163064   3.903   1.755  15.281  0.0554 -1.8181  1.6564
13883TIP3    H263065   4.010   1.743  15.387  1.6878  0.8332  0.3837
13884TIP3   OH263066   2.182   6.439   1.194 -0.5044 -0.1954  0.7826
13884TIP3    H163067   2.267   6.479   1.212 -0.2279  0.0424 -0.9949
13884TIP3    H263068   2.122   6.513   1.183 -0.9468 -0.3619  1.9852
13885TIP3   OH263069   4.885   0.147   5.397  0.4391 -0.2236 -0.3291
13885TIP3    H163070   4.916   0.200   5.470  1.7412 -0.7478 -0.4950
13885TIP3    H263071   4.790   0.154   5.401  0.5776  1.7271 -0.0492
13886TIP3   OH263072   5.902   5.747  15.068 -0.1114 -0.2101  0.4596
13886TIP3    H163073   5.881   5.669  15.018 -1.2538 -0.1883  0.9035
13886TIP3    H263074   5.869   5.730  15.156 -1.5445  1.2592  0.2484
13887TIP3   OH263075   2.277   1.566   5.683  0.0921 -0.1413  0.3238
13887TIP3    H163076   2.262   1.483   5.728  2.0704  0.1746  1.6210
13887TIP3    H263077   2.363   1.595   5.715 -1.2536  3.1795  1.0630
13888TIP3   OH263078   4.103   6.811   4.591 -0.4076  0.3224  0.0997
13888TIP3    H163079   4.170   6.865   4.550  0.1843 -0.2888  0.2522
13888TIP3    H263080   4.149   6.767   4.663 -1.1950  0.6215  0.7880
13889TIP3   OH263081   5.431   6.269  15.607  0.2644  0.1717  0.2573
13889TIP3    H163082   5.414   6.261  15.701  2.8401 -1.2504  0.6295
13889TIP3    H263083   5.394   6.190  15.569  0.8267 -0.1236  0.3189
13890TIP3   OH263084   5.569   6.400   1.740 -0.1151  0.6305 -0.1663
13890TIP3    H163085   5.508   6.446   1.798  0.1419  0.7599  0.0008
13890TIP3    H263086   5.552   6.435   1.653 -2.3178 -1.4016 -0.6087
13891TIP3   OH263087   1.683   3.802   2.395  0.7790  0.0041 -0.2062
13891TIP3    H163088   1.687   3.870   2.328 -0.0936  1.2432  0.9756
13891TIP3    H263089   1.724   3.842   2.472 -0.8030 -0.3431  0.8563
13892TIP3   OH263090   6.002   6.815   3.532 -0.0411 -0.3506  0.5490
13892TIP3    H163091   5.988   6.776   3.618  0.4299 -0.6327  0.4985
13892TIP3    H263092   6.047   6.747   3.482  0.3773  0.0911  0.3220
13893TIP3   OH263093   2.285   0.193   1.538  0.2576 -0.0775  0.7505
13893TIP3    H163094   2.340   0.172   1.614  3.3552  2.0205 -0.8163
13893TIP3    H263095   2.251   0.280   1.556  0.8201  0.3339 -0.1573
13894TIP3   OH263096   3.040   0.944   5.111 -0.6055  0.0006 -0.2638
13894TIP3    H163097   3.014   0.909   5.025 -0.3692 -0.2896 -0.2198
13894TIP3    H263098   3.108   0.884   5.141 -0.6197  0.1594  0.0847
13895TIP3   OH263099   5.312   6.008   5.431 -0.1782 -0.1664 -0.2786
13895TIP3    H163100   5.331   6.010   5.525 -0.7655  0.7140 -0.1762
13895TIP3    H263101   5.269   5.924   5.417 -2.1305  0.6646  0.6443
13896TIP3   OH263102   6.172   2.417   3.187  0.5747 -0.5753  0.4881
13896TIP3    H163103   6.100   2.408   3.125  2.0138 -0.3408 -1.2860
13896TIP3    H263104   6.165   2.506   3.220  1.1695  0.1341 -1.1933
13897TIP3   OH263105   3.943   1.725  15.615 -0.2289 -0.2205 -0.6772
13897TIP3    H163106   3.920   1.648  15.668  0.4691 -0.0575 -0.1130
13897TIP3    H263107   4.028   1.702  15.577  0.2363  0.4693 -0.0811
13898TIP3   OH263108   5.099   6.281   3.834  0.0947 -0.0943  0.2143
13898TIP3    H163109   5.131   6.309   3.748  1.8061 -1.1914  0.4575
13898TIP3    H263110   5.104   6.185   3.831 -4.1006 -0.3799 -0.0375
13899TIP3   OH263111   4.354   6.927   1.718 -0.4125 -0.0962  0.1856
13899TIP3    H163112   4.419   6.859   1.736 -0.4510  0.2410  1.6207
13899TIP3    H263113   4.379   6.961   1.632 -0.5687 -2.1029 -0.6950
13900TIP3   OH263114   0.318   5.294   2.788 -0.1602 -0.3349  0.2145
13900TIP3    H163115   0.264   5.319   2.713 -2.9433 -1.4960  1.7797
13900TIP3    H263116   0.361   5.375   2.815 -1.7425  0.7749 -0.5719
13901TIP3   OH263117   1.720   0.142   4.559 -0.0522  0.4352  0.0942
13901TIP3    H163118   1.706   0.211   4.494  0.9157  0.6906  0.1533
13901TIP3    H263119   1.812   0.117   4.548 -0.3014 -0.6099  0.3087
13902TIP3   OH263120   4.401   3.514   0.725  0.4212  0.1428 -0.6493
13902TIP3    H163121   4.390   3.586   0.662 -1.3222  1.0056  0.5872
13902TIP3    H263122   4.357   3.546   0.805  2.6542 -0.8865  1.0362
13903TIP3   OH263123   4.524   3.795   1.485  0.6268 -0.1085  0.1468
13903TIP3    H163124   4.448   3.799   1.428  0.7490  0.6591  0.0237
13903TIP3    H263125   4.596   3.766   1.428  0.8963  1.3230 -0.2624
13904TIP3   OH263126   2.333   3.397   3.930 -0.0279  0.2872 -0.2730
13904TIP3    H163127   2.302   3.391   3.840  2.6575 -1.4453 -1.1399
13904TIP3    H263128   2.371   3.311   3.948 -0.2313  0.7257  2.4065
13905TIP3   OH263129   3.674   6.268   4.201 -0.3834  0.0721  0.2067
13905TIP3    H163130   3.658   6.333   4.270  1.1326  1.3004 -0.5929
13905TIP3    H263131   3.642   6.309   4.121 -0.6650 -0.7218 -0.0963
13906TIP3   OH263132   4.723   2.714   4.094  1.2777  0.4575  0.2886
13906TIP3    H163133   4.691   2.760   4.016  0.4289  1.1065  1.0146
13906TIP3    H263134   4.672   2.633   4.097  1.4034  0.3722  0.0918
13907TIP3   OH263135   0.092   1.379   3.367  0.6237  0.0064  0.3669
13907TIP3    H163136   0.037   1.419   3.299  0.7645 -0.4227 -0.0063
13907TIP3    H263137   0.101   1.447   3.434 -0.3527  0.0858  0.4237
13908TIP3   OH263138   6.172   0.726   4.735  0.0555 -0.2385 -0.1558
13908TIP3    H163139   6.083   0.702   4.709 -0.1195  0.9253 -0.6695
13908TIP3    H263140   6.177   0.821   4.719  1.5577 -0.3828 -0.6380
13909TIP3   OH263141   3.064   5.735   1.990  0.2152 -0.1853  0.6175
13909TIP3    H163142   2.972   5.727   2.016 -0.3376 -0.0115 -1.1766
13909TIP3    H263143   3.085   5.650   1.951  0.2838  0.3475 -0.5330
13910TIP3   OH263144   4.732   6.576   1.342 -0.1710  0.4278  0.5003
13910TIP3    H163145   4.646   6.569   1.301 -0.3441  1.5436  0.6426
13910TIP3    H263146   4.786   6.624   1.279  0.7821 -1.5230 -0.2127
13911TIP3   OH263147   3.814   2.665   4.950  0.4410  0.4862 -0.0678
13911TIP3    H163148   3.749   2.734   4.958  1.5262  1.4132  1.0695
13911TIP3    H263149   3.796   2.605   5.023  0.6710  0.5880  0.0743
13912TIP3   OH263150   5.988   1.480   4.830  0.3242 -0.5426 -0.0239
13912TIP3    H163151   6.000   1.491   4.925  2.2809 -3.0286  0.0970
13912TIP3    H263152   5.944   1.395   4.822 -0.4358 -0.0242 -1.3133
13913TIP3   OH263153   0.228   1.200   2.988 -0.0251  0.1270 -0.3649
13913TIP3    H163154   0.269   1.222   2.904  1.4919 -0.9272  0.0872
13913TIP3    H263155   0.301   1.188   3.048 -1.0062 -1.4513  0.5386
13914TIP3   OH263156   4.009   4.681   3.149  0.1782 -0.3387  0.4900
13914TIP3    H163157   4.046   4.665   3.236 -1.5593 -2.4912  0.8944
13914TIP3    H263158   3.966   4.766   3.156 -0.6286 -0.8547  1.9910
13915TIP3   OH263159   4.845   7.141   4.113 -0.2467 -0.0256 -0.1441
13915TIP3    H163160   4.834   7.054   4.074  1.2202 -0.0531 -0.5236
13915TIP3    H263161   4.788   7.140   4.190 -1.1966 -0.8784 -0.8425
13916TIP3   OH263162   5.025   0.939   4.689 -0.1847 -0.2840 -0.5725
13916TIP3    H163163   5.034   1.030   4.718 -1.6712 -0.4849  0.5693
13916TIP3    H263164   5.093   0.928   4.622  0.5637  1.4106 -0.1057
13917TIP3   OH263165   3.794   1.551   5.240  0.4069  0.9406 -0.7889
13917TIP3    H163166   3.877   1.529   5.198 -0.1265  0.1476 -1.4587
13917TIP3    H263167   3.786   1.491   5.314  1.1910  2.1169  0.2669
13918TIP3   OH263168   4.094   5.751   2.366 -0.4334 -0.0873  0.7315
13918TIP3    H163169   4.114   5.678   2.425  0.6600  0.6439  1.2867
13918TIP3    H263170   4.164   5.749   2.302  0.8186  1.7689  1.9911
13919TIP3   OH263171   2.595   2.179   3.242  0.4775 -0.1872  0.1651
13919TIP3    H163172   2.503   2.166   3.265  0.7715  0.5665  1.8677
13919TIP3    H263173   2.600   2.272   3.217  0.3866 -0.7256 -1.9549
13920TIP3   OH263174   3.443   6.593   0.927 -0.4072 -0.0566 -0.2345
13920TIP3    H163175   3.351   6.608   0.946 -0.1577 -0.6062  1.5192
13920TIP3    H263176   3.476   6.546   1.004  1.3758  0.2959 -0.7576
13921TIP3   OH263177   3.521   2.279   3.477  0.4675  0.7173 -0.4393
13921TIP3    H163178   3.496   2.217   3.408  2.5410  0.2788 -0.8388
13921TIP3    H263179   3.449   2.276   3.539  0.1515 -1.5042 -0.8601
13922TIP3   OH263180   5.689   2.764   4.954  0.0691  0.1109 -0.0135
13922TIP3    H163181   5.646   2.789   5.035 -2.0956  0.2639 -1.1780
13922TIP3    H263182   5.679   2.840   4.896 -0.4131 -0.8163 -1.1801
13923TIP3   OH263183   3.304   1.030   0.143 -1.1702 -0.3959 -0.3414
13923TIP3    H163184   3.299   0.935   0.147 -0.6724 -0.5292 -2.1094
13923TIP3    H263185   3.396   1.051   0.159 -1.3391 -0.1989  0.3552
13924TIP3   OH263186   4.723   3.794   5.289  0.2753 -0.0361 -0.1318
13924TIP3    H163187   4.746   3.886   5.272  1.1332 -0.2857 -0.3327
13924TIP3    H263188   4.671   3.768   5.212  0.2634  0.1999 -0.2037
13925TIP3   OH263189   4.622   1.155   3.406  0.4034  0.1415  0.1840
13925TIP3    H163190   4.549   1.109   3.448 -1.0414  1.6798 -0.5564
13925TIP3    H263191   4.655   1.215   3.472 -0.3529  0.9031 -0.1207
13926TIP3   OH263192   3.851   0.008   3.196  0.5835  0.2457  0.1908
13926TIP3    H163193   3.882  -0.014   3.108  0.6419 -1.1497  0.5463
13926TIP3    H263194   3.756   0.012   3.188  0.6844  1.7208 -0.2857
13927TIP3   OH263195   4.748   0.644   1.000 -0.0131 -0.2942  0.0798
13927TIP3    H163196   4.764   0.697   0.922  0.9260 -2.5544 -1.3085
13927TIP3    H263197   4.689   0.575   0.971 -1.6861  0.2814  2.0044
13928TIP3   OH263198   0.702   6.893   3.378 -0.3506 -0.7714  0.8390
13928TIP3    H163199   0.762   6.935   3.440 -0.1918  0.4447 -0.1080
13928TIP3    H263200   0.679   6.963   3.316 -0.6906 -1.8964 -0.3292
13929TIP3   OH263201   5.260   4.437   3.866  0.6578  0.5433 -0.0774
13929TIP3    H163202   5.321   4.472   3.931  1.3480  0.2110 -0.5475
13929TIP3    H263203   5.291   4.472   3.783  0.5940 -0.1527 -0.3965
13930TIP3   OH263204   4.449   6.612   0.431  0.0768 -0.2038  0.2668
13930TIP3    H163205   4.411   6.678   0.489  1.1334 -0.6918  1.5352
13930TIP3    H263206   4.530   6.651   0.400 -1.0739  0.5573 -1.8982
13931TIP3   OH263207   5.371   2.573   1.545 -0.0496  0.3375 -0.4623
13931TIP3    H163208   5.429   2.595   1.471  0.5221 -0.5284 -0.2855
13931TIP3    H263209   5.413   2.614   1.620  1.7653 -2.3691  0.1033
13932TIP3   OH263210   6.112   4.471   3.265  0.0652  0.1858 -0.3110
13932TIP3    H163211   6.038   4.511   3.310 -1.2877 -1.6941 -0.8269
13932TIP3    H263212   6.117   4.516   3.181  0.2414  1.1071  0.1896
13933TIP3   OH263213   6.789   3.267   3.925  0.8991  0.7096  0.3249
13933TIP3    H163214   6.792   3.350   3.876 -0.5667  0.4215 -0.2730
13933TIP3    H263215   6.797   3.293   4.017 -0.0605  1.5605  0.1756
13934TIP3   OH263216   0.771   5.308   0.674 -0.1284  0.4449  0.7256
13934TIP3    H163217   0.721   5.373   0.723  0.9274  3.4201 -1.9599
13934TIP3    H263218   0.723   5.297   0.592  1.2601  0.0629 -0.0586
13935TIP3   OH263219   5.742   1.022   5.036  0.0615 -0.3626 -0.1855
13935TIP3    H163220   5.670   0.989   5.091  1.2782 -0.2183  1.5323
13935TIP3    H263221   5.714   1.109   5.010 -0.2387 -0.1575  0.7877
13936TIP3   OH263222   3.488   1.884   2.613  0.1454  0.1734  0.1105
13936TIP3    H163223   3.579   1.862   2.599 -0.0919 -0.1957 -0.9099
13936TIP3    H263224   3.488   1.979   2.628  0.7212  0.1288  0.3648
13937TIP3   OH263225   1.303   1.981   1.327 -0.5392  0.5099  0.1693
13937TIP3    H163226   1.233   1.929   1.369 -1.2132  0.8072 -0.5734
13937TIP3    H263227   1.382   1.929   1.340 -1.4399 -1.4292 -1.8395
13938TIP3   OH263228   2.995   4.537   2.936 -0.6154  0.0185 -0.2798
13938TIP3    H163229   2.979   4.615   2.883  2.6649 -0.6698 -2.4445
13938TIP3    H263230   2.922   4.478   2.916 -1.8268  1.5558 -0.4725
13939TIP3   OH263231   2.303   6.894   0.632 -0.1973  0.2383  0.3484
13939TIP3    H163232   2.239   6.872   0.699 -0.7243 -1.8472 -0.8075
13939TIP3    H263233   2.382   6.848   0.659  0.2770  1.2715  0.7521
13940TIP3   OH263234   1.496   2.714   4.428 -0.6065 -0.0795  0.3086
13940TIP3    H163235   1.459   2.642   4.480 -1.2240  0.7294  1.0008
13940TIP3    H263236   1.426   2.739   4.368  0.3626 -1.5151 -1.4660
13941TIP3   OH263237   2.858   4.921   3.968  0.0255  0.2805 -0.0344
13941TIP3    H163238   2.822   5.009   3.955  0.4888  0.6967  1.3901
13941TIP3    H263239   2.910   4.928   4.048 -0.2880 -1.3998  0.3389
13942TIP3   OH263240   5.602   0.734   3.571  0.3344  0.1553  0.2588
13942TIP3    H163241   5.521   0.683   3.577  0.7838 -1.0889 -3.1186
13942TIP3    H263242   5.671   0.674   3.601  0.2679  0.5128  1.1394
13943TIP3   OH263243   1.758   4.417   2.824  0.2409 -0.5199 -0.0373
13943TIP3    H163244   1.692   4.374   2.769  1.7520 -2.1427 -0.6450
13943TIP3    H263245   1.813   4.464   2.762 -0.2520  0.7546  0.4640
13944TIP3   OH263246   3.868   2.662   2.409  0.0460 -0.0383 -0.5756
13944TIP3    H163247   3.859   2.609   2.329 -0.7634 -0.2311 -0.3590
13944TIP3    H263248   3.881   2.751   2.377  0.8999 -0.2956 -0.9380
13945TIP3   OH263249   3.739   1.564   2.215 -0.3734 -0.4216  0.3122
13945TIP3    H163250   3.759   1.565   2.121  3.0744 -3.3904  0.9074
13945TIP3    H263251   3.671   1.497   2.223 -1.5203  0.6636 -0.1721
13946TIP3   OH263252   6.364   6.256   2.546  0.1058  0.1087 -0.6516
13946TIP3    H163253   6.417   6.246   2.625  0.0614  2.1751 -0.3353
13946TIP3    H263254   6.276   6.231   2.574  0.1571  0.5013 -0.1152
13947TIP3   OH263255   3.588   2.331   3.214  0.2797 -0.5018 -0.1971
13947TIP3    H163256   3.597   2.330   3.309 -2.7912 -0.3571  0.1298
13947TIP3    H263257   3.580   2.424   3.192 -0.4516 -0.6238 -0.4498
13948TIP3   OH263258   2.978   4.109   3.715 -0.2544  0.0821 -0.2946
13948TIP3    H163259   2.912   4.096   3.784 -1.0233  1.7901 -0.6740
13948TIP3    H263260   2.957   4.195   3.679  2.4935  0.8900 -0.0790
13949TIP3   OH263261   3.773   3.964   0.945  0.2510 -1.2063  0.0467
13949TIP3    H163262   3.727   3.888   0.981 -0.8598  0.2934  1.8704
13949TIP3    H263263   3.708   4.034   0.945  1.8758  0.3408  0.4563
13950TIP3   OH263264   4.318   0.339   2.111 -0.4982 -0.3705 -0.1949
13950TIP3    H163265   4.277   0.280   2.048  0.7543 -1.5243  0.0436
13950TIP3    H263266   4.411   0.334   2.091  0.0434 -1.5857  2.3951
13951TIP3   OH263267   6.702   4.634  15.840 -0.4962 -0.1567  0.2052
13951TIP3    H163268   6.635   4.584  15.794 -1.9350  1.1887  0.8040
13951TIP3    H263269   6.749   4.681  15.771 -0.9270 -0.1953 -0.1135
13952TIP3   OH263270   4.425   2.109   4.964 -0.1871  0.3905 -0.2191
13952TIP3    H163271   4.369   2.032   4.976 -0.6939  0.7208 -0.4588
13952TIP3    H263272   4.502   2.075   4.918  0.8192 -0.4723  2.0180
13953TIP3   OH263273   2.024   2.427   5.017 -0.0982 -0.0812  0.1283
13953TIP3    H163274   2.030   2.387   5.103  0.6317 -0.1372  0.0604
13953TIP3    H263275   2.115   2.432   4.987 -0.3105  0.3268 -0.4557
13954TIP3   OH263276   2.377   3.221   2.920  0.3272 -0.1514  0.0716
13954TIP3    H163277   2.463   3.215   2.960 -0.1401  1.3524  1.3251
13954TIP3    H263278   2.385   3.291   2.855 -0.1233  0.4242  0.6345
13955TIP3   OH263279   3.684   0.798  15.142  0.0667 -0.1272 -0.1875
13955TIP3    H163280   3.761   0.787  15.199 -0.3768 -0.4796  0.3481
13955TIP3    H263281   3.633   0.867  15.184  0.6892  0.9517 -1.1998
13956TIP3   OH263282   4.557   2.985   4.963  0.0938  0.4364  0.5605
13956TIP3    H163283   4.506   2.904   4.956 -0.5505  0.9453 -0.9138
13956TIP3    H263284   4.542   3.015   5.053 -0.2877 -0.6701  0.8805
13957TIP3   OH263285   6.335   1.912   5.412 -0.4663 -0.1104  0.2467
13957TIP3    H163286   6.402   1.936   5.476  0.1984 -0.4023 -0.3263
13957TIP3    H263287   6.256   1.959   5.440  0.8322  2.9400 -0.9793
13958TIP3   OH263288   4.459   5.888   2.791 -0.1321 -0.3341  0.6661
13958TIP3    H163289   4.554   5.884   2.796 -0.0961  0.1764  0.4504
13958TIP3    H263290   4.437   5.848   2.707 -0.1011 -0.3500  0.6657
13959TIP3   OH263291   2.212   0.074   5.172  0.3743  0.2839 -0.6380
13959TIP3    H163292   2.294   0.076   5.123  1.1160  1.8557  0.6103
13959TIP3    H263293   2.240   0.069   5.264 -0.9716 -1.8417 -0.3156
13960TIP3   OH263294   2.076   2.028   0.804  0.3913 -0.0174 -0.5930
13960TIP3    H163295   2.068   2.041   0.899  1.3650 -0.2265 -0.4757
13960TIP3    H263296   2.125   2.105   0.774 -1.4411  0.9463 -1.1973
13961TIP3   OH263297   4.703   0.989   2.402 -0.0263 -0.3817  0.0059
13961TIP3    H163298   4.723   1.062   2.461 -0.8180 -0.1305 -0.0307
13961TIP3    H263299   4.610   0.971   2.417  0.2033 -1.4897  0.1355
13962TIP3   OH263300   3.367   1.713   4.787  0.4023 -0.0908  0.2076
13962TIP3    H163301   3.338   1.677   4.704 -1.4085  1.8139 -0.0187
13962TIP3    H263302   3.405   1.639   4.834 -0.4900 -1.6180 -1.4580
13963TIP3   OH263303   4.519   0.018   3.195  0.6175 -0.0294  0.7200
13963TIP3    H163304   4.492   0.056   3.279 -0.0939 -0.8419  0.8590
13963TIP3    H263305   4.563  -0.063   3.218 -0.1114 -0.5559  0.2758
13964TIP3   OH263306   3.342   0.250   2.214 -0.4020 -0.1322  0.4516
13964TIP3    H163307   3.378   0.297   2.139 -0.5630 -1.0629 -0.2309
13964TIP3    H263308   3.415   0.240   2.274 -0.8827  2.9019  1.6092
13965TIP3   OH263309   3.296   6.933   3.517  0.3296  0.4235 -0.3698
13965TIP3    H163310   3.351   6.947   3.439  0.6197  1.3154 -0.0118
13965TIP3    H263311   3.327   6.998   3.580  0.1269 -0.3287  0.5172
13966TIP3   OH263312   0.417   2.824   4.630 -0.2273 -0.3353  0.0508
13966TIP3    H163313   0.496   2.820   4.576  0.5395  0.5078  1.0968
13966TIP3    H263314   0.424   2.747   4.687 -1.1765 -1.3833 -1.2044
13967TIP3   OH263315   5.884   0.375   1.545  0.0809  0.1168 -0.4170
13967TIP3    H163316   5.860   0.468   1.536  0.3897  0.5066  2.3833
13967TIP3    H263317   5.804   0.328   1.521 -1.4900  1.2530  2.3382
13968TIP3   OH263318   3.390   0.928   4.360  0.1788 -0.2324  1.1355
13968TIP3    H163319   3.298   0.917   4.385  0.3589  0.5071  2.1703
13968TIP3    H263320   3.436   0.860   4.410 -0.0145 -1.8529 -0.8246
13969TIP3   OH263321   6.914   1.485   3.430  0.4634 -0.0217 -0.7435
13969TIP3    H163322   6.939   1.560   3.377 -1.0450  0.1110 -1.2812
13969TIP3    H263323   6.961   1.498   3.513  0.1199  1.5771 -0.7832
13970TIP3   OH263324   3.850   0.213   2.557 -0.3466 -0.2831 -0.0195
13970TIP3    H163325   3.780   0.149   2.573  1.4417 -2.2062  0.3147
13970TIP3    H263326   3.855   0.264   2.638 -0.1263 -1.3584  0.6520
13971TIP3   OH263327   2.992   6.204  15.367  0.0828  0.3303  0.0930
13971TIP3    H163328   3.067   6.170  15.318 -0.3446 -2.1715  1.0956
13971TIP3    H263329   2.939   6.249  15.301  1.0462 -0.3105 -1.1564
13972TIP3   OH263330   5.827   1.816   5.059 -0.1249  0.4011 -0.3205
13972TIP3    H163331   5.820   1.886   4.995 -2.3216  0.8639  0.3693
13972TIP3    H263332   5.737   1.786   5.071  0.6157 -1.5637  0.4655
13973TIP3   OH263333   0.158   2.518   5.287 -0.3802 -0.4634 -0.2162
13973TIP3    H163334   0.180   2.609   5.266 -1.3208 -0.4371 -1.1419
13973TIP3    H263335   0.146   2.476   5.202  1.9094 -1.9571  0.1407
13974TIP3   OH263336   6.147   6.774   5.232 -0.3137  0.4971  0.1437
13974TIP3    H163337   6.208   6.701   5.224 -0.4627  0.3037  0.7680
13974TIP3    H263338   6.081   6.744   5.294 -0.6684  0.9635  0.0008
13975TIP3   OH263339   3.704   0.350   3.292 -0.2670 -0.2693  0.4848
13975TIP3    H163340   3.696   0.282   3.225  0.2587 -0.1034  0.2483
13975TIP3    H263341   3.797   0.372   3.292 -0.5255  0.8766  0.1442
13976TIP3   OH263342   0.167   5.079   2.308 -0.1718  0.2816  0.5758
13976TIP3    H163343   0.141   5.028   2.385 -0.4085 -0.6683 -0.1130
13976TIP3    H263344   0.247   5.037   2.278 -0.3034  0.3890  0.0742
13977TIP3   OH263345   2.911   4.720  15.085 -0.0174  0.1474  0.1536
13977TIP3    H163346   2.986   4.772  15.059  1.6051 -1.0503  2.2944
13977TIP3    H263347   2.880   4.759  15.167 -0.2339 -0.7940  0.5395
13978TIP3   OH263348   0.109   5.516   5.057 -0.1129  0.0229  0.1508
13978TIP3    H163349   0.057   5.515   5.137 -2.0126 -0.6420 -1.0718
13978TIP3    H263350   0.167   5.440   5.066 -0.0357  0.1850  1.0683
13979TIP3   OH263351   6.401   0.870   0.626 -0.9144  0.7620  0.6128
13979TIP3    H163352   6.459   0.945   0.637 -1.5620  1.0206  2.3003
13979TIP3    H263353   6.338   0.897   0.559 -0.0373  1.0449 -0.1043
13980TIP3   OH263354   6.116   0.044   3.539 -0.2809  0.0733 -0.5310
13980TIP3    H163355   6.105   0.094   3.458  0.1930  0.2300 -0.5003
13980TIP3    H263356   6.028   0.038   3.576 -0.4083  0.5067 -0.7614
13981TIP3   OH263357   2.040   2.346   5.617 -0.3315  0.0666 -0.1997
13981TIP3    H163358   2.111   2.380   5.672  1.7044 -0.5555 -2.3679
13981TIP3    H263359   1.971   2.412   5.624  0.3359  0.5617  2.1480
13982TIP3   OH263360   1.479   2.361   3.245 -0.5015  0.5459  0.6450
13982TIP3    H163361   1.514   2.377   3.333  0.9759 -1.9800  0.5694
13982TIP3    H263362   1.427   2.282   3.255  2.8948 -2.0800 -1.5015
13983TIP3   OH263363   5.157   0.888  15.913 -0.2632  0.2036 -0.5827
13983TIP3    H163364   5.069   0.858  15.933 -0.9502  0.6729 -2.7390
13983TIP3    H263365   5.210   0.808  15.909 -0.6538 -0.1043  0.3970
13984TIP3   OH263366   6.232   7.019   5.018  0.0854  0.2094 -0.5929
13984TIP3    H163367   6.185   6.956   5.073  0.3160  1.1249  0.6999
13984TIP3    H263368   6.305   6.969   4.981 -0.5451 -0.6285 -0.7149
13985TIP3   OH263369   0.849   3.119   1.303  0.1928 -0.4677 -0.0524
13985TIP3    H163370   0.767   3.128   1.351  0.2862 -0.6995  0.1474
13985TIP3    H263371   0.845   3.030   1.266  0.1499 -0.3162 -0.4176
13986TIP3   OH263372   3.747   2.342   3.861  0.3236 -0.1111  0.4090
13986TIP3    H163373   3.664   2.383   3.885 -0.2056 -1.2721  0.6014
13986TIP3    H263374   3.722   2.258   3.823  1.2250  1.0068 -2.8144
13987TIP3   OH263375   2.260   2.441   1.051 -0.4433  0.1640 -0.2374
13987TIP3    H163376   2.251   2.499   0.976  0.3763 -1.3095 -1.4999
13987TIP3    H263377   2.354   2.426   1.059 -0.6477 -0.9534  0.1164
13988TIP3   OH263378   2.865   4.174   4.613  0.1806  0.3006  0.1950
13988TIP3    H163379   2.953   4.181   4.651  0.3549  0.8437 -0.2900
13988TIP3    H263380   2.822   4.106   4.663  0.5097  0.7960  1.1578
13989TIP3   OH263381   3.463   0.371   1.992 -0.3145 -0.2053 -0.5556
13989TIP3    H163382   3.439   0.413   1.910  1.0446  1.7980  0.0233
13989TIP3    H263383   3.550   0.405   2.012 -0.0765 -1.6698  1.0477
13990TIP3   OH263384   4.673   5.404   0.252  0.4421 -0.8252  0.4543
13990TIP3    H163385   4.632   5.413   0.339 -1.4457  1.6470 -0.6044
13990TIP3    H263386   4.761   5.441   0.263  0.1952 -0.4806  1.3287
13991TIP3   OH263387   4.245   5.548   0.049  0.3179  0.2653 -0.2487
13991TIP3    H163388   4.258   5.608  -0.025 -1.2876  1.2848  0.2763
13991TIP3    H263389   4.246   5.460   0.009  1.1880  0.7081 -1.2266
13992TIP3   OH263390   2.375   6.394   2.754  0.4897 -0.7727  0.3626
13992TIP3    H163391   2.384   6.324   2.818  0.7912 -1.8123 -0.8044
13992TIP3    H263392   2.358   6.349   2.671  1.2956  0.5053 -0.5133
13993TIP3   OH263393   6.167   2.171   2.569  0.1126  0.1541  0.2863
13993TIP3    H163394   6.194   2.246   2.516  0.3782  0.6138  1.0623
13993TIP3    H263395   6.150   2.101   2.506 -1.5653  1.3073 -0.5505
13994TIP3   OH263396   6.567   4.191   4.175 -0.3722  0.4456 -0.1751
13994TIP3    H163397   6.535   4.242   4.100 -3.0822  0.0576  0.6599
13994TIP3    H263398   6.545   4.244   4.251  0.5825 -0.0618  0.4612
13995TIP3   OH263399   5.189   6.466  15.899  0.3979 -0.2281 -0.0553
13995TIP3    H163400   5.280   6.447  15.919  0.5382  0.9390  0.4604
13995TIP3    H263401   5.182   6.562  15.906 -1.2028 -0.4275  1.3370
13996TIP3   OH263402   2.341   0.485   2.728 -0.4768  0.0583  0.1615
13996TIP3    H163403   2.416   0.475   2.787  1.2413 -0.5993 -2.0266
13996TIP3    H263404   2.268   0.445   2.774  0.7858 -0.3437  1.8726
13997TIP3   OH263405   6.641   0.575   4.104 -0.5123  0.5451  0.2889
13997TIP3    H163406   6.577   0.506   4.083  0.4151 -0.4713  0.7363
13997TIP3    H263407   6.614   0.608   4.189  0.2121 -0.6752  1.0041
13998TIP3   OH263408   5.988   0.064   2.465  0.6262  0.3135  0.3228
13998TIP3    H163409   6.042  -0.006   2.430 -2.6436 -1.7957 -0.6896
13998TIP3    H263410   5.937   0.096   2.389 -0.7527  1.0886  1.5382
13999TIP3   OH263411   4.337   6.425   4.895  0.1874  0.2559 -0.3293
13999TIP3    H163412   4.432   6.436   4.889  0.2476 -0.7740 -1.3074
13999TIP3    H263413   4.320   6.339   4.857 -1.2325  0.8072 -0.9767
14000TIP3   OH263414   3.476   0.968   5.190 -0.2848 -0.3271  0.0856
14000TIP3    H163415   3.417   0.923   5.251 -0.9706  1.8867  1.0877
14000TIP3    H263416   3.553   0.989   5.243 -0.5441  0.8883 -0.0161
14001TIP3   OH263417   5.626   3.883  14.029  0.5224 -0.2359 -0.0287
14001TIP3    H163418   5.561   3.946  14.059  0.0596  0.0961 -1.7116
14001TIP3    H263419   5.581   3.831  13.962  1.1675 -1.7754  0.6866
14002TIP3   OH263420   1.109   0.115   4.308 -0.0997  0.2915  0.2173
14002TIP3    H163421   1.092   0.092   4.399  0.6136 -1.2851 -0.0297
14002TIP3    H263422   1.045   0.183   4.288  0.2027  1.1457  2.1003
14003TIP3   OH263423   1.493   1.883   5.432  0.5171  0.5668 -0.1653
14003TIP3    H163424   1.422   1.830   5.468  0.1923  1.5549  0.6828
14003TIP3    H263425   1.476   1.971   5.465  0.1752  1.5325 -2.7626
14004TIP3   OH263426   4.357   7.301   2.387 -0.5022 -0.1135 -0.0265
14004TIP3    H163427   4.292   7.351   2.436 -0.5052  0.1131 -0.2614
14004TIP3    H263428   4.394   7.364   2.325  0.7063  0.0402  0.8367
14005TIP3   OH263429   5.424   7.131   5.244  0.1594 -0.7192 -0.1035
14005TIP3    H163430   5.368   7.056   5.225 -0.5382 -0.4554  0.9135
14005TIP3    H263431   5.446   7.166   5.157 -0.8628 -1.0904 -0.5191
14006TIP3   OH263432   2.629   0.914   3.434  0.1994 -0.1687 -0.1375
14006TIP3    H163433   2.609   0.829   3.395 -0.7627  0.3278 -0.7630
14006TIP3    H263434   2.661   0.967   3.361  0.5459  0.0864  0.1978
14007TIP3   OH263435   3.762   1.404   5.478 -0.2996 -0.6897  0.3035
14007TIP3    H163436   3.718   1.323   5.456 -1.8962  0.1093  0.5129
14007TIP3    H263437   3.758   1.408   5.574  2.3453 -1.7701  0.5040
14008TIP3   OH263438   4.028   6.537   4.432 -0.2894  0.2021 -0.1166
14008TIP3    H163439   4.099   6.485   4.395 -1.4460 -1.5515  0.0960
14008TIP3    H263440   4.071   6.617   4.463  1.0123  0.8820 -3.4393
14009TIP3   OH263441   1.875   4.649   4.743  0.3205  0.5978  0.3521
14009TIP3    H163442   1.843   4.605   4.665  1.4137 -2.2232  1.4196
14009TIP3    H263443   1.949   4.595   4.772 -0.0691  1.5594  3.3244
14010TIP3   OH263444   2.317   7.103   4.652  0.4249 -0.0149 -0.0476
14010TIP3    H163445   2.325   7.105   4.556  1.2426  0.1549  0.0242
14010TIP3    H263446   2.251   7.169   4.672  1.1811  0.8421 -0.3949
14011TIP3   OH263447   6.904   5.539   3.550 -0.1944  0.2329 -0.0735
14011TIP3    H163448   6.839   5.539   3.480 -0.4875 -2.7890  0.1376
14011TIP3    H263449   6.859   5.580   3.624 -1.1982 -0.0186 -0.5328
14012TIP3   OH263450   7.011   1.157   5.093 -0.4719  0.5176 -0.4239
14012TIP3    H163451   7.064   1.078   5.081 -1.0131 -0.3438  2.6439
14012TIP3    H263452   6.921   1.127   5.087 -0.6851  0.9246  0.7336
14013TIP3   OH263453   0.547   5.340   4.678  0.2982 -0.1014  0.4327
14013TIP3    H163454   0.612   5.311   4.742 -0.0825 -0.3783  0.7001
14013TIP3    H263455   0.582   5.312   4.593  0.8043  0.2647  0.5201
14014TIP3   OH263456   0.429   3.428   1.732  0.7873 -0.1566  0.2510
14014TIP3    H163457   0.419   3.430   1.827 -0.1794  0.6020  0.1416
14014TIP3    H263458   0.431   3.521   1.706  0.1931 -0.3578 -0.5454
14015TIP3   OH263459   4.121   1.966   4.303  0.3366 -0.3431  0.4277
14015TIP3    H163460   4.186   2.001   4.243 -2.1210  1.5865 -1.2176
14015TIP3    H263461   4.089   1.886   4.261  1.1635 -0.9355  0.9196
14016TIP3   OH263462   5.117   3.114   4.509  0.6044  0.5181 -0.1807
14016TIP3    H163463   5.145   3.105   4.600 -0.5011 -0.9803  0.0346
14016TIP3    H263464   5.081   3.202   4.502 -0.9367  0.0154  1.2938
14017TIP3   OH263465   1.199   3.862   4.730  0.0256  0.4314  0.1657
14017TIP3    H163466   1.275   3.807   4.751  0.2980  1.0345  0.7795
14017TIP3    H263467   1.233   3.951   4.732 -0.7216  0.7132  0.5382
14018TIP3   OH263468   5.111   0.632   5.300 -0.0211  0.4406  0.0732
14018TIP3    H163469   5.069   0.716   5.285 -0.1610 -0.1071 -2.8596
14018TIP3    H263470   5.053   0.568   5.260 -0.3181 -1.1991  2.9270
14019TIP3   OH263471   1.698   7.032   4.153  0.0998 -0.2527  0.5209
14019TIP3    H163472   1.609   7.020   4.121  0.5595 -1.3861 -0.3633
14019TIP3    H263473   1.688   7.085   4.233 -1.1046  1.8989 -1.0185
14020TIP3   OH263474   6.434   4.305   1.914 -0.0746  0.2260  0.5082
14020TIP3    H163475   6.356   4.255   1.888 -0.4115  0.1449  1.6544
14020TIP3    H263476   6.472   4.333   1.831  0.5285 -2.5164 -0.2091
14021TIP3   OH263477   2.094   1.612   5.069  0.0668 -0.0121  0.1084
14021TIP3    H163478   2.183   1.646   5.061  0.5049 -1.1947 -0.2006
14021TIP3    H263479   2.096   1.555   5.146 -0.8390  1.1871  1.0389
14022TIP3   OH263480   4.148   0.941   0.795 -0.7667 -0.2370 -0.4149
14022TIP3    H163481   4.066   0.936   0.844  0.2935  0.4524  1.4811
14022TIP3    H263482   4.128   1.000   0.722 -1.6454  0.8791  0.6960
14023TIP3   OH263483   4.721   6.614   0.717  0.3058  0.3733  0.0364
14023TIP3    H163484   4.706   6.579   0.629 -0.6135  0.7004  0.0691
14023TIP3    H263485   4.713   6.708   0.707  2.4188  0.5931  0.0333
14024TIP3   OH263486   3.542   1.157   6.151 -0.5876 -0.1679  0.2920
14024TIP3    H163487   3.590   1.107   6.217  0.4765  0.7179  0.2075
14024TIP3    H263488   3.485   1.093   6.109  1.1651 -1.4282 -0.2081
14025TIP3   OH263489   5.473   1.497   2.603  0.0900 -0.0444 -0.2722
14025TIP3    H163490   5.427   1.437   2.661  1.7947  1.1587  2.4358
14025TIP3    H263491   5.563   1.463   2.601  0.3441  0.6639 -1.2125
14026TIP3   OH263492   5.251   0.129  15.109 -0.0366 -0.1361 -0.3027
14026TIP3    H163493   5.177   0.086  15.065 -0.3602 -1.4370  1.4503
14026TIP3    H263494   5.328   0.082  15.078  0.0320  0.8807 -1.7289
14027TIP3   OH263495   2.193   6.050   2.155 -0.0166 -0.5056 -0.0859
14027TIP3    H163496   2.285   6.037   2.134  0.9483 -0.4656  3.7525
14027TIP3    H263497   2.154   5.963   2.148  0.5425 -0.7135 -0.6163
14028TIP3   OH263498   6.124   0.380   5.444 -0.1135  0.8774  0.0065
14028TIP3    H163499   6.124   0.452   5.508 -0.6765  0.3727  0.5768
14028TIP3    H263500   6.200   0.327   5.468 -1.0153  0.0214  1.0226
14029TIP3   OH263501   4.631   0.464   4.526 -0.1365 -0.3545  0.2607
14029TIP3    H163502   4.663   0.430   4.443  1.6280  1.1155  0.3184
14029TIP3    H263503   4.689   0.426   4.592  0.8066  1.4311  0.4721
14030TIP3   OH263504   6.531   2.238   5.016 -0.1206  0.1318  0.0860
14030TIP3    H163505   6.499   2.148   5.012  0.7920 -0.2130  0.4376
14030TIP3    H263506   6.551   2.252   5.108 -1.2033  1.0393  0.1981
14031TIP3   OH263507   2.411   1.328   2.350  0.1589 -0.1705  0.3190
14031TIP3    H163508   2.460   1.279   2.416  2.2418  0.8981 -0.3898
14031TIP3    H263509   2.473   1.340   2.278 -1.1377  1.2537 -0.5849
14032TIP3   OH263510   4.117   5.468   0.931  0.0038  0.1620 -0.0821
14032TIP3    H163511   4.134   5.391   0.985 -0.7673  1.1241  1.5835
14032TIP3    H263512   4.194   5.523   0.943  0.4613 -0.2496 -1.1053
14033TIP3   OH263513   3.513   1.048   2.382  0.4334 -0.5849 -0.0102
14033TIP3    H163514   3.427   1.056   2.425  1.1429  0.7321  1.1937
14033TIP3    H263515   3.492   1.048   2.289 -0.8067  0.9453  0.2328
14034TIP3   OH263516   5.262   6.759   2.583 -0.0401  0.3138 -0.4261
14034TIP3    H163517   5.286   6.808   2.504  2.8509 -1.8598 -0.9834
14034TIP3    H263518   5.217   6.681   2.549  0.2799 -0.1200  0.1531
14035TIP3   OH263519   4.680   4.291   4.708 -0.0838 -0.3179 -0.4739
14035TIP3    H163520   4.701   4.238   4.632  1.0177 -0.3344 -0.1654
14035TIP3    H263521   4.618   4.238   4.758  2.3723 -2.1262  0.7471
14036TIP3   OH263522   2.076   5.409   4.942 -0.7266  0.2047  0.4999
14036TIP3    H163523   2.053   5.346   4.873  0.0576 -0.1077  0.5161
14036TIP3    H263524   2.134   5.471   4.899 -0.7281  0.3626  0.7248
14037TIP3   OH263525   2.459   1.706   3.113 -0.3159 -0.0307  0.3684
14037TIP3    H163526   2.542   1.705   3.065  1.0095  1.0223  2.5707
14037TIP3    H263527   2.432   1.614   3.115  1.1450 -0.4783  0.2055
14038TIP3   OH263528   4.218   3.870   4.003  0.5043 -0.4321  0.0487
14038TIP3    H163529   4.161   3.848   4.076  0.3992 -1.0665 -0.2238
14038TIP3    H263530   4.279   3.796   3.997  0.1722 -0.6471 -0.8405
14039TIP3   OH263531   5.205   0.716   2.396 -0.0419 -0.0750 -0.1343
14039TIP3    H163532   5.251   0.731   2.479  0.1265 -0.1021 -0.2208
14039TIP3    H263533   5.144   0.644   2.414 -0.9646  0.8193  0.3257
14040TIP3   OH263534   4.245   2.015   3.337  0.6494 -0.5900  0.2380
14040TIP3    H163535   4.158   2.045   3.361  0.0849 -0.4566 -1.8876
14040TIP3    H263536   4.273   1.960   3.410 -2.8020 -3.7514 -0.6716
14041TIP3   OH263537   5.601   1.940  15.612  0.5208 -0.0155 -0.1092
14041TIP3    H163538   5.618   1.865  15.670  1.4120  0.7870  0.6844
14041TIP3    H263539   5.676   1.941  15.552  0.4503  0.1706 -0.1946
14042TIP3   OH263540   4.945   0.447   3.887 -0.5784  0.2651 -0.1054
14042TIP3    H163541   4.989   0.487   3.811 -1.4995  0.1601 -0.7097
14042TIP3    H263542   4.939   0.518   3.951  0.7173  0.2047  0.0993
14043TIP3   OH263543   7.258   0.574   3.690 -0.2244 -0.3007 -0.7906
14043TIP3    H163544   7.339   0.526   3.673  0.4451  1.2484 -2.0769
14043TIP3    H263545   7.189   0.516   3.660  0.3899 -1.5661  0.1521
14044TIP3   OH263546   3.944   7.021   2.216  0.2460 -0.3066 -0.1728
14044TIP3    H163547   3.883   7.055   2.282 -0.3307 -0.1260 -0.7913
14044TIP3    H263548   3.892   6.960   2.164  0.9895 -1.2940  0.2341
14045TIP3   OH263549   6.929   0.256   4.978 -0.5155 -0.4868 -0.5768
14045TIP3    H163550   6.877   0.329   4.945 -1.5588 -0.1139  1.8082
14045TIP3    H263551   6.923   0.263   5.073  1.9856 -1.8258 -0.2810
14046TIP3   OH263552   7.110   5.980   3.661 -0.1692 -0.4451 -0.3146
14046TIP3    H163553   7.084   6.049   3.723  0.9039 -0.1857 -0.1492
14046TIP3    H263554   7.148   5.911   3.716 -0.3767 -0.7685 -0.5705
14047TIP3   OH263555   6.315   1.233  15.832  0.0197  0.1196  0.3181
14047TIP3    H163556   6.299   1.284  15.752 -1.3054  0.6533  0.9154
14047TIP3    H263557   6.352   1.151  15.800 -0.8053  0.1896 -0.8768
14048TIP3   OH263558   4.914   2.182   3.205 -0.0438  0.0591  0.1726
14048TIP3    H163559   4.975   2.256   3.207 -1.0929  0.9152  1.0159
14048TIP3    H263560   4.833   2.219   3.169  0.4514 -1.4791 -2.6533
14049TIP3   OH263561   6.100   2.149  15.732 -0.1784 -0.1441 -0.2036
14049TIP3    H163562   6.175   2.121  15.680  0.9509  4.8576 -1.5522
14049TIP3    H263563   6.025   2.139  15.673  0.6717  2.5430 -1.8599
14050TIP3   OH263564   6.123   1.937   2.383 -0.0383 -0.3377 -0.5639
14050TIP3    H163565   6.028   1.945   2.388 -0.0503  0.5884 -1.9004
14050TIP3    H263566   6.140   1.844   2.400 -1.3608 -0.9283 -2.2451
14051TIP3   OH263567   4.991   1.989  15.366  0.3380  0.4033  0.1584
14051TIP3    H163568   4.950   1.903  15.365 -2.7344  1.7720  0.6020
14051TIP3    H263569   4.936   2.042  15.308 -0.3402  3.0784  3.0802
14052TIP3   OH263570   4.320   3.080   4.856 -0.5714 -0.5024 -0.0944
14052TIP3    H163571   4.412   3.069   4.881 -0.4373 -0.5788 -0.6156
14052TIP3    H263572   4.270   3.044   4.930 -0.1696 -1.9501 -0.5106
14053TIP3   OH263573   5.032   3.929   2.921  0.4443 -0.2034  0.3970
14053TIP3    H163574   4.984   3.851   2.946  0.8264 -0.4607  0.3309
14053TIP3    H263575   5.030   3.985   2.999  0.5834 -0.4800  0.5977
14054TIP3   OH263576   6.459   7.218   1.080  0.5017 -0.1860 -0.0428
14054TIP3    H163577   6.459   7.220   1.176 -2.8591 -1.5508  0.0599
14054TIP3    H263578   6.439   7.127   1.058  1.0834  0.1580 -2.0430
14055TIP3   OH263579   3.339   6.347   1.359  0.0070 -0.3925 -0.2624
14055TIP3    H163580   3.399   6.323   1.429 -0.3431 -1.5293 -0.3447
14055TIP3    H263581   3.252   6.328   1.394 -0.1503 -1.3176 -1.1347
14056TIP3   OH263582   1.420   2.942   1.632  0.2890  0.0766 -0.6831
14056TIP3    H163583   1.482   2.895   1.576  0.3894 -1.3121  0.5513
14056TIP3    H263584   1.441   3.034   1.618  1.5310 -0.3098 -1.5425
14057TIP3   OH263585   6.163   2.586   1.900  0.1196  0.7714  0.4402
14057TIP3    H163586   6.169   2.598   1.995 -0.2422  1.1320  0.4210
14057TIP3    H263587   6.069   2.573   1.884  0.2459  0.1566  0.1956
14058TIP3   OH263588   6.464   1.133   0.801 -0.0627  0.4772 -0.1122
14058TIP3    H163589   6.516   1.094   0.871  0.0713  1.0204  0.0957
14058TIP3    H263590   6.518   1.123   0.723  0.7055  1.7497  0.2482
14059TIP3   OH263591   5.469   7.053   3.007  0.6671 -0.3336 -0.8420
14059TIP3    H163592   5.530   7.027   3.076 -1.7650 -1.9307  0.8013
14059TIP3    H263593   5.447   6.971   2.962 -0.4816  0.1638 -1.2176
14060TIP3   OH263594   4.061   2.475   3.368  0.4205  0.0095 -0.3991
14060TIP3    H163595   4.152   2.446   3.382  0.0124 -1.7899 -1.2750
14060TIP3    H263596   4.066   2.531   3.290  0.6707 -0.7328 -0.9254
14061TIP3   OH263597   5.306   5.222   3.996  0.1873  0.4472  0.1485
14061TIP3    H163598   5.263   5.153   4.045 -0.7462  0.5685 -0.4930
14061TIP3    H263599   5.398   5.195   3.992 -0.3046 -1.1608 -0.7677
14062TIP3   OH263600   0.139   1.653   0.399  0.1894  1.3155  0.0283
14062TIP3    H163601   0.121   1.743   0.372  0.0661  1.3529  0.2309
14062TIP3    H263602   0.108   1.649   0.490 -2.4965  0.2842 -0.8718
14063TIP3   OH263603   6.299   1.755   1.718  0.5348 -0.0660 -0.0243
14063TIP3    H163604   6.367   1.726   1.658 -0.2440  0.9885 -1.4282
14063TIP3    H263605   6.273   1.675   1.765  1.5853 -0.7658 -0.6153
14064TIP3   OH263606   5.709   5.241   0.515  0.4206 -0.1978  0.0418
14064TIP3    H163607   5.643   5.290   0.565  0.0771 -1.0874  0.4812
14064TIP3    H263608   5.793   5.277   0.544  0.1084  1.1115 -0.7059
14065TIP3   OH263609   5.001   1.298   3.687  0.2858  0.0262  0.1985
14065TIP3    H163610   4.994   1.283   3.781  1.1471 -2.9648 -0.1794
14065TIP3    H263611   5.019   1.392   3.679 -2.0930  0.7735  2.8741
14066TIP3   OH263612   6.236   1.695   2.320 -0.1779  0.1007  0.0404
14066TIP3    H163613   6.310   1.717   2.263  0.7014 -0.4724  0.9583
14066TIP3    H263614   6.171   1.655   2.261  1.0138 -1.1483 -0.4378
14067TIP3   OH263615   6.995   2.165   1.097  0.2321  0.3428  0.2430
14067TIP3    H163616   6.971   2.121   1.015  1.0928 -0.3871  0.3758
14067TIP3    H263617   7.031   2.249   1.070  0.5636  0.0824 -0.1390
14068TIP3   OH263618   6.394   0.432   3.891 -0.2834  0.3447 -0.8411
14068TIP3    H163619   6.368   0.386   3.812 -3.3880 -0.0784  0.3407
14068TIP3    H263620   6.428   0.517   3.860 -0.4611 -0.2264 -2.6394
14069TIP3   OH263621   2.973   4.098   2.591  0.1618 -0.1150 -0.3178
14069TIP3    H163622   3.010   4.142   2.515  0.0321 -0.2704 -0.4705
14069TIP3    H263623   2.924   4.024   2.555 -0.4646  0.2022 -0.1345
14070TIP3   OH263624   0.942   2.830  15.281 -0.3584 -0.7436  0.2726
14070TIP3    H163625   0.979   2.772  15.214 -1.2561 -0.9006 -0.0887
14070TIP3    H263626   0.993   2.811  15.359 -1.6465 -3.1689  0.5799
14071TIP3   OH263627   3.414   0.605   3.462 -0.2819 -0.3182  0.6950
14071TIP3    H163628   3.459   0.529   3.499  1.7836  0.6056  0.1549
14071TIP3    H263629   3.474   0.638   3.394 -2.7859 -0.3904 -1.6537
14072TIP3   OH263630   4.815   3.186   5.110  0.0473  0.0589 -0.3446
14072TIP3    H163631   4.721   3.202   5.101  0.3963  1.8531 -1.0756
14072TIP3    H263632   4.852   3.213   5.027  1.2989 -0.0214  0.1737
14073TIP3   OH263633   1.291   1.630   5.029  0.0538  0.0209 -0.2919
14073TIP3    H163634   1.351   1.556   5.023 -0.4635 -0.3559 -0.8765
14073TIP3    H263635   1.341   1.697   5.076 -0.0725 -1.2792  1.7674
14074TIP3   OH263636   0.126   3.150   3.628 -0.3488  0.0333  0.0950
14074TIP3    H163637   0.188   3.130   3.698 -0.2630 -0.0988 -0.0171
14074TIP3    H263638   0.179   3.150   3.549 -0.7843 -1.7542 -0.2135
14075TIP3   OH263639   2.774   0.177   3.830  0.0112 -0.3853 -0.3288
14075TIP3    H163640   2.869   0.184   3.842  0.1074 -2.8989  0.8491
14075TIP3    H263641   2.765   0.119   3.754 -0.5505 -0.9890  0.1916
14076TIP3   OH263642   1.291   5.965   2.873 -0.2130 -0.1230 -0.1695
14076TIP3    H163643   1.361   5.900   2.867 -0.1359 -0.0945  0.4481
14076TIP3    H263644   1.245   5.958   2.789  0.7643  0.1319 -0.7353
14077TIP3   OH263645   6.334   0.259   4.396 -0.2110 -0.3688  0.7371
14077TIP3    H163646   6.365   0.335   4.444  1.8663  0.6199 -2.0444
14077TIP3    H263647   6.319   0.291   4.307  0.7346 -3.1902 -0.4985
14078TIP3   OH263648   5.525   1.747   2.334 -0.4275 -0.2539 -0.2607
14078TIP3    H163649   5.448   1.770   2.385 -0.6642  2.0022 -1.5654
14078TIP3    H263650   5.598   1.754   2.396 -1.0040 -0.0845  0.4016
14079TIP3   OH263651   4.664   4.450   1.742  0.6991 -0.4715  0.4010
14079TIP3    H163652   4.574   4.417   1.746  0.0811  1.2572  1.4485
14079TIP3    H263653   4.716   4.381   1.782 -0.3439 -0.9528  0.9675
14080TIP3   OH263654   6.547   7.156   2.604  0.2095  0.3842 -0.4345
14080TIP3    H163655   6.580   7.127   2.519 -2.1997 -2.1690 -0.5622
14080TIP3    H263656   6.479   7.220   2.582 -0.0570  0.1013 -0.4528
14081TIP3   OH263657   6.809   6.081   2.426 -0.0637  0.0587 -0.2593
14081TIP3    H163658   6.802   6.085   2.521 -0.6222  1.3489 -0.3348
14081TIP3    H263659   6.892   6.125   2.406  1.6632 -3.0289 -0.2036
14082TIP3   OH263660   6.281   0.732   5.478 -0.2744  1.2417 -0.0156
14082TIP3    H163661   6.187   0.720   5.466  0.1730 -0.4246 -1.9339
14082TIP3    H263662   6.306   0.667   5.544 -0.2787  0.9745 -0.2788
14083TIP3   OH263663   1.733   0.557   4.859 -0.2072 -0.2737 -0.0927
14083TIP3    H163664   1.775   0.638   4.888 -0.3921 -0.1746 -0.1081
14083TIP3    H263665   1.781   0.488   4.906  0.4692 -0.2066 -0.6860
14084TIP3   OH263666   7.058   3.568   0.519 -0.0195  0.2532  0.3543
14084TIP3    H163667   7.137   3.617   0.542  2.5813 -3.6470  0.2165
14084TIP3    H263668   7.004   3.570   0.598  1.8195  0.0391  1.6354
14085TIP3   OH263669   3.153   0.204   2.531  0.3961 -1.0140  0.2539
14085TIP3    H163670   3.152   0.277   2.469 -1.8295  1.6091  3.2288
14085TIP3    H263671   3.085   0.145   2.499 -2.0179  1.2049  1.0796
14086TIP3   OH263672   4.540   1.952  15.406 -0.1146 -0.3438  0.1472
14086TIP3    H163673   4.538   1.868  15.359  0.5080  1.1372 -2.6602
14086TIP3    H263674   4.497   2.013  15.346 -1.2670  1.1866  2.5132
14087TIP3   OH263675   5.867   3.064  14.932 -0.5015 -0.4974 -0.4856
14087TIP3    H163676   5.948   3.013  14.925 -0.1730 -0.1499  0.6879
14087TIP3    H263677   5.890   3.139  14.986 -2.2078 -1.7076  2.1010
14088TIP3   OH263678   6.384   4.003   2.893  0.3875 -0.3470 -0.3405
14088TIP3    H163679   6.440   3.968   2.962  0.8833  0.9640 -0.0581
14088TIP3    H263680   6.301   3.956   2.903 -0.1825  1.1082  2.3517
14089TIP3   OH263681   3.750   1.994   4.710 -0.3888  0.0737 -0.2291
14089TIP3    H163682   3.685   1.968   4.776 -0.7047 -0.8118 -0.8817
14089TIP3    H263683   3.751   1.922   4.647 -0.1280  0.9444 -1.2359
14090TIP3   OH263684   0.194   1.080   0.566 -0.0876 -0.1333  0.1656
14090TIP3    H163685   0.172   1.111   0.478  0.1427 -0.0749  0.1278
14090TIP3    H263686   0.290   1.083   0.569 -0.1537  1.7830  1.1137
14091TIP3   OH263687   5.241   0.152   4.515  0.4565 -0.3127 -0.5749
14091TIP3    H163688   5.269   0.203   4.439  0.8958  1.1359  0.5336
14091TIP3    H263689   5.148   0.174   4.525  1.1727  2.0777  1.2457
14092TIP3   OH263690   6.317   6.574   1.359 -0.2343  0.1448  0.0966
14092TIP3    H163691   6.379   6.646   1.370  0.5490 -0.4666 -0.2424
14092TIP3    H263692   6.236   6.605   1.401  0.4582  0.7384  1.0106
14093TIP3   OH263693   4.119   7.012   5.130 -0.2113  0.2492 -0.0097
14093TIP3    H163694   4.081   7.066   5.061  0.5402  0.5506 -0.1826
14093TIP3    H263695   4.109   7.064   5.210  0.4953  0.6292 -0.1730
14094TIP3   OH263696   1.071   0.539   1.274 -0.4048 -0.2494  0.1404
14094TIP3    H163697   1.084   0.610   1.212 -0.8070 -0.4668 -0.1912
14094TIP3    H263698   1.012   0.574   1.340  1.2155  0.4880  1.2326
14095TIP3   OH263699   6.282   2.417   5.035  0.1993 -0.0208  0.0872
14095TIP3    H163700   6.308   2.456   5.118  1.7560  0.7182 -0.7330
14095TIP3    H263701   6.314   2.327   5.039 -1.2394 -0.5157  0.9718
14096TIP3   OH263702   6.833   0.926   2.534  0.1765  0.2114 -0.2910
14096TIP3    H163703   6.787   1.010   2.542 -1.3503 -0.4649 -1.6635
14096TIP3    H263704   6.766   0.865   2.504  1.5056 -1.2948 -0.2485
14097TIP3   OH263705   6.014   2.086   1.236  0.4607 -0.2197  0.0442
14097TIP3    H163706   6.007   2.071   1.142  2.2341 -0.0642 -0.1255
14097TIP3    H263707   6.040   2.178   1.244 -2.2893  0.5442  0.7983
14098TIP3   OH263708   5.242   1.410   4.205 -0.0428 -0.3853 -0.1294
14098TIP3    H163709   5.152   1.381   4.191  0.0118  0.4071 -2.2348
14098TIP3    H263710   5.247   1.426   4.300 -2.1403 -0.3229  0.0047
14099TIP3   OH263711   5.618   1.489   0.689  0.3153 -1.0394 -0.1624
14099TIP3    H163712   5.692   1.429   0.683  0.7513 -0.5670  0.4195
14099TIP3    H263713   5.616   1.534   0.604  2.6327  1.1935  0.8835
14100TIP3   OH263714   6.282   4.660   2.120 -0.1657  0.2792  0.3699
14100TIP3    H163715   6.197   4.644   2.079  0.3918 -0.4431 -0.5084
14100TIP3    H263716   6.292   4.589   2.183  0.1492 -0.1003 -0.1057
14101TIP3   OH263717   0.469   1.940   5.213  0.8038  0.1887 -0.1925
14101TIP3    H163718   0.497   1.855   5.248  0.5623  0.4770  0.7110
14101TIP3    H263719   0.470   1.999   5.288 -1.5309  0.3690 -0.2588
14102TIP3   OH263720   3.934   4.440   4.668 -0.0601  0.0522  0.3605
14102TIP3    H163721   3.861   4.446   4.729 -0.7385  0.3670 -0.4746
14102TIP3    H263722   3.988   4.369   4.702 -0.7872 -0.2299  0.9396
14103TIP3   OH263723   5.473   0.757   5.465 -0.1051 -0.2283  0.7147
14103TIP3    H163724   5.405   0.723   5.407  0.1364 -0.4863  0.5857
14103TIP3    H263725   5.521   0.680   5.493 -1.2359 -0.2941  2.5492
14104TIP3   OH263726   5.967   3.972   4.348 -0.3755 -0.2660  0.3815
14104TIP3    H163727   6.056   4.005   4.334  0.1971 -0.8161  2.5953
14104TIP3    H263728   5.942   3.934   4.263  1.9861 -1.2255  0.0777
14105TIP3   OH263729   2.746   1.306   2.763 -0.0917  0.0933  0.1889
14105TIP3    H163730   2.814   1.278   2.702 -2.2235  0.2236 -2.3657
14105TIP3    H263731   2.774   1.393   2.793  2.4140 -1.1935  1.6932
14106TIP3   OH263732   6.053   0.573   0.249  0.1048 -0.1538  0.2180
14106TIP3    H163733   6.105   0.647   0.280 -1.3504  0.9551  0.0758
14106TIP3    H263734   6.116   0.514   0.209  1.1584  1.4948 -0.5846
14107TIP3   OH263735   4.377   2.060   1.489  0.0550  0.0066  1.1252
14107TIP3    H163736   4.436   2.069   1.563 -0.4107 -1.1420  1.6446
14107TIP3    H263737   4.400   1.976   1.449 -0.7811 -0.1432  0.9457
14108TIP3   OH263738   6.748   3.234   2.624  0.3224 -0.7230  0.1031
14108TIP3    H163739   6.674   3.284   2.589  0.5942  0.2116  0.8368
14108TIP3    H263740   6.709   3.178   2.692 -0.0327 -1.7557 -0.9365
14109TIP3   OH263741   5.849   0.503   2.045 -0.6841  0.3557 -0.3257
14109TIP3    H163742   5.779   0.563   2.021 -0.2978  0.3197 -1.5467
14109TIP3    H263743   5.920   0.524   1.985  0.5867  0.8196  1.3131
14110TIP3   OH263744   2.328   1.867   1.440 -0.1254  0.2942 -0.1208
14110TIP3    H163745   2.344   1.890   1.531  0.5006  1.8306 -0.6001
14110TIP3    H263746   2.242   1.824   1.440 -0.0290  0.0882  1.2054
14111TIP3   OH263747   2.907   7.142   4.042 -0.1441 -0.3395  0.0777
14111TIP3    H163748   2.881   7.191   3.965 -0.9739  0.9890  1.1739
14111TIP3    H263749   3.002   7.130   4.032 -0.1917  0.1485 -0.9660
14112TIP3   OH263750   5.435   0.007  15.368 -0.3137 -0.0907 -0.3945
14112TIP3    H163751   5.410   0.099  15.362 -2.2495 -0.3752  2.1116
14112TIP3    H263752   5.475  -0.001  15.455 -0.7184 -1.7260 -0.3410
14113TIP3   OH263753   5.075   1.339   1.998 -0.2556 -0.0603  0.1573
14113TIP3    H163754   5.145   1.371   1.941  0.2087  1.4730  1.5420
14113TIP3    H263755   5.111   1.347   2.086 -1.9576  0.1898  0.8416
14114TIP3   OH263756   6.213   0.251   3.071 -0.2765 -0.3118 -0.1677
14114TIP3    H163757   6.205   0.222   2.981 -0.4786  2.0739 -0.9632
14114TIP3    H263758   6.128   0.290   3.091  0.5108  1.2186  0.2696
14115TIP3   OH263759   0.944   2.911   1.492 -0.1712  0.4077 -0.3949
14115TIP3    H163760   0.864   2.876   1.453  0.5702 -0.8530 -0.8157
14115TIP3    H263761   0.974   2.978   1.430 -1.6709  1.9426  0.4816
14116TIP3   OH263762   5.678   1.284  15.712  0.0589 -0.0195  0.0856
14116TIP3    H163763   5.697   1.292  15.619 -0.5614  2.9541  0.1829
14116TIP3    H263764   5.582   1.284  15.717  0.0726 -1.9864  0.5990
14117TIP3   OH263765   1.588   0.896   0.437 -0.6786  0.1206  0.5432
14117TIP3    H163766   1.583   0.807   0.473  2.5076 -0.7941 -1.1127
14117TIP3    H263767   1.501   0.911   0.399 -1.3081 -2.2203  0.9774
14118TIP3   OH263768   6.692   2.697   2.378 -0.2244 -0.5286  0.1965
14118TIP3    H163769   6.767   2.710   2.320 -0.3006  0.0881  0.2275
14118TIP3    H263770   6.620   2.741   2.333 -0.2107  0.2342  0.9079
14119TIP3   OH263771   6.057   6.721   2.669 -0.1624  0.0666 -0.2053
14119TIP3    H163772   6.127   6.675   2.715  2.6268  1.9329 -2.4379
14119TIP3    H263773   6.012   6.771   2.736  2.2210  0.7660  0.9115
14120TIP3   OH263774   4.792   2.000   5.113  0.2352  0.1170 -0.8171
14120TIP3    H163775   4.755   1.940   5.177  1.9395  0.5237  0.6018
14120TIP3    H263776   4.873   1.957   5.084  1.1531  1.4209 -0.2388
14121TIP3   OH263777   4.948   1.916   0.362  0.6633 -0.0354  0.3258
14121TIP3    H163778   4.959   1.836   0.311 -1.1523  1.0260 -1.8308
14121TIP3    H263779   5.005   1.980   0.318  0.7598  0.3168  0.9597
14122TIP3   OH263780   6.092   2.471   3.643 -0.3641 -0.0757  0.3102
14122TIP3    H163781   6.103   2.439   3.553  0.5768  1.3111 -0.0808
14122TIP3    H263782   5.997   2.474   3.656 -0.4956 -0.6662 -0.4938
14123TIP3   OH263783   7.250   2.036   2.236 -0.0812 -0.0669 -0.1222
14123TIP3    H163784   7.205   1.989   2.307 -0.6182  0.1375 -0.3211
14123TIP3    H263785   7.343   2.030   2.257 -0.2414 -0.0456  0.5717
14124TIP3   OH263786   4.685   0.313  15.786 -0.0021 -0.1255  0.1930
14124TIP3    H163787   4.663   0.395  15.830 -0.6939  0.6750 -1.5891
14124TIP3    H263788   4.702   0.338  15.695  1.2248 -1.7565 -0.0566
14125TIP3   OH263789   2.016   2.352   3.838  0.3853 -0.0129 -0.0536
14125TIP3    H163790   2.021   2.258   3.854  4.1454  0.1139 -0.0530
14125TIP3    H263791   2.005   2.391   3.925  1.7973 -0.3193  0.2747
14126TIP3   OH263792   5.331   1.122   1.304  0.0091  0.4397  0.3097
14126TIP3    H163793   5.274   1.190   1.340 -1.8597 -0.4998 -0.8498
14126TIP3    H263794   5.312   1.045   1.357  0.1524  0.0997 -0.1351
14127TIP3   OH263795   3.616   7.224   2.912 -0.0967 -0.0517 -0.3709
14127TIP3    H163796   3.570   7.233   2.828  0.5476  1.9952 -0.5388
14127TIP3    H263797   3.708   7.219   2.888  0.0200 -0.4631  0.1622
14128TIP3   OH263798   7.162   1.904  15.932  0.4173  0.0590 -0.1907
14128TIP3    H163799   7.249   1.868  15.917  0.1525 -0.4247 -0.5735
14128TIP3    H263800   7.118   1.900  15.847 -0.0360  0.1458  0.0319
14129TIP3   OH263801   6.493   3.917   4.103 -0.7791 -0.0529 -0.8554
14129TIP3    H163802   6.522   4.009   4.105 -0.5878 -0.1394  0.9362
14129TIP3    H263803   6.511   3.889   4.013 -1.4979  1.8700 -1.6271
14130TIP3   OH263804   3.230   6.114   4.724 -0.4955  0.5445 -0.5707
14130TIP3    H163805   3.172   6.105   4.799  0.7969  1.5299  0.5846
14130TIP3    H263806   3.244   6.025   4.693  0.4521 -0.0752  1.5432
14131TIP3   OH263807   0.661   7.077   3.192  0.7985  0.0637 -0.4101
14131TIP3    H163808   0.701   7.158   3.160  0.0467  0.6426  0.0889
14131TIP3    H263809   0.571   7.081   3.162  0.4711 -0.0672  0.5236
14132TIP3   OH263810   0.562   0.589   2.331  0.3994 -0.1613 -0.1501
14132TIP3    H163811   0.558   0.558   2.422 -0.2559  0.2761 -0.0270
14132TIP3    H263812   0.515   0.523   2.281  1.0579 -0.5801 -0.2237
14133TIP3   OH263813   6.574   3.552   0.760 -0.1770  0.0020 -0.1098
14133TIP3    H163814   6.651   3.507   0.794  0.3643  1.6253  0.8559
14133TIP3    H263815   6.516   3.562   0.836 -0.7909 -0.0785 -0.5630
14134TIP3   OH263816   4.417   1.222   2.301  0.0857  0.7649  0.0722
14134TIP3    H163817   4.502   1.243   2.340  0.7032 -0.4526 -0.5624
14134TIP3    H263818   4.395   1.298   2.248 -0.0921  1.8426  1.6863
14135TIP3   OH263819   0.892   1.712  15.196  0.2115  0.0845 -0.5565
14135TIP3    H163820   0.893   1.783  15.131  1.0569 -1.0384 -1.7767
14135TIP3    H263821   0.808   1.669  15.182  0.3814 -0.1409 -0.8953
14136TIP3   OH263822   3.241   1.423   1.390 -0.4724  0.4461  0.3166
14136TIP3    H163823   3.336   1.419   1.389 -0.3353  1.7410  2.8829
14136TIP3    H263824   3.212   1.342   1.348  1.7335  1.4640 -3.3075
14137TIP3   OH263825   6.971   4.600  15.969  0.9767 -0.4120  0.2577
14137TIP3    H163826   7.030   4.628  15.899 -0.2354  0.4299 -0.4643
14137TIP3    H263827   6.884   4.603  15.928  0.1499  0.9541  2.0396
14138TIP3   OH263828   4.670   0.306   2.731  0.1839  0.7025  0.0871
14138TIP3    H163829   4.642   0.385   2.777 -0.6212  0.6268 -0.2522
14138TIP3    H263830   4.625   0.234   2.777  2.7192  0.1950  1.8439
14139TIP3   OH263831   4.421   5.857   1.493  0.5035 -0.5498  0.0238
14139TIP3    H163832   4.494   5.902   1.537  0.4009 -1.5290  1.2233
14139TIP3    H263833   4.429   5.766   1.521 -0.6784 -0.8232 -0.5238
14140TIP3   OH263834   6.156   6.054   2.341 -0.3411 -0.2317 -0.2286
14140TIP3    H163835   6.240   6.023   2.377 -0.2172  0.1165 -0.2219
14140TIP3    H263836   6.168   6.050   2.246 -0.6729 -1.1626 -0.2437
14141TIP3   OH263837   2.120   1.380   3.401  0.2297  0.2959  0.2784
14141TIP3    H163838   2.128   1.469   3.434  0.2395 -0.3245  2.0090
14141TIP3    H263839   2.193   1.333   3.442  0.1114 -0.5460 -0.4732
14142TIP3   OH263840   6.030   2.833   2.665 -0.2752  0.3393  0.0764
14142TIP3    H163841   5.941   2.802   2.647  0.0605  0.5786 -2.1711
14142TIP3    H263842   6.055   2.788   2.745 -1.7360 -1.1610 -0.2819
14143TIP3   OH263843   5.164   2.452   2.898 -0.7209  0.7098 -0.1813
14143TIP3    H163844   5.232   2.405   2.946 -0.7680  1.0993  0.2600
14143TIP3    H263845   5.134   2.389   2.833 -1.4039 -0.1791  0.9840
14144TIP3   OH263846   4.077   1.273   3.588  0.1088  0.0891  0.2714
14144TIP3    H163847   4.052   1.307   3.673  0.1488  0.8685 -0.0219
14144TIP3    H263848   4.000   1.225   3.557  0.2275 -0.5227  0.9021
14145TIP3   OH263849   6.191   0.517   5.668 -0.1945 -0.2796  0.1864
14145TIP3    H163850   6.143   0.444   5.707 -0.5083 -0.4978 -0.6080
14145TIP3    H263851   6.241   0.554   5.741  0.7963 -1.9329  0.3752
14146TIP3   OH263852   6.891   4.723   0.263  0.2792 -0.2060 -0.2499
14146TIP3    H163853   6.897   4.802   0.210  0.9541 -0.0577  0.0386
14146TIP3    H263854   6.806   4.685   0.240 -0.7012  1.3578  0.6613
14147TIP3   OH263855   2.320   6.619   2.051  0.8577  0.7731 -0.6502
14147TIP3    H163856   2.303   6.546   1.990 -0.5804  0.8976 -0.4029
14147TIP3    H263857   2.327   6.577   2.137 -1.1110  1.0465 -0.3469
14148TIP3   OH263858   0.191   3.281   1.367  0.8474 -0.0387 -0.3449
14148TIP3    H163859   0.167   3.230   1.445 -2.0265  0.6546 -0.7083
14148TIP3    H263860   0.280   3.309   1.384  1.6247 -3.0922  0.9694
14149TIP3   OH263861   5.446   1.198   1.986 -0.8285  0.0546  0.9461
14149TIP3    H163862   5.451   1.116   1.937 -1.4857  0.8723 -0.5017
14149TIP3    H263863   5.377   1.183   2.051 -2.6488  0.2476 -0.8815
14150TIP3   OH263864   5.964   7.093   2.783 -0.6266 -0.1977  0.3390
14150TIP3    H163865   6.050   7.120   2.749 -1.1582  1.6353  0.3953
14150TIP3    H263866   5.965   7.121   2.875 -1.1294 -0.5553  0.4559
14151TIP3   OH263867   5.705   4.452   0.483  0.3190  0.5254  0.1008
14151TIP3    H163868   5.708   4.400   0.564  2.5963 -0.2479 -0.4448
14151TIP3    H263869   5.707   4.387   0.413 -2.9953  1.1231 -0.6547
14152TIP3   OH263870   5.865   2.744  15.504  0.3931 -0.0667  0.9458
14152TIP3    H163871   5.790   2.722  15.559 -1.3768  2.6534 -0.2821
14152TIP3    H263872   5.841   2.715  15.417  0.4254  1.4850  0.4061
14153TIP3   OH263873   1.101   5.541   3.652 -0.4615 -0.6734  0.3192
14153TIP3    H163874   1.110   5.582   3.566  1.7953 -1.1741  0.2762
14153TIP3    H263875   1.162   5.467   3.650 -0.2053 -0.5521  2.4245
14154TIP3   OH263876   6.583   1.798   0.522 -0.0570  0.4091  0.2270
14154TIP3    H163877   6.569   1.888   0.491 -0.7243 -0.0423 -0.7957
14154TIP3    H263878   6.677   1.794   0.542  0.0105  1.2729  0.1008
14155TIP3   OH263879   1.014   6.510   1.495  0.3764 -0.2799  0.5478
14155TIP3    H163880   1.055   6.475   1.574 -0.1377  1.8109  1.7953
14155TIP3    H263881   0.954   6.442   1.466  1.8163 -1.7552  0.9739
14156TIP3   OH263882   0.241   1.368   4.293  0.5285 -0.1385 -0.0780
14156TIP3    H163883   0.165   1.362   4.351  0.7910  0.4342  0.3389
14156TIP3    H263884   0.207   1.351   4.206 -0.1208  0.3314  0.0829
14157TIP3   OH263885   5.827   1.697   2.700 -0.4341 -0.9625 -0.4036
14157TIP3    H163886   5.804   1.790   2.701 -1.6393 -1.2227 -2.0549
14157TIP3    H263887   5.788   1.662   2.781 -2.1830 -0.5188 -1.0199
14158TIP3   OH263888   6.318   0.721   4.503  0.3664  0.5524  0.2594
14158TIP3    H163889   6.240   0.689   4.548  0.2135 -0.1742 -0.5181
14158TIP3    H263890   6.376   0.750   4.574 -0.2340  0.2488  0.8828
14159TIP3   OH263891   4.809   0.233   3.742  0.4374 -0.3581 -0.2121
14159TIP3    H163892   4.731   0.207   3.791  0.6415 -0.1558  0.2189
14159TIP3    H263893   4.858   0.289   3.802  0.9638 -0.5621 -0.4478
14160TIP3   OH263894   5.139   6.902   4.164 -0.4111  0.3532 -0.2947
14160TIP3    H163895   5.174   6.814   4.150 -2.0880 -0.5245  0.7713
14160TIP3    H263896   5.063   6.906   4.105 -1.7599  0.1699  1.3747
14161TIP3   OH263897   4.198   2.286   1.528  0.3500  0.2584  0.2428
14161TIP3    H163898   4.184   2.355   1.463  0.7085 -1.4200 -1.6748
14161TIP3    H263899   4.272   2.235   1.493 -0.1221 -1.2932  1.4323
14162TIP3   OH263900   2.532   5.471   3.075 -0.5060 -0.0605  0.0739
14162TIP3    H163901   2.475   5.462   2.998  0.0111 -1.8979 -0.1283
14162TIP3    H263902   2.597   5.401   3.064  0.5170  0.6801  1.3811
14163TIP3   OH263903   0.781   5.840   1.407  0.3258 -0.5566 -0.1914
14163TIP3    H163904   0.704   5.868   1.358  0.1389  0.0468  0.4455
14163TIP3    H263905   0.855   5.876   1.359  0.1707 -0.4270 -0.3307
14164TIP3   OH263906   7.058   6.478   2.322  0.9010  0.1396  0.1268
14164TIP3    H163907   7.103   6.537   2.382  0.2386 -0.0590  0.8234
14164TIP3    H263908   7.062   6.522   2.237  0.1466  1.3327  0.7048
14165TIP3   OH263909   6.293   0.295   4.767 -0.1345  0.3421  0.4040
14165TIP3    H163910   6.228   0.292   4.838 -0.0147  4.0783  0.7821
14165TIP3    H263911   6.248   0.339   4.695  1.2791  0.9721 -0.1130
14166TIP3   OH263912   2.331   6.794   3.177 -0.7527  0.2591 -0.0464
14166TIP3    H163913   2.304   6.703   3.188  0.5905 -0.8281 -4.7933
14166TIP3    H263914   2.264   6.832   3.121  0.9194  1.0006 -1.5861
14167TIP3   OH263915   0.379   5.614   3.199  0.8021  0.0912 -0.7062
14167TIP3    H163916   0.419   5.537   3.160 -1.0835 -1.5043  0.4395
14167TIP3    H263917   0.346   5.584   3.284 -0.8500  1.8952 -0.6745
14168TIP3   OH263918   5.498   0.660   0.631  0.4763 -0.1828  0.4665
14168TIP3    H163919   5.455   0.577   0.651 -0.1284  0.2705  1.0364
14168TIP3    H263920   5.591   0.638   0.627  0.2337 -1.0992 -0.4571
14169TIP3   OH263921   6.073   1.306   1.072  0.0058  0.0379  0.2135
14169TIP3    H163922   6.161   1.326   1.105  0.5840 -0.7592 -0.8118
14169TIP3    H263923   6.040   1.390   1.039  0.8260  0.1353 -0.3874
14170TIP3   OH263924   0.074   7.069   4.600 -0.6321  0.1589 -0.5725
14170TIP3    H163925   0.109   7.028   4.521  2.2383 -1.0301  1.2224
14170TIP3    H263926   0.048   6.995   4.656 -0.5089  0.8993  0.4848
14171TIP3   OH263927   0.163   7.023   2.279 -0.4024  0.0683 -0.6521
14171TIP3    H163928   0.170   7.041   2.372  0.9922  1.0850 -0.9239
14171TIP3    H263929   0.116   7.098   2.243 -1.6486 -0.7058 -0.6629
14172TIP3   OH263930   4.518   2.752   3.608 -0.5783 -0.6596  0.1048
14172TIP3    H163931   4.540   2.690   3.540 -0.5853 -0.3560 -0.1752
14172TIP3    H263932   4.468   2.701   3.672 -1.6143 -0.6769 -0.7001
14173TIP3   OH263933   0.976   0.241   3.698  0.1912 -0.3294 -0.2009
14173TIP3    H163934   0.924   0.238   3.778 -1.5040 -1.0152 -1.3019
14173TIP3    H263935   0.995   0.334   3.685 -0.6094 -0.0933  0.3225
14174TIP3   OH263936   2.143   5.902   1.850 -0.3542 -0.7705 -0.0527
14174TIP3    H163937   2.071   5.960   1.873  0.2485  0.5970 -1.5931
14174TIP3    H263938   2.101   5.818   1.832 -1.5241 -0.0830 -0.5652
14175TIP3   OH263939   5.551   6.370   4.523  0.1245 -0.2698  0.2783
14175TIP3    H163940   5.506   6.446   4.560  0.8508 -0.2644  1.1758
14175TIP3    H263941   5.484   6.303   4.517 -0.0765 -0.1892  1.3975
14176TIP3   OH263942   3.570   0.587   5.279  0.3372 -1.0262 -0.0942
14176TIP3    H163943   3.611   0.549   5.356 -0.4344 -0.8534  0.4022
14176TIP3    H263944   3.515   0.517   5.243 -1.9953 -0.0553  1.4804
14177TIP3   OH263945   0.068   5.840   0.022 -0.1017 -0.4408 -0.0592
14177TIP3    H163946  -0.018   5.836   0.063 -0.3919  1.6913 -0.3867
14177TIP3    H263947   0.051   5.832  -0.072 -0.1363  1.6564 -0.2531
14178TIP3   OH263948   2.526   1.406   3.538  0.2086  0.2494 -0.1924
14178TIP3    H163949   2.534   1.383   3.445 -3.3531  0.2230 -0.5698
14178TIP3    H263950   2.616   1.425   3.566  1.2873  0.8179 -3.7711
14179TIP3   OH263951   6.841   0.607   3.606 -0.4310 -0.5872 -0.1546
14179TIP3    H163952   6.805   0.524   3.638  1.1076 -0.6322  1.5523
14179TIP3    H263953   6.914   0.625   3.665  1.1003  0.4855 -2.3400
14180TIP3   OH263954   5.400   2.089   1.279  0.6571 -0.3909  0.0714
14180TIP3    H163955   5.481   2.136   1.299  0.4317  0.4230 -0.9073
14180TIP3    H263956   5.402   2.077   1.184  0.9127 -2.7385  0.3396
14181TIP3   OH263957   6.071   0.749   0.986  0.8632  0.0564  0.1770
14181TIP3    H163958   6.164   0.732   1.001  1.3574  2.2485 -0.2795
14181TIP3    H263959   6.053   0.828   1.036 -1.3570 -1.6495  2.2111
14182TIP3   OH263960   5.393   6.776   5.389 -0.8829 -0.3250 -0.3338
14182TIP3    H163961   5.431   6.836   5.453 -0.3663 -2.6089  1.5649
14182TIP3    H263962   5.334   6.831   5.337  0.5597  2.0739  0.4800
14183TIP3   OH263963   5.278   1.298   2.674 -0.9083 -0.2142  0.6943
14183TIP3    H163964   5.205   1.254   2.631  0.0246  0.1430 -1.3249
14183TIP3    H263965   5.243   1.324   2.759 -3.0577 -0.2586 -0.1347
14184TIP3   OH263966   0.433   6.788  14.521 -0.1554  0.0046 -0.0428
14184TIP3    H163967   0.389   6.763  14.440  2.0352 -1.2890 -0.8623
14184TIP3    H263968   0.523   6.808  14.496  1.0065 -1.9710  2.2323
14185TIP3   OH263969   2.695   3.165   2.376 -0.2313 -0.6060 -0.7027
14185TIP3    H163970   2.602   3.160   2.355 -0.3044  3.1706 -1.4742
14185TIP3    H263971   2.698   3.193   2.468  0.2083 -2.5647 -0.0716
14186TIP3   OH263972   5.402   7.283   2.542 -0.0915  0.0466  0.1867
14186TIP3    H163973   5.468   7.346   2.570  1.1796 -0.9947 -0.3662
14186TIP3    H263974   5.406   7.285   2.446  1.5922 -2.4580  0.1506
14187TIP3   OH263975   1.720   2.405   4.505 -0.6215  0.1884  0.4610
14187TIP3    H163976   1.698   2.316   4.529  0.0495 -0.1629 -0.1923
14187TIP3    H263977   1.800   2.424   4.554 -1.0098  0.5951  0.9467
14188TIP3   OH263978   4.697   6.883   2.719 -0.0106 -1.2297 -0.1294
14188TIP3    H163979   4.717   6.856   2.808  1.4904  0.3991  0.0660
14188TIP3    H263980   4.615   6.840   2.698 -1.0905 -0.5530  2.5243
14189TIP3   OH263981   4.529   5.560   3.207 -0.2592  0.1282 -0.1426
14189TIP3    H163982   4.512   5.648   3.240  0.3862  0.2266 -0.0647
14189TIP3    H263983   4.624   5.558   3.192 -0.2327 -0.6480  0.1219
14190TIP3   OH263984   0.059   0.815   1.475  0.6156 -0.9329  1.0370
14190TIP3    H163985   0.027   0.774   1.555  0.3042 -1.0326  0.8638
14190TIP3    H263986   0.151   0.833   1.492  0.7927 -1.8499  1.0587
14191TIP3   OH263987   5.874   0.561   1.012  0.1539  0.3639  0.0165
14191TIP3    H163988   5.949   0.617   1.032  0.4374 -0.5609  1.7146
14191TIP3    H263989   5.815   0.574   1.087 -1.0073  0.4331 -0.8922
14192TIP3   OH263990   6.032   6.213  15.658  0.2765 -0.1052  0.3360
14192TIP3    H163991   6.105   6.171  15.703  0.0460 -1.5807 -0.6332
14192TIP3    H263992   6.069   6.294  15.622  1.2868 -0.5692  0.3335
14193TIP3   OH263993   4.578   3.549   3.147  0.7352  0.0677 -0.4805
14193TIP3    H163994   4.670   3.551   3.176  0.4915  0.2083  0.2843
14193TIP3    H263995   4.551   3.458   3.158  0.0437  0.5118  1.6285
14194TIP3   OH263996   4.189   3.419  15.560 -0.1860  0.5058 -0.7381
14194TIP3    H163997   4.230   3.379  15.483 -0.9232 -1.7136 -0.0153
14194TIP3    H263998   4.106   3.454  15.527 -0.2841 -0.0237 -1.0606
14195TIP3   OH263999   0.624   3.853   1.641  0.4208 -0.1315 -0.0555
14195TIP3    H164000   0.664   3.802   1.712 -0.6741  0.4958  1.0287
14195TIP3    H264001   0.654   3.943   1.656 -0.6275  0.1757  0.2124
14196TIP3   OH264002   0.401   5.541   3.480  0.3465 -0.2317  0.3095
14196TIP3    H164003   0.429   5.558   3.570  1.3661 -1.2991  0.2024
14196TIP3    H264004   0.467   5.482   3.445 -1.4123 -1.8435 -0.3515
14197TIP3   OH264005   0.964   1.919   4.575  0.5300  0.6349 -0.0814
14197TIP3    H164006   0.923   1.948   4.656 -1.2870 -0.8882 -0.4138
14197TIP3    H264007   0.984   1.827   4.589 -1.9959 -0.3028 -2.1484
14198TIP3   OH264008   3.376   7.218   4.801 -0.7301  0.4817 -0.1813
14198TIP3    H164009   3.406   7.254   4.884 -0.2975 -2.3365  0.9344
14198TIP3    H264010   3.431   7.260   4.735  0.0791  1.4779  1.1101
14199TIP3   OH264011   6.449   0.701   0.402 -0.4195  0.3131 -0.3725
14199TIP3    H164012   6.384   0.630   0.400  0.5457 -0.6092  0.3765
14199TIP3    H264013   6.446   0.734   0.492  0.0401  0.3747 -0.3787
14200TIP3   OH264014   5.694   0.967   2.701  0.0147 -0.1299  0.3690
14200TIP3    H164015   5.746   0.941   2.625  0.2599 -2.3070  1.2434
14200TIP3    H264016   5.630   1.029   2.667  1.0564  0.0308 -1.3302
14201TIP3   OH264017   5.424   2.065   3.315 -0.5101  0.0656 -0.3973
14201TIP3    H164018   5.492   2.079   3.249 -2.1659  0.1464 -2.1523
14201TIP3    H264019   5.366   1.999   3.276 -1.6890  0.3342  0.8540
14202TIP3   OH264020   4.695   2.012   4.353  0.1751 -0.7173  0.3800
14202TIP3    H164021   4.683   2.082   4.289 -1.3277 -0.0838  1.3427
14202TIP3    H264022   4.769   1.962   4.319 -1.8621 -1.6138 -2.9535
14203TIP3   OH264023   4.392   5.467   2.233  0.1791 -0.3080  0.4641
14203TIP3    H164024   4.436   5.442   2.314 -0.7586  1.7770  1.6944
14203TIP3    H264025   4.305   5.428   2.241 -0.0886  0.3256  0.7371
14204TIP3   OH264026   5.293   0.971   0.208 -0.1400 -0.1796 -0.0911
14204TIP3    H164027   5.343   0.889   0.204  0.8743  0.4722 -1.1462
14204TIP3    H264028   5.280   0.987   0.301 -0.0692 -1.3855  0.1250
14205TIP3   OH264029   3.214   6.894   2.313  0.0507  0.4491 -0.4617
14205TIP3    H164030   3.274   6.901   2.240  0.4486  3.2293  0.0444
14205TIP3    H264031   3.266   6.855   2.384  0.8140  1.3260 -0.5228
14206TIP3   OH264032   0.323   4.734  15.493  0.1927 -0.1498 -0.1336
14206TIP3    H164033   0.412   4.756  15.464 -0.1269  0.2159 -0.8421
14206TIP3    H264034   0.267   4.758  15.419 -0.5250 -0.1297  0.4165
14207TIP3   OH264035   2.350   4.884   4.307  0.4442  0.3741  0.3579
14207TIP3    H164036   2.277   4.944   4.295 -0.0398 -0.4096 -0.7704
14207TIP3    H264037   2.318   4.817   4.367  1.0749  1.3841  1.8320
14208TIP3   OH264038   5.282   1.844   2.444 -0.2414 -0.1082  0.1624
14208TIP3    H164039   5.204   1.791   2.432  0.2922 -0.7482 -0.5297
14208TIP3    H264040   5.286   1.860   2.538 -0.5881 -1.0200  0.3393
14209TIP3   OH264041   6.336   1.802   4.393  0.0280  0.3673  0.1862
14209TIP3    H164042   6.247   1.774   4.371 -0.4407  0.7641  1.5237
14209TIP3    H264043   6.387   1.784   4.314 -0.8710 -1.5392  0.0111
14210TIP3   OH264044   6.514   3.372   2.568  0.0433 -0.4354 -0.0253
14210TIP3    H164045   6.464   3.440   2.522  1.5324 -0.5244 -1.8238
14210TIP3    H264046   6.490   3.291   2.524 -0.2519 -0.8437  0.8669
14211TIP3   OH264047   0.508   2.184   4.752 -0.2940 -0.4117 -0.1784
14211TIP3    H164048   0.593   2.205   4.714  0.1138 -2.2575 -0.3279
14211TIP3    H264049   0.452   2.163   4.676 -0.0930 -1.9180  0.0694
14212TIP3   OH264050   6.870   1.013   2.288  0.2057  0.0613  0.0453
14212TIP3    H164051   6.841   0.981   2.373 -1.0216  0.6754 -0.1315
14212TIP3    H264052   6.943   1.070   2.308  0.0288  0.0729  0.6783
14213TIP3   OH264053   1.107   5.945   3.750 -0.0908 -0.0790  0.2240
14213TIP3    H164054   1.074   5.886   3.818 -1.4700  2.1740  1.6042
14213TIP3    H264055   1.043   5.937   3.679  0.1872 -0.8637  0.0595
14214TIP3   OH264056   0.904   1.652  14.724  0.5767  0.5805  1.0039
14214TIP3    H164057   0.818   1.612  14.739  1.0031 -0.1865  1.3838
14214TIP3    H264058   0.887   1.720  14.659 -0.4904  1.0408  1.7448
14215TIP3   OH264059   6.580   4.863   4.381 -0.0794  0.0630  0.0267
14215TIP3    H164060   6.623   4.947   4.398  0.6374 -0.2813 -0.0544
14215TIP3    H264061   6.652   4.803   4.360 -0.7170 -0.1555 -1.6081
14216TIP3   OH264062   1.154   2.918   1.080 -0.2642  0.6848  0.1190
14216TIP3    H164063   1.088   2.859   1.044  0.2438  1.1142 -1.5447
14216TIP3    H264064   1.237   2.873   1.068 -0.2071  0.3252  1.8364
14217TIP3   OH264065   6.024   3.342   3.085 -0.2478 -0.3729 -0.4955
14217TIP3    H164066   5.968   3.299   3.149  0.9716 -0.2470  0.6842
14217TIP3    H264067   6.062   3.271   3.034  1.3680 -0.7235  1.1216
14218TIP3   OH264068   0.276   6.269   1.356 -0.2866 -0.4829  0.2311
14218TIP3    H164069   0.287   6.219   1.437 -0.8909 -0.0341  0.5978
14218TIP3    H264070   0.318   6.216   1.289  0.8495 -0.5190  0.9574
14219TIP3   OH264071   5.003   7.249   1.635  0.3010  0.2119  0.2882
14219TIP3    H164072   4.954   7.293   1.565  0.1231 -0.9082 -0.2963
14219TIP3    H264073   4.965   7.161   1.639  1.4428 -0.2624  0.6696
14220TIP3   OH264074   4.204   5.246  14.677  0.3563 -0.6416 -0.3847
14220TIP3    H164075   4.222   5.183  14.747 -0.3129 -2.0681 -1.4550
14220TIP3    H264076   4.217   5.332  14.718  0.5692 -1.4486  1.3097
14221TIP3   OH264077   1.657   7.210   3.208  0.2970  0.9259 -0.1598
14221TIP3    H164078   1.684   7.283   3.264 -0.5910  1.5341 -0.5343
14221TIP3    H264079   1.728   7.146   3.218  0.2726  1.1190  1.4940
14222TIP3   OH264080   5.543   1.306   2.912 -0.3577  0.7362  0.0554
14222TIP3    H164081   5.629   1.274   2.886  0.3399  2.3921  0.2236
14222TIP3    H264082   5.499   1.231   2.951  0.9186 -0.1904 -0.2822
14223TIP3   OH264083   5.027   1.104   3.478  0.4644 -0.3282  0.8984
14223TIP3    H164084   5.003   1.178   3.535  1.2861 -0.9588  2.0889
14223TIP3    H264085   5.121   1.092   3.494  0.2117 -2.0174  1.1833
14224TIP3   OH264086   3.590   0.580   5.558  0.3613  0.5999 -0.4499
14224TIP3    H164087   3.616   0.670   5.537  0.6932  0.7298  0.4978
14224TIP3    H264088   3.506   0.589   5.603 -0.4134  0.3124 -1.8178
14225TIP3   OH264089   6.180   7.002   4.189 -0.0543  0.0428 -0.1941
14225TIP3    H164090   6.213   6.999   4.279 -1.0307  1.1643  0.2043
14225TIP3    H264091   6.260   7.001   4.136  0.5366 -0.5784  0.6703
14226TIP3   OH264092   2.439   3.861   2.700 -0.3455 -0.1231 -0.0870
14226TIP3    H164093   2.530   3.859   2.671 -0.0954 -1.0295  0.7307
14226TIP3    H264094   2.413   3.953   2.692  1.4413  0.6234  2.1237
14227TIP3   OH264095   1.717   3.858   3.244  0.4102  0.0675  0.1731
14227TIP3    H164096   1.751   3.945   3.221  1.9316 -1.3273 -3.0892
14227TIP3    H264097   1.640   3.847   3.189 -1.8502  0.6493  3.0647
14228TIP3   OH264098   5.304   0.392   2.841 -0.7891  0.0221 -0.0705
14228TIP3    H164099   5.254   0.319   2.804 -0.8922 -0.7141  1.5135
14228TIP3    H264100   5.374   0.351   2.890 -0.3362  1.0126  0.1150
14229TIP3   OH264101   3.584   1.790   1.773  0.5277 -0.4048  0.2279
14229TIP3    H164102   3.522   1.718   1.785 -2.6631  2.1265 -0.5221
14229TIP3    H264103   3.641   1.761   1.701 -1.1184 -1.8887 -0.4998
14230TIP3   OH264104   3.761   2.392   2.631  0.5993  0.4424  0.1713
14230TIP3    H164105   3.701   2.339   2.578  1.1242 -1.9305  1.8695
14230TIP3    H264106   3.778   2.470   2.578 -2.3832  0.2068 -1.1877
14231TIP3   OH264107   1.405   0.997  15.531 -0.0738  1.1520  0.1512
14231TIP3    H164108   1.338   0.971  15.467  1.9870  0.4696 -1.8003
14231TIP3    H264109   1.457   1.063  15.484  1.8355  0.2083  0.8809
14232TIP3   OH264110   6.048   2.287   4.038 -0.5545 -0.0512  0.0448
14232TIP3    H164111   5.964   2.260   4.002 -0.5354 -0.6493  0.4327
14232TIP3    H264112   6.103   2.303   3.961 -0.8709 -0.1615 -0.2058
14233TIP3   OH264113   2.461   1.297   2.038  0.5069  0.4224 -0.2319
14233TIP3    H164114   2.548   1.278   2.073 -0.0288 -0.4532  0.6346
14233TIP3    H264115   2.472   1.379   1.990  1.5611  0.8995  0.8084
14234TIP3   OH264116   2.783   2.272   2.893  0.2415 -0.0654  0.2378
14234TIP3    H164117   2.838   2.199   2.922  1.4368  1.2384  1.3714
14234TIP3    H264118   2.846   2.339   2.867 -0.8530 -0.2349 -2.9264
14235TIP3   OH264119   0.457   1.603   5.546  0.4310 -0.1236 -0.0729
14235TIP3    H164120   0.405   1.656   5.607  2.3954  0.8271  0.8159
14235TIP3    H264121   0.495   1.534   5.600  3.4948  1.6618  0.1571
14236TIP3   OH264122   6.217   1.526  15.710  0.3659 -0.1261  0.4738
14236TIP3    H164123   6.256   1.456  15.657  0.2497 -0.2051  0.4928
14236TIP3    H264124   6.239   1.607  15.664 -1.3736 -0.3122 -0.7325
14237TIP3   OH264125   1.720   1.702   4.872 -0.1653  0.0907 -0.4728
14237TIP3    H164126   1.813   1.696   4.851  0.1680  2.8432  0.0557
14237TIP3    H264127   1.711   1.785   4.919 -3.1283  0.5767 -1.7841
14238TIP3   OH264128   0.830   5.153   2.507  0.1769  0.3054 -0.4982
14238TIP3    H164129   0.915   5.167   2.467  0.5106  0.9005  0.3922
14238TIP3    H264130   0.773   5.219   2.467  0.6663  1.3312  0.4602
14239TIP3   OH264131   2.741   1.733   5.290 -0.5277 -0.1106  0.2689
14239TIP3    H164132   2.711   1.824   5.289  0.7349  0.3194 -0.9689
14239TIP3    H264133   2.835   1.739   5.270  0.2449 -1.4621  3.1906
14240TIP3   OH264134   6.134   2.748   3.937  0.0517  1.0054 -0.0871
14240TIP3    H164135   6.216   2.784   3.902  0.5033 -0.4080 -0.5105
14240TIP3    H264136   6.065   2.798   3.892  0.6628  1.4874 -0.4965
14241TIP3   OH264137   4.390   6.927  14.423 -0.0628  0.3068  0.4000
14241TIP3    H164138   4.297   6.946  14.411 -0.2377 -0.8619 -0.1378
14241TIP3    H264139   4.392   6.857  14.488  0.4728  0.5695  0.6735
14242TIP3   OH264140   1.371   0.827   0.031 -0.6938  0.2717 -0.1281
14242TIP3    H164141   1.351   0.850  -0.060 -1.2567  2.3507  0.4986
14242TIP3    H264142   1.289   0.839   0.078 -0.9769 -2.9012  0.3299
14243TIP3   OH264143   5.840   0.016   3.993 -0.0689 -0.2629 -0.1361
14243TIP3    H164144   5.891  -0.027   4.062 -1.5460 -2.7423 -0.4941
14243TIP3    H264145   5.799   0.091   4.036  1.3498 -0.0761  0.9230
14244TIP3   OH264146   6.649   2.807   3.736 -0.1470  0.0223  0.4995
14244TIP3    H164147   6.684   2.762   3.659 -0.9038 -0.5454  0.4746
14244TIP3    H264148   6.690   2.762   3.810 -1.0291 -0.8396  0.4794
14245TIP3   OH264149   3.937   2.323   1.020  0.4459 -0.2799  0.2511
14245TIP3    H164150   3.983   2.318   0.937  0.2190  0.2731  0.0938
14245TIP3    H264151   3.957   2.410   1.054  1.2888 -0.8436  1.2155
14246TIP3   OH264152   1.758   1.686   1.923  0.2434  0.0803  0.6568
14246TIP3    H164153   1.686   1.643   1.878 -0.3687  0.6365  1.1081
14246TIP3    H264154   1.764   1.640   2.007  1.5008 -1.0778 -0.0351
14247TIP3   OH264155   6.102   3.121   4.244  0.0340  0.0442  0.3931
14247TIP3    H164156   6.157   3.180   4.295  0.9776  1.0237 -1.6906
14247TIP3    H264157   6.156   3.095   4.169 -1.5829 -0.6829 -0.5681
14248TIP3   OH264158   7.173   1.616  14.232 -0.0395 -0.0832  0.2253
14248TIP3    H164159   7.089   1.637  14.192  0.4221  2.8280  0.7203
14248TIP3    H264160   7.236   1.623  14.161  0.2172  0.9699  0.5522
14249TIP3   OH264161   0.598   0.476   5.026  0.2775 -0.0070  0.3237
14249TIP3    H164162   0.596   0.393   4.978 -0.7145  0.0744  0.2089
14249TIP3    H264163   0.554   0.457   5.109  0.8907  0.1694  0.6927
14250TIP3   OH264164   1.950   5.455   3.377 -0.6209  0.3667  0.1779
14250TIP3    H164165   1.872   5.413   3.344  0.0971 -0.5073 -0.4246
14250TIP3    H264166   1.918   5.530   3.427 -1.7552  1.1856 -1.7365
14251TIP3   OH264167   5.468   4.646   1.441 -0.0192 -0.3290 -0.8002
14251TIP3    H164168   5.540   4.589   1.415  0.2616  0.4867 -1.8240
14251TIP3    H264169   5.440   4.611   1.526  1.2719 -0.9417 -0.6050
14252TIP3   OH264170   2.714   4.013   2.325  0.1630 -0.1057 -0.1117
14252TIP3    H164171   2.786   3.952   2.340 -1.0028 -0.7710  2.9980
14252TIP3    H264172   2.704   4.013   2.229  2.6837 -1.8203 -0.4484
14253TIP3   OH264173   6.466   1.223   5.225 -0.3377 -0.5722  0.0350
14253TIP3    H164174   6.376   1.196   5.204 -0.0472 -0.6585 -1.1296
14253TIP3    H264175   6.516   1.142   5.224  0.0888 -0.3024 -1.1117
14254TIP3   OH264176   0.181   2.153   5.192 -0.1659 -0.9319 -0.2261
14254TIP3    H164177   0.211   2.181   5.278  0.0199 -0.3288 -0.4845
14254TIP3    H264178   0.210   2.062   5.185 -0.7038 -1.1699  0.5824
14255TIP3   OH264179   0.020   2.957   3.351 -0.4884 -0.2179  0.9772
14255TIP3    H164180  -0.066   2.993   3.329  0.0989 -0.2058 -1.4459
14255TIP3    H264181   0.075   3.034   3.365 -0.6007 -0.2105  1.3619
14256TIP3   OH264182   4.481   7.047   2.900  0.3225 -0.5223  0.7004
14256TIP3    H164183   4.397   7.058   2.856 -0.2211 -1.4537  1.4749
14256TIP3    H264184   4.540   7.014   2.832 -0.0978 -0.4504  0.3006
14257TIP3   OH264185   2.441   3.685   4.336  0.2792 -0.2191  0.1667
14257TIP3    H164186   2.421   3.659   4.246 -0.6914  0.0604  0.2989
14257TIP3    H264187   2.477   3.606   4.376 -0.1227 -0.6025 -0.2193
14258TIP3   OH264188   7.119   6.659   1.559  0.5222 -0.2064 -0.3607
14258TIP3    H164189   7.192   6.659   1.497 -0.7703 -1.2927 -1.8992
14258TIP3    H264190   7.060   6.727   1.527  0.4467  0.0871  0.3988
14259TIP3   OH264191   1.268   2.494   0.400 -0.2468 -0.4191 -0.7627
14259TIP3    H164192   1.194   2.490   0.339  0.2060  2.3284 -1.5322
14259TIP3    H264193   1.277   2.587   0.421  1.8953 -0.9245  0.6872
14260TIP3   OH264194   6.546   3.653   2.701 -0.0369  0.2543  0.4079
14260TIP3    H164195   6.455   3.635   2.678 -0.3302  0.3524  1.4677
14260TIP3    H264196   6.594   3.577   2.668 -0.4063  0.5288 -0.7713
14261TIP3   OH264197   2.529   1.527   5.194 -0.0183  0.0540  0.1344
14261TIP3    H164198   2.590   1.597   5.217  1.7164 -1.0998 -0.8683
14261TIP3    H264199   2.444   1.558   5.227  1.2529  1.2458  2.4415
14262TIP3   OH264200   2.255   1.720   4.212  0.1705 -0.3047 -0.1664
14262TIP3    H164201   2.317   1.667   4.163 -2.2297 -2.3052 -1.1373
14262TIP3    H264202   2.274   1.701   4.304  1.1776 -0.6317 -0.4368
14263TIP3   OH264203   1.104   5.728   0.992  0.1659  0.5779  0.0802
14263TIP3    H164204   1.162   5.781   1.047  0.7133  1.5046 -1.3709
14263TIP3    H264205   1.144   5.730   0.905 -0.1382 -1.7323 -0.1381
14264TIP3   OH264206   3.193   3.837   0.038 -0.0944  0.1629  0.1106
14264TIP3    H164207   3.222   3.808  -0.048 -0.3910 -2.1494  0.7683
14264TIP3    H264208   3.111   3.884   0.020  0.5820  0.9469 -1.0042
14265TIP3   OH264209   0.558   3.602   1.966  0.1181  0.2269 -0.3605
14265TIP3    H164210   0.547   3.696   1.981 -0.5423  0.2614 -1.0333
14265TIP3    H264211   0.472   3.564   1.987 -0.8692  0.2807 -4.0764
14266TIP3   OH264212   6.969   0.708   3.089 -0.6911  0.0170 -0.4276
14266TIP3    H164213   6.988   0.793   3.129 -0.7868  0.0679 -0.4895
14266TIP3    H264214   6.873   0.701   3.093 -0.6971  0.0012 -0.6032
14267TIP3   OH264215   0.570   0.419   4.512  1.0100 -0.5284 -0.0325
14267TIP3    H164216   0.629   0.469   4.456  0.9239 -0.5019 -0.0990
14267TIP3    H264217   0.522   0.361   4.452 -0.5324  0.9170 -0.2362
14268TIP3   OH264218   1.868   3.223   2.911 -0.0456 -0.0592  0.5154
14268TIP3    H164219   1.838   3.299   2.862  0.5724 -0.6564 -0.8307
14268TIP3    H264220   1.916   3.170   2.846 -0.8649 -1.8175  1.3063
14269TIP3   OH264221   0.621   4.524   4.006 -0.5493 -0.2532  0.8609
14269TIP3    H164222   0.656   4.453   4.059  2.5368  0.0220 -0.7329
14269TIP3    H264223   0.557   4.481   3.948  1.7723 -1.9084 -0.5697
14270TIP3   OH264224   2.419   5.274   0.928 -0.3944 -0.3629  0.3677
14270TIP3    H164225   2.490   5.256   0.866  0.9462  0.3862  1.6548
14270TIP3    H264226   2.342   5.285   0.873  0.8403  0.6786 -1.2206
14271TIP3   OH264227   6.798   1.640   5.689  0.0407 -0.1004  0.3399
14271TIP3    H164228   6.758   1.611   5.771  0.1161 -1.4464 -0.0784
14271TIP3    H264229   6.879   1.589   5.682 -1.4272 -2.2835 -2.0250
14272TIP3   OH264230   1.535   2.926   0.449 -0.2332  0.0828  0.1486
14272TIP3    H164231   1.492   3.005   0.484 -2.3590 -1.1037  0.3110
14272TIP3    H264232   1.578   2.955   0.369 -3.3251  0.9103 -1.3154
14273TIP3   OH264233   5.347   7.088   1.488 -0.3653  0.1644  0.1758
14273TIP3    H164234   5.407   7.153   1.452  1.3980 -0.3576  2.0855
14273TIP3    H264235   5.360   7.093   1.583 -2.2582 -1.0256  0.5328
14274TIP3   OH264236   3.902   3.642  15.730 -0.2431 -0.1937  0.3411
14274TIP3    H164237   3.905   3.551  15.699 -3.0303 -0.7039  1.3983
14274TIP3    H264238   3.899   3.695  15.650  2.7750 -0.8948 -0.3132
14275TIP3   OH264239   0.629   1.720   3.155  0.3242  0.2120  0.1243
14275TIP3    H164240   0.574   1.749   3.228 -1.4762 -2.6984  0.0184
14275TIP3    H264241   0.718   1.726   3.188 -0.2625  1.8603  1.4831
14276TIP3   OH264242   0.108   2.698   2.137 -0.1546  0.4974 -0.1061
14276TIP3    H164243   0.199   2.694   2.108  0.6315  1.0184  2.2083
14276TIP3    H264244   0.076   2.608   2.125  0.6873  0.2762 -0.8152
14277TIP3   OH264245   3.460   1.304   3.492  0.0389 -0.2137 -0.4731
14277TIP3    H164246   3.426   1.313   3.581  1.3315  1.0511 -0.0800
14277TIP3    H264247   3.502   1.219   3.491  1.1217  0.2851  0.5324
14278TIP3   OH264248   7.011   4.976   1.771  0.1491  0.5258 -0.7428
14278TIP3    H164249   7.099   4.958   1.737  1.8827  1.0612  3.1314
14278TIP3    H264250   7.005   4.922   1.850 -2.7393  1.0850 -0.5434
14279TIP3   OH264251   2.488   2.880   3.548 -0.1618  0.5317  0.0034
14279TIP3    H164252   2.483   2.797   3.596  2.8668  0.4322  0.2309
14279TIP3    H264253   2.444   2.862   3.465  0.0292 -1.1662  0.2567
14280TIP3   OH264254   2.501   2.721   4.621  0.8318 -0.0279  0.1582
14280TIP3    H164255   2.578   2.664   4.626 -0.0013 -1.1819  0.1321
14280TIP3    H264256   2.451   2.687   4.548  0.0897  0.4533  0.4395
14281TIP3   OH264257   1.703   1.995   3.153 -0.4930 -0.0789 -0.2267
14281TIP3    H164258   1.663   2.051   3.219  0.1099 -0.8203  0.7803
14281TIP3    H264259   1.636   1.986   3.085 -1.6884 -0.5168  0.9865
14282TIP3   OH264260   2.683   2.191   3.500 -0.4258 -0.7303 -0.3764
14282TIP3    H164261   2.657   2.169   3.411  1.2763 -0.5096 -0.9444
14282TIP3    H264262   2.694   2.107   3.544 -2.7851 -0.8286  0.1103
14283TIP3   OH264263   5.414   1.340   3.708  0.2476 -0.1432  0.3613
14283TIP3    H164264   5.395   1.432   3.686  0.7553 -0.1608 -0.1512
14283TIP3    H264265   5.476   1.312   3.641 -0.0702 -0.9285  0.3968
14284TIP3   OH264266   1.077   0.905   2.132 -0.4127 -0.3559 -0.0323
14284TIP3    H164267   1.091   0.868   2.044  1.0888  0.6655 -0.2502
14284TIP3    H264268   0.990   0.874   2.158 -0.6932 -1.0227 -1.7044
14285TIP3   OH264269   6.540   2.457  15.177 -0.0484 -0.1721  0.3416
14285TIP3    H164270   6.612   2.463  15.240  0.2002  0.2437  0.0172
14285TIP3    H264271   6.581   2.475  15.092 -0.6713  0.7983  0.2415
14286TIP3   OH264272   6.093   2.886   4.430 -0.3955  0.6367 -0.0152
14286TIP3    H164273   6.108   2.935   4.349 -0.2816 -0.1379 -0.4697
14286TIP3    H264274   6.080   2.796   4.401 -0.4632  0.3747  0.8241
14287TIP3   OH264275   2.219   2.387   3.646 -0.1915 -0.3622  0.0573
14287TIP3    H164276   2.139   2.412   3.599 -0.2533 -1.6209 -0.5404
14287TIP3    H264277   2.188   2.361   3.733 -0.0870  1.8797  0.7950
14288TIP3   OH264278   1.259   2.750   1.350 -0.2404 -0.1451  0.4284
14288TIP3    H164279   1.237   2.823   1.291  0.7933 -1.1276 -1.1855
14288TIP3    H264280   1.175   2.726   1.389 -0.5502  2.1271  1.2552
14289TIP3   OH264281   6.842   2.595   0.530  0.8076  0.1324 -0.8895
14289TIP3    H164282   6.831   2.690   0.529  0.1963  0.1457  1.7810
14289TIP3    H264283   6.905   2.578   0.600  1.7881 -1.3837 -2.0819
14290TIP3   OH264284   0.246   2.218   4.901  0.2818  0.2494  0.6288
14290TIP3    H164285   0.227   2.139   4.951  0.4331 -0.9659 -1.1877
14290TIP3    H264286   0.335   2.205   4.868 -0.4123  0.2412 -1.3376
14291TIP3   OH264287   5.555   2.802  14.627 -0.4657 -0.1533 -0.2154
14291TIP3    H164288   5.514   2.779  14.543  0.2482  1.2370 -0.9743
14291TIP3    H264289   5.610   2.727  14.649  0.0775 -0.1331 -1.4800
14292TIP3   OH264290   2.076   1.398  15.010 -0.5344 -0.1216  0.0208
14292TIP3    H164291   2.106   1.451  15.085 -1.8896 -0.3804  0.7699
14292TIP3    H264292   2.146   1.405  14.946  0.6748  0.0675  1.3455
14293TIP3   OH264293   2.423   3.655   1.286  0.2745 -0.3078 -0.2924
14293TIP3    H164294   2.476   3.575   1.289  0.5163 -0.0971  1.6584
14293TIP3    H264295   2.367   3.644   1.209  1.9191 -1.3131 -1.3938
14294TIP3   OH264296   0.678   2.814   1.447  0.4113 -0.2685 -0.2915
14294TIP3    H164297   0.659   2.908   1.445  0.1028 -0.3188  0.2327
14294TIP3    H264298   0.602   2.775   1.489  0.8048 -0.6906  0.0282
14295TIP3   OH264299   1.830   4.749  15.468  0.5727 -0.0441 -0.0613
14295TIP3    H164300   1.855   4.826  15.417 -0.6357 -1.4054 -2.8037
14295TIP3    H264301   1.760   4.708  15.417 -0.4520 -1.6446  2.5617
14296TIP3   OH264302   4.280   0.078  15.782  0.6829 -0.3511  0.9012
14296TIP3    H164303   4.356   0.020  15.771  0.6909 -0.1988  0.1252
14296TIP3    H264304   4.261   0.074  15.876  0.9400 -1.2889  0.9251
14297TIP3   OH264305   2.543   2.257   2.732 -0.0335 -0.2193  0.3114
14297TIP3    H164306   2.630   2.245   2.769  1.7223  1.3078 -3.1924
14297TIP3    H264307   2.544   2.209   2.650 -1.6812  1.8038 -0.9490
14298TIP3   OH264308   0.658   6.324   4.967  0.2044 -0.7520 -0.5686
14298TIP3    H164309   0.737   6.375   4.952  0.0585 -0.7381 -1.3345
14298TIP3    H264310   0.670   6.285   5.053 -0.1820  1.4571  0.5220
14299TIP3   OH264311   0.432   5.065  15.647 -0.4345  0.0718  0.1148
14299TIP3    H164312   0.484   4.985  15.648  0.5067  0.6658 -0.3406
14299TIP3    H264313   0.362   5.048  15.583 -1.2239 -0.9793  1.2322
14300TIP3   OH264314   6.383   2.604   1.736 -0.0532  0.0393  0.0386
14300TIP3    H164315   6.437   2.536   1.777 -0.9446  0.1373  1.4172
14300TIP3    H264316   6.300   2.601   1.785  0.0489  2.3961  0.4100
14301TIP3   OH264317   0.183   6.422   3.216 -0.2664  0.3273 -0.1117
14301TIP3    H164318   0.115   6.456   3.158 -0.3157 -0.4815 -0.5327
14301TIP3    H264319   0.214   6.499   3.263  0.7327  1.2559 -2.2037
14302TIP3   OH264320   2.793   2.984   4.194  0.0017  0.4202  0.1819
14302TIP3    H164321   2.736   3.058   4.175 -0.9381 -0.6708 -1.3095
14302TIP3    H264322   2.771   2.959   4.284 -0.6831  1.0467  0.1933
14303TIP3   OH264323   0.983   1.537   3.009 -0.5815  0.6009  0.0263
14303TIP3    H164324   0.941   1.513   2.926 -1.3955 -0.3933  0.7085
14303TIP3    H264325   1.055   1.595   2.984 -0.4162 -0.2176 -1.4291
14304TIP3   OH264326   6.055   4.267   2.002  0.6719  1.5477  0.3958
14304TIP3    H164327   6.080   4.262   1.910  1.2612  2.7652  0.4919
14304TIP3    H264328   5.974   4.215   2.008  2.3247 -1.1715 -0.1875
14305TIP3   OH264329   5.215   3.674   4.313 -0.2994  0.2118 -0.6981
14305TIP3    H164330   5.265   3.648   4.391 -1.0466 -0.1403 -0.3356
14305TIP3    H264331   5.282   3.688   4.246  0.3012 -0.1653 -0.1870
14306TIP3   OH264332   1.753   1.321   4.376 -0.1176  0.6679 -0.4819
14306TIP3    H164333   1.800   1.295   4.297 -1.3887  0.3847 -1.1704
14306TIP3    H264334   1.688   1.252   4.389  0.7689  0.1696  1.4336
14307TIP3   OH264335   5.377   0.585   1.953 -0.2811 -0.0361 -0.0669
14307TIP3    H164336   5.288   0.617   1.968 -0.8004 -1.4241 -0.1025
14307TIP3    H264337   5.405   0.551   2.038  0.8321  1.8360  0.3438
14308TIP3   OH264338   6.931   4.948   0.118 -0.3204 -0.0797  0.4036
14308TIP3    H164339   6.994   5.012   0.087  0.0038 -0.4374  0.3231
14308TIP3    H264340   6.889   4.915   0.038  0.4094 -0.8921  0.3515
14309TIP3   OH264341   6.368   3.519   2.354  0.1929  0.4356 -0.0207
14309TIP3    H164342   6.386   3.476   2.270 -0.2117 -2.0438  1.1064
14309TIP3    H264343   6.287   3.568   2.339 -1.9903 -3.0033 -0.1020
14310TIP3   OH264344   5.907   1.520   1.891  0.2554  0.0243 -0.0192
14310TIP3    H164345   5.820   1.488   1.916  0.6063 -0.8962  0.0320
14310TIP3    H264346   5.889   1.589   1.827 -0.5168 -0.0534  0.1030
14311TIP3   OH264347   0.427   3.387   1.473  0.1072 -0.1958  0.6823
14311TIP3    H164348   0.437   3.382   1.568  1.0966  0.7818  0.6423
14311TIP3    H264349   0.438   3.480   1.453 -1.9486 -0.1278 -0.2016
14312TIP3   OH264350   2.639   3.851   4.147  0.2650  0.6683 -0.1020
14312TIP3    H164351   2.568   3.795   4.177  0.1861  1.3001  0.9274
14312TIP3    H264352   2.719   3.799   4.160 -0.0802 -0.4396 -2.2401
14313TIP3   OH264353   0.766   4.240   1.304 -0.3133  0.1045  0.4755
14313TIP3    H164354   0.678   4.206   1.290 -0.4675  0.7537 -0.1321
14313TIP3    H264355   0.823   4.163   1.294 -0.7342 -0.1441 -0.0062
14314TIP3   OH264356   2.431   3.902   2.366 -0.6953 -0.1643  0.2219
14314TIP3    H164357   2.519   3.934   2.347 -0.9343  0.0402 -0.5588
14314TIP3    H264358   2.373   3.974   2.341 -1.3889 -1.8664 -3.5430
14315TIP3   OH264359   6.272   0.989   0.430  0.4102 -0.1286 -0.0641
14315TIP3    H164360   6.327   0.993   0.352 -0.5929 -0.4652 -0.7825
14315TIP3    H264361   6.245   1.080   0.445 -0.2083 -0.2047 -0.6901
14316TIP3   OH264362   1.747   6.112   4.236  0.3793  0.3452  0.1264
14316TIP3    H164363   1.689   6.165   4.290 -0.1866  0.0880 -0.2308
14316TIP3    H264364   1.832   6.118   4.280  0.4162  1.8624 -0.1113
14317TIP3   OH264365   1.001   1.867   2.413 -0.0367  0.4288 -0.1602
14317TIP3    H164366   0.926   1.875   2.354 -1.5400  1.8359  1.8358
14317TIP3    H264367   1.030   1.957   2.427  2.7361 -0.1688 -1.7158
14318TIP3   OH264368   1.630   3.892   3.574 -0.0531 -0.5389 -0.1603
14318TIP3    H164369   1.606   3.979   3.545  0.3823 -0.0329  0.9387
14318TIP3    H264370   1.563   3.868   3.638 -0.2908 -1.0962 -0.6169
14319TIP3   OH264371   1.242   0.653   4.842 -0.2988 -0.7933  0.2386
14319TIP3    H164372   1.211   0.578   4.791 -0.2417 -0.0964 -0.8375
14319TIP3    H264373   1.169   0.715   4.839  0.6539  0.3000 -1.1717
14320TIP3   OH264374   5.270   5.724  15.808  0.1771  0.3175 -0.3900
14320TIP3    H164375   5.219   5.748  15.731 -0.5730  0.3201  0.1066
14320TIP3    H264376   5.312   5.806  15.835  0.6067  0.2715 -0.9155
14321TIP3   OH264377   1.415   3.520   3.107 -0.1627  0.8293  0.0446
14321TIP3    H164378   1.323   3.518   3.080 -0.0095  1.7165 -0.5779
14321TIP3    H264379   1.446   3.606   3.077  0.8836  0.5065  0.2013
14322TIP3   OH264380   2.211   7.226   5.742  0.1834 -0.1053 -0.0342
14322TIP3    H164381   2.169   7.142   5.725  0.3724  0.0346 -1.2967
14322TIP3    H264382   2.256   7.215   5.825 -1.5806 -0.5524  0.8790
14323TIP3   OH264383   1.484   1.825   5.140 -0.6201  0.3631  0.1862
14323TIP3    H164384   1.453   1.904   5.094  0.3442  0.8149  0.3040
14323TIP3    H264385   1.474   1.846   5.233  0.3550  0.6432  0.2303
14324TIP3   OH264386   7.154   2.580  15.802  0.4488  0.1148  0.5274
14324TIP3    H164387   7.088   2.557  15.867 -0.7952  0.4363 -0.5755
14324TIP3    H264388   7.230   2.526  15.823 -1.4962 -3.1204 -0.4745
14325TIP3   OH264389   2.148   2.560   4.131 -0.2935 -0.0297  0.7435
14325TIP3    H164390   2.224   2.519   4.090 -1.0750  0.2722 -1.0365
14325TIP3    H264391   2.082   2.491   4.136 -1.3241  0.7366 -1.5080
14326TIP3   OH264392   1.554   7.178   1.164  0.1158  0.0400  0.2830
14326TIP3    H164393   1.618   7.124   1.117  0.9225  0.6868  0.6357
14326TIP3    H264394   1.568   7.267   1.131  0.4094  0.4315  1.4468
14327TIP3   OH264395   6.281   1.873   2.032 -0.2278 -0.1969  0.1304
14327TIP3    H164396   6.220   1.800   2.021  1.5028 -1.5131 -0.9753
14327TIP3    H264397   6.364   1.831   2.055  0.2077  1.5937  1.9529
14328TIP3   OH264398   2.466   4.056   1.625 -0.4388 -0.4588  0.4133
14328TIP3    H164399   2.549   4.019   1.653 -0.5915 -0.2232  1.1952
14328TIP3    H264400   2.460   4.034   1.532  0.2343 -0.9547  0.4825
14329TIP3   OH264401   0.094   3.148   1.632 -0.1197  0.1069  0.4888
14329TIP3    H164402   0.067   3.058   1.619  1.1027 -0.1425 -0.3663
14329TIP3    H264403   0.181   3.142   1.672 -0.5261  0.9074  1.5476
14330TIP3   OH264404   6.776   1.993   1.928 -0.1519 -0.3647 -0.0539
14330TIP3    H164405   6.692   2.024   1.961  0.1297  0.4438 -0.0968
14330TIP3    H264406   6.801   2.057   1.861  1.0766  0.0655  0.8010
14331TIP3   OH264407   2.708   3.539   2.774  0.0545  0.5852 -0.0102
14331TIP3    H164408   2.632   3.550   2.718 -1.1995 -0.7541  1.3947
14331TIP3    H264409   2.672   3.524   2.861  1.8816 -1.3061  0.4668
14332TIP3   OH264410   3.281   2.507   3.533  0.4488 -0.0786  0.3786
14332TIP3    H164411   3.330   2.452   3.593 -0.2557 -1.0792  0.0572
14332TIP3    H264412   3.217   2.552   3.588  0.7165  0.0560  0.5776
14333TIP3   OH264413   6.601   0.920   5.251  0.2971  0.2661  0.4593
14333TIP3    H164414   6.696   0.933   5.243  0.3078  1.2504  1.9883
14333TIP3    H264415   6.591   0.859   5.324 -0.2167 -0.4053 -0.1727
14334TIP3   OH264416   6.646   7.291   1.845 -0.0041 -0.4951  0.0363
14334TIP3    H164417   6.595   7.340   1.780 -0.7654 -2.3430 -0.8006
14334TIP3    H264418   6.735   7.325   1.836 -0.7269  1.4509  0.1971
14335TIP3   OH264419   0.728   3.688   4.755  0.3186 -0.3685  0.2876
14335TIP3    H164420   0.661   3.710   4.691  0.9351 -0.4494 -0.3864
14335TIP3    H264421   0.781   3.767   4.763  1.1371 -0.8393 -0.4169
14336TIP3   OH264422   6.735   5.638   2.522 -0.0072 -0.1549  0.6027
14336TIP3    H164423   6.763   5.594   2.441 -0.2715 -1.1762  1.0542
14336TIP3    H264424   6.659   5.690   2.496  0.9718  0.9303 -0.1720
14337TIP3   OH264425   1.126   2.535   2.479  0.0914 -0.1854  0.2585
14337TIP3    H164426   1.124   2.628   2.459 -0.2856  0.0861  1.5678
14337TIP3    H264427   1.163   2.495   2.400 -0.6051  0.9635 -0.6624
14338TIP3   OH264428   5.616   1.862   2.062 -0.0310 -0.0064 -0.4721
14338TIP3    H164429   5.597   1.956   2.063 -1.5732 -0.2971 -0.3345
14338TIP3    H264430   5.572   1.828   2.140  0.8963 -0.7754 -0.2713
14339TIP3   OH264431   1.415   2.390  15.742  0.0743  0.1356  0.3095
14339TIP3    H164432   1.506   2.394  15.771 -0.3816 -0.5851  1.9119
14339TIP3    H264433   1.420   2.367  15.649  1.5662  1.7554 -0.0500
14340TIP3   OH264434   1.703   1.579  14.505  0.2405  0.4950 -0.3409
14340TIP3    H164435   1.629   1.525  14.533  0.3332 -0.2985 -1.5879
14340TIP3    H264436   1.666   1.637  14.439  0.8433 -0.3454 -1.4426
14341TIP3   OH264437   1.280   3.969   2.714  0.3677 -0.1986 -0.0032
14341TIP3    H164438   1.223   4.035   2.752  0.4183  0.0717 -0.3978
14341TIP3    H264439   1.304   4.004   2.628  1.5679 -0.0656  0.3869
14342TIP3   OH264440   6.747   1.602   2.733 -0.2869 -0.1443  0.2922
14342TIP3    H164441   6.826   1.554   2.760 -1.2473 -1.9007  0.0369
14342TIP3    H264442   6.697   1.539   2.682 -1.9860  0.9021  0.6425
14343TIP3   OH264443   2.187   0.329   5.554 -0.8340  0.4029 -0.1891
14343TIP3    H164444   2.230   0.411   5.581 -1.3461 -0.0648  2.1638
14343TIP3    H264445   2.098   0.355   5.532 -0.6792  0.6474 -0.5344
14344TIP3   OH264446   0.380   1.211   3.855  0.3682  0.0391 -0.5772
14344TIP3    H164447   0.334   1.269   3.795 -1.9952  1.4432  2.4836
14344TIP3    H264448   0.465   1.254   3.869  0.7979 -0.1240 -2.6001
14345TIP3   OH264449   6.985   1.741   4.504  0.4103  0.5622 -0.3808
14345TIP3    H164450   7.045   1.714   4.574 -0.3188  0.5948  0.2695
14345TIP3    H264451   6.917   1.791   4.549 -0.1202  0.5018 -1.1054
14346TIP3   OH264452   4.801   2.910   2.656 -0.2864 -0.7213 -0.4719
14346TIP3    H164453   4.781   2.955   2.574  1.0193  0.9230  0.0583
14346TIP3    H264454   4.803   2.817   2.633 -0.2680 -0.3074 -2.2336
14347TIP3   OH264455   6.238   1.783   3.480 -0.3596  0.2606  0.4700
14347TIP3    H164456   6.279   1.738   3.407  0.8421  0.5578  0.9425
14347TIP3    H264457   6.292   1.760   3.556 -0.9358  0.8371  1.0667
14348TIP3   OH264458   3.901   4.854   2.659  0.0603  0.1677  0.9061
14348TIP3    H164459   3.906   4.937   2.611  1.7398 -0.2406  0.3216
14348TIP3    H264460   3.938   4.874   2.745  2.5403 -0.4586  0.0274
14349TIP3   OH264461   0.341   5.076  15.372  0.1198  0.4366 -0.3625
14349TIP3    H164462   0.246   5.083  15.384  0.2269  0.5706  0.4277
14349TIP3    H264463   0.354   5.094  15.278 -0.8728 -2.0537 -1.0131
14350TIP3   OH264464   0.852   3.571   3.566 -0.0910 -0.0631  0.7895
14350TIP3    H164465   0.772   3.614   3.534 -0.0954 -0.6491 -0.0008
14350TIP3    H264466   0.827   3.480   3.579  0.6887 -0.4407 -0.3273
14351TIP3   OH264467   0.239   1.374  15.022 -0.3944 -0.0203 -0.0279
14351TIP3    H164468   0.247   1.282  14.999  2.3978  0.4636 -1.3210
14351TIP3    H264469   0.154   1.401  14.988 -0.8145 -1.9039 -0.4976
14352TIP3   OH264470   0.808   0.897   2.150 -0.2599  0.3068  0.2445
14352TIP3    H164471   0.727   0.856   2.182 -0.1224 -2.8308 -3.1679
14352TIP3    H264472   0.779   0.965   2.091 -0.4068  2.7641  3.0187
14353TIP3   OH264473   5.530   2.685   1.344 -0.2888  0.1265 -0.3368
14353TIP3    H164474   5.456   2.691   1.283  0.0513 -2.9215 -1.0861
14353TIP3    H264475   5.607   2.678   1.287  0.5246  2.2256  0.4556
14354TIP3   OH264476   0.074   6.541  15.743  0.3973  0.1019  0.2277
14354TIP3    H164477   0.107   6.455  15.717 -1.5517 -0.3890 -0.7426
14354TIP3    H264478   0.096   6.549  15.836 -0.0814 -1.7730  0.5151
14355TIP3   OH264479   6.850   1.697   3.775  0.1551 -0.3376 -0.1610
14355TIP3    H164480   6.812   1.774   3.732  1.6002 -1.0094 -2.6971
14355TIP3    H264481   6.916   1.733   3.834  0.7411  0.3770 -1.2428
14356TIP3   OH264482   6.037   3.569   1.521  0.3964 -0.2974  0.0682
14356TIP3    H164483   6.107   3.519   1.480  0.3076 -0.8868  0.6313
14356TIP3    H264484   5.993   3.507   1.579 -1.0895 -0.1401 -0.8680
14357TIP3   OH264485   1.754   3.651   3.908 -0.2383 -0.0349 -0.1720
14357TIP3    H164486   1.761   3.578   3.846 -1.3544 -1.6447  1.5612
14357TIP3    H264487   1.824   3.711   3.881  0.7587 -1.7704 -1.5799
14358TIP3   OH264488   1.042   3.557   3.309 -0.1749 -0.0183  0.3968
14358TIP3    H164489   0.987   3.570   3.386  1.0259  1.0758  1.0953
14358TIP3    H264490   1.037   3.641   3.262  0.6028 -0.0335  0.2864
14359TIP3   OH264491   2.306   2.441   2.424  0.0779  0.2791  0.5840
14359TIP3    H164492   2.366   2.514   2.409  0.1083  0.0654 -0.3730
14359TIP3    H264493   2.235   2.456   2.361  0.1897 -0.6363  0.2379
14360TIP3   OH264494   7.193   6.138   3.451  0.4299  0.2534  0.1336
14360TIP3    H164495   7.109   6.178   3.428  0.0558 -0.4778  0.2011
14360TIP3    H264496   7.175   6.090   3.532  1.2314  1.1366  0.8315
14361TIP3   OH264497   5.798   4.051   1.703 -0.2451 -0.1666  0.1419
14361TIP3    H164498   5.776   4.090   1.787  0.5397  2.4546 -0.8345
14361TIP3    H264499   5.876   3.998   1.720 -0.1520  0.2653  1.0617
14362TIP3   OH264500   7.281   3.501   3.800  0.0386 -0.0412  0.4012
14362TIP3    H164501   7.236   3.460   3.874 -0.7238  0.3716  0.1672
14362TIP3    H264502   7.346   3.558   3.842  1.4506 -1.8345  0.7220
14363TIP3   OH264503   6.307   4.293   4.903  0.2054  0.2002  0.2136
14363TIP3    H164504   6.236   4.285   4.966 -0.3349  0.9987 -0.2920
14363TIP3    H264505   6.293   4.378   4.861  0.1387 -0.6132 -1.4737
14364TIP3   OH264506   3.284   4.743   3.310 -0.5529  0.1761  0.0486
14364TIP3    H164507   3.315   4.720   3.398  0.4089 -0.2031 -0.3835
14364TIP3    H264508   3.340   4.692   3.251 -0.1385  1.6384 -0.8426
14365TIP3   OH264509   4.362   1.916   3.111  0.1284  0.6390  0.2713
14365TIP3    H164510   4.455   1.940   3.107 -0.0179  1.2029  0.2532
14365TIP3    H264511   4.332   1.952   3.195 -0.0532  0.3812  0.3152
14366TIP3   OH264512   0.182   3.361   4.120 -0.0687 -0.4126 -0.5478
14366TIP3    H164513   0.091   3.355   4.092 -0.3016 -0.9801  0.2971
14366TIP3    H264514   0.191   3.450   4.153 -0.0526 -0.0529 -1.5055
14367TIP3   OH264515   6.595   7.160   2.320 -0.1548  0.2390  0.7864
14367TIP3    H164516   6.686   7.130   2.320 -0.2613 -0.0952  0.0802
14367TIP3    H264517   6.583   7.200   2.234 -1.1969 -1.3758  0.1488
14368TIP3   OH264518   0.516   2.229   3.565  0.5043  0.0716 -0.0065
14368TIP3    H164519   0.507   2.140   3.600 -2.7782 -0.2375 -1.4781
14368TIP3    H264520   0.536   2.217   3.472 -1.3978  0.8050 -0.5480
14369TIP3   OH264521   3.667   3.054   5.254 -0.3248 -0.2849  0.0286
14369TIP3    H164522   3.720   2.996   5.309  0.2871 -1.1272 -1.4195
14369TIP3    H264523   3.686   3.142   5.287 -0.0154 -0.7890  1.1983
14370TIP3   OH264524   2.198   3.751   0.505  0.2532 -0.5265  0.2699
14370TIP3    H164525   2.225   3.839   0.531  0.4807 -0.8236  1.0464
14370TIP3    H264526   2.186   3.704   0.587 -0.6854 -0.9824 -0.1258
14371TIP3   OH264527   5.036   3.026   4.946  0.2992  0.4261 -0.0712
14371TIP3    H164528   4.952   3.023   4.899  1.0804  1.6486 -1.5998
14371TIP3    H264529   5.038   2.944   4.995 -2.4207  1.0093  1.1377
14372TIP3   OH264530   1.080   0.499   3.612  0.0082  0.3365 -0.0208
14372TIP3    H164531   1.036   0.541   3.686  1.2200  2.2372 -0.3536
14372TIP3    H264532   1.121   0.571   3.564 -1.4362 -0.7652 -3.0430
14373TIP3   OH264533   0.763   2.796   4.106 -0.3744 -0.1281 -0.4910
14373TIP3    H164534   0.829   2.859   4.076  0.3380 -0.2497  0.7923
14373TIP3    H264535   0.785   2.779   4.197 -1.9665 -0.4574 -0.1458
14374TIP3   OH264536   1.977   1.473   2.212  0.0165  0.1378  0.5059
14374TIP3    H164537   2.066   1.490   2.241 -0.2849  0.7736  1.0713
14374TIP3    H264538   1.985   1.403   2.147  0.8592 -0.2243  1.0040
14375TIP3   OH264539   7.020   2.942   3.271  0.1913  0.4466  0.6421
14375TIP3    H164540   7.022   3.029   3.310  1.2613 -0.0061  1.6252
14375TIP3    H264541   6.929   2.929   3.246 -0.1541  1.4829  1.3294
14376TIP3   OH264542   6.840   4.452   1.908 -0.4543 -0.6463 -0.4835
14376TIP3    H164543   6.799   4.502   1.978 -0.4927 -1.0025 -0.2500
14376TIP3    H264544   6.786   4.469   1.831  0.0758  0.4197 -0.6272
14377TIP3   OH264545   7.154   0.612   4.280  0.2329 -0.0970 -0.0794
14377TIP3    H164546   7.063   0.635   4.261 -0.1870 -0.6359  1.2189
14377TIP3    H264547   7.206   0.668   4.222 -0.9482 -0.6186 -1.6531
14378TIP3   OH264548   1.346   4.570   5.770 -0.7568 -0.4914  0.0177
14378TIP3    H164549   1.315   4.533   5.853  0.5976  0.2854  0.8986
14378TIP3    H264550   1.416   4.630   5.796 -1.2290  0.7823 -1.5935
14379TIP3   OH264551   1.699   1.026   4.646  0.5793 -0.4742 -0.1888
14379TIP3    H164552   1.721   0.987   4.731  1.0056 -0.4064 -0.2675
14379TIP3    H264553   1.753   1.105   4.641  0.0521 -0.1121 -0.2289
14380TIP3   OH264554   6.435   0.989   2.947 -0.3436  0.1297  0.5221
14380TIP3    H164555   6.506   0.936   2.912  0.0279  1.2004 -0.3618
14380TIP3    H264556   6.453   0.993   3.041  0.9964  0.7357  0.2529
14381TIP3   OH264557   1.594   1.815   1.360  0.7725 -0.2194  0.3835
14381TIP3    H164558   1.628   1.887   1.307 -1.3697 -0.3389 -1.1956
14381TIP3    H264559   1.671   1.761   1.379  1.9049  0.9274 -0.8371
14382TIP3   OH264560   1.535   5.503   5.781  0.2914 -0.7146  0.1159
14382TIP3    H164561   1.579   5.431   5.737  0.0804 -0.3013 -0.7814
14382TIP3    H264562   1.606   5.551   5.825  0.3879 -1.6674  1.0372
14383TIP3   OH264563   0.123   7.267   3.442 -0.7744  0.0406 -0.0578
14383TIP3    H164564   0.164   7.219   3.371 -0.2802 -0.3381  0.4763
14383TIP3    H264565   0.196   7.309   3.488 -1.1037  0.4389  0.1081
14384TIP3   OH264566   0.303   6.105   2.784  0.0714 -0.2095  0.5266
14384TIP3    H164567   0.379   6.055   2.755 -0.4586  0.9985 -3.1587
14384TIP3    H264568   0.336   6.194   2.796  0.0476 -0.4764  2.7150
14385TIP3   OH264569   5.036   3.480   3.784  0.2742  0.3532  0.0585
14385TIP3    H164570   5.036   3.544   3.713  0.3258  0.0950 -0.1730
14385TIP3    H264571   4.975   3.516   3.848  2.0945  1.8417  1.0055
14386TIP3   OH264572   0.463   3.856   1.228 -0.1168 -0.3462  0.2899
14386TIP3    H164573   0.403   3.868   1.301  0.4242  3.0226  0.2654
14386TIP3    H264574   0.409   3.820   1.158 -1.5009  0.0423  1.1414
14387TIP3   OH264575   6.670   1.593   1.745 -0.3939  0.3533 -0.4529
14387TIP3    H164576   6.732   1.652   1.788  0.5892 -0.5817 -0.5663
14387TIP3    H264577   6.666   1.517   1.802 -1.2568  0.2926 -0.5789
14388TIP3   OH264578   2.143   1.821   3.835  0.1483  0.2609 -0.1689
14388TIP3    H164579   2.158   1.870   3.755 -1.8197  1.0902 -0.0614
14388TIP3    H264580   2.135   1.887   3.903  2.1125 -0.4536  0.7836
14389TIP3   OH264581   2.273   3.910   3.749 -0.4003  0.9294 -0.3196
14389TIP3    H164582   2.245   3.859   3.825  0.9752 -0.7800 -0.9144
14389TIP3    H264583   2.323   3.983   3.787 -0.4387  0.5592  0.4562
14390TIP3   OH264584   5.624   2.288   1.730  0.1870  0.6413 -0.2748
14390TIP3    H164585   5.635   2.373   1.688 -0.8667  1.5440  1.1717
14390TIP3    H264586   5.628   2.308   1.824  1.6800 -1.1801  0.0745
14391TIP3   OH264587   3.019   5.253   0.302  0.2912  0.1264 -0.1549
14391TIP3    H164588   3.019   5.191   0.228  0.5234  0.1670 -0.1908
14391TIP3    H264589   3.001   5.338   0.261  2.9453  0.5492 -0.5199
14392TIP3   OH264590   7.252   7.302  15.912 -0.5578 -0.1695  0.1117
14392TIP3    H164591   7.201   7.276  15.835  1.5122 -1.3893 -0.8896
14392TIP3    H264592   7.309   7.372  15.880 -1.6330  1.2556  1.2556
14393TIP3   OH264593   3.139   3.364   3.885 -0.3812  0.5630 -0.3441
14393TIP3    H164594   3.146   3.366   3.980  0.9012 -0.7594 -0.3759
14393TIP3    H264595   3.218   3.409   3.854 -1.5907  2.3966 -0.7867
14394TIP3   OH264596   1.222   2.271  14.866 -0.0569  0.0989 -0.2116
14394TIP3    H164597   1.315   2.250  14.873  0.2547  1.2045 -0.9630
14394TIP3    H264598   1.219   2.367  14.865 -1.1171  0.0677 -1.2586
14395TIP3   OH264599   3.086   2.769   1.503  0.2342  1.0293  0.1738
14395TIP3    H164600   3.088   2.737   1.413  0.4477  1.6000 -0.0217
14395TIP3    H264601   3.088   2.689   1.556 -0.8241  0.6628 -0.3292
14396TIP3   OH264602   1.238   1.830   4.104 -0.8120  0.1373 -0.2889
14396TIP3    H164603   1.280   1.814   4.019  0.2369 -2.6712  0.7048
14396TIP3    H264604   1.157   1.780   4.101 -2.1834  2.3350 -0.6783
14397TIP3   OH264605   6.189   2.886   1.708 -0.0528  0.2597  0.2700
14397TIP3    H164606   6.278   2.889   1.674 -0.1562 -1.5754 -0.2089
14397TIP3    H264607   6.139   2.842   1.639 -1.0625  0.0552  1.1181
14398TIP3   OH264608   1.010   4.161   3.720  0.4422  0.7441 -0.2532
14398TIP3    H164609   0.938   4.223   3.712 -0.2217 -0.1792 -1.7234
14398TIP3    H264610   1.003   4.105   3.642  0.5626 -1.6682  1.3958
14399TIP3   OH264611   4.267   4.802   1.761 -0.4401  0.0347 -0.4513
14399TIP3    H164612   4.326   4.766   1.828 -0.6842 -0.4543 -0.5011
14399TIP3    H264613   4.326   4.844   1.699 -0.2985  1.8243  0.8594
14400TIP3   OH264614   0.710   0.242   2.130  0.2401  0.4622  0.4249
14400TIP3    H164615   0.625   0.254   2.173 -0.9907 -1.6352 -1.3354
14400TIP3    H264616   0.762   0.192   2.194 -0.3940  0.3647  0.8631
14401TIP3   OH264617   3.375   3.189  13.514 -0.0929  0.8475  0.0276
14401TIP3    H164618   3.449   3.187  13.575 -0.1302  0.6047  0.0638
14401TIP3    H264619   3.413   3.217  13.431 -0.0590  1.2893  0.1855
14402TIP3   OH264620   3.637   4.804   1.323  0.6374 -0.9467 -0.2448
14402TIP3    H164621   3.660   4.826   1.233  0.8977  0.5163  0.1674
14402TIP3    H264622   3.567   4.865   1.346  0.5943 -1.2911  0.5526
14403TIP3   OH264623   2.052   0.832   2.464  0.3188  0.1067  0.0018
14403TIP3    H164624   1.980   0.853   2.523  1.8820  0.7253  1.7197
14403TIP3    H264625   2.033   0.882   2.385 -1.3643 -0.1038  0.2421
14404TIP3   OH264626   2.133   4.627   3.538 -0.5799 -0.2005  0.2112
14404TIP3    H164627   2.109   4.624   3.445  0.9613  0.3140 -0.2291
14404TIP3    H264628   2.077   4.695   3.575 -0.3591  0.4530 -0.6253
14405TIP3   OH264629   0.703   2.825   3.367  0.2904 -0.2123 -0.2638
14405TIP3    H164630   0.776   2.799   3.311  0.8717  2.6258 -0.8749
14405TIP3    H264631   0.636   2.758   3.351  1.7242 -1.3218 -1.7630
14406TIP3   OH264632   0.591   3.028   2.147 -0.6795 -0.1459 -0.2261
14406TIP3    H164633   0.599   2.998   2.238 -0.3574  0.3016 -0.1066
14406TIP3    H264634   0.679   3.017   2.111 -1.2703 -2.2860 -1.0949
14407TIP3   OH264635   0.701   4.151   1.629 -0.0672  0.3328  0.6374
14407TIP3    H164636   0.766   4.218   1.606 -1.3089  1.4642  0.3897
14407TIP3    H264637   0.625   4.172   1.575 -1.4474  0.3514  2.5575
14408TIP3   OH264638   6.231   4.123   0.866  0.1807  0.6965 -0.2210
14408TIP3    H164639   6.178   4.099   0.790 -0.1302 -0.9573  0.4803
14408TIP3    H264640   6.187   4.198   0.904 -1.4805 -0.4488  0.1575
14409TIP3   OH264641   3.147   1.878   3.377 -0.2397 -0.0948  0.1929
14409TIP3    H164642   3.139   1.836   3.463 -0.1918  0.5438  0.5080
14409TIP3    H264643   3.134   1.971   3.394  3.0157  0.4596  0.0334
14410TIP3   OH264644   2.239   7.120   2.067  0.3590  0.2652 -0.9327
14410TIP3    H164645   2.223   7.152   2.155  2.8433  0.1205 -0.4060
14410TIP3    H264646   2.203   7.031   2.066  4.1577 -1.4380  1.3494
14411TIP3   OH264647   1.740   7.154   4.388  0.5343  0.4849 -0.2846
14411TIP3    H164648   1.826   7.181   4.359  0.9960 -0.1485  0.4586
14411TIP3    H264649   1.681   7.224   4.361  1.4871  1.5310  0.3333
14412TIP3   OH264650   0.446   6.373   2.830  0.2101  0.5792 -0.4190
14412TIP3    H164651   0.490   6.403   2.910 -0.3530 -0.0432  0.1249
14412TIP3    H264652   0.383   6.442   2.810 -0.4666  0.1784  0.3333
14413TIP3   OH264653   0.659   3.320   3.253 -0.3526  0.2685  0.1076
14413TIP3    H164654   0.744   3.277   3.251 -0.4521  0.0720 -0.0142
14413TIP3    H264655   0.676   3.411   3.228 -0.5666 -0.4470 -2.7908
14414TIP3   OH264656   5.742   5.625   2.414 -0.2387  0.3450  0.5318
14414TIP3    H164657   5.819   5.667   2.377 -0.4244  0.0403 -0.1994
14414TIP3    H264658   5.750   5.641   2.508 -0.9539  3.0849  0.1776
14415TIP3   OH264659   5.950   3.205   1.877  0.1764 -0.0252  0.1097
14415TIP3    H164660   5.973   3.294   1.849 -0.8655  0.4852  0.8525
14415TIP3    H264661   5.857   3.209   1.896  0.3226 -1.0430  1.1063
14416TIP3   OH264662   0.218   3.311   6.287 -0.1160  0.1821  0.2974
14416TIP3    H164663   0.127   3.341   6.283 -0.2778 -0.4904 -1.3555
14416TIP3    H264664   0.220   3.234   6.230  1.9567  1.3534 -1.2743
14417TIP3   OH264665   2.341   5.247   2.398  0.7319  1.1186 -0.1212
14417TIP3    H164666   2.296   5.257   2.314  1.1752 -0.6301 -0.5958
14417TIP3    H264667   2.364   5.336   2.424 -0.1318  1.7509 -1.4538
14418TIP3   OH264668   6.108   1.958   4.602  0.1090  0.6112  0.3293
14418TIP3    H164669   6.082   1.881   4.654  0.1637  0.4735  0.1531
14418TIP3    H264670   6.061   1.948   4.520  1.1683  0.0570 -0.2170
14419TIP3   OH264671   6.191   6.374   3.449  0.1705 -0.2978  0.1105
14419TIP3    H164672   6.286   6.370   3.442  0.1168  0.9468 -1.3267
14419TIP3    H264673   6.164   6.282   3.454  1.5676 -0.6354  2.5946
14420TIP3   OH264674   6.142   6.675   4.920 -0.6710  0.0200 -0.5971
14420TIP3    H164675   6.164   6.755   4.873  1.3204  0.5017  1.0760
14420TIP3    H264676   6.152   6.697   5.013 -2.1700 -1.5807 -0.0058
14421TIP3   OH264677   0.871   2.429   2.603 -0.0911 -0.2585 -0.4325
14421TIP3    H164678   0.781   2.398   2.617  0.0511 -0.0882  0.8821
14421TIP3    H264679   0.881   2.429   2.508 -0.4749 -3.1808 -0.5196
14422TIP3   OH264680   0.148   5.009   1.321 -0.0981 -0.1591 -0.1045
14422TIP3    H164681   0.193   4.975   1.399  1.8907 -2.1954 -2.0919
14422TIP3    H264682   0.060   4.972   1.327 -0.6218  1.3450  2.1991
14423TIP3   OH264683   2.427   3.401   5.485 -0.6436 -0.2172 -0.2947
14423TIP3    H164684   2.468   3.471   5.537  1.2812 -0.5836 -1.2846
14423TIP3    H264685   2.398   3.337   5.550  2.0131 -0.8100  0.3302
14424TIP3   OH264686   4.466   2.757   4.862 -0.0083 -0.4340 -0.3068
14424TIP3    H164687   4.385   2.739   4.813 -0.1906  0.0608 -0.1833
14424TIP3    H264688   4.533   2.764   4.794 -0.5362  1.8449 -0.6204
14425TIP3   OH264689   3.561   4.377   1.866  0.1997 -0.1201 -0.1475
14425TIP3    H164690   3.468   4.375   1.890  0.6700 -0.7731  1.7617
14425TIP3    H264691   3.591   4.287   1.880  1.5879  0.5417  1.3795
14426TIP3   OH264692   7.162   2.638   1.659 -0.4276 -0.0928  0.1827
14426TIP3    H164693   7.071   2.642   1.688 -0.5765 -0.0070 -0.2990
14426TIP3    H264694   7.180   2.545   1.650 -0.9818 -0.0664 -1.3384
14427TIP3   OH264695   6.507   0.492   3.354  0.3373 -0.5406  0.5866
14427TIP3    H164696   6.468   0.427   3.296  0.3456 -2.0237  2.2221
14427TIP3    H264697   6.461   0.573   3.334  1.7624 -0.5164 -2.9859
14428TIP3   OH264698   2.822   1.698   1.901  0.2384  0.0214  0.1487
14428TIP3    H164699   2.877   1.640   1.953 -0.8069 -1.8229 -0.7645
14428TIP3    H264700   2.880   1.731   1.832  1.0339  0.6995  1.1276
14429TIP3   OH264701   0.498   3.819   2.872 -0.1637  0.4429 -0.3631
14429TIP3    H164702   0.445   3.780   2.941  0.8369  1.7524  1.1880
14429TIP3    H264703   0.517   3.908   2.904  0.5162  0.9798 -2.2062
14430TIP3   OH264704   3.599   5.036   2.069 -0.2662  0.0376 -0.3839
14430TIP3    H164705   3.622   5.000   2.155  1.1304  0.3517 -0.6016
14430TIP3    H264706   3.672   5.009   2.013 -1.1042 -0.0458 -1.4322
14431TIP3   OH264707   1.728   3.238   0.620 -0.1097  0.3412  0.3668
14431TIP3    H164708   1.815   3.240   0.660  0.3686 -1.3602 -0.5364
14431TIP3    H264709   1.725   3.155   0.573 -2.1758  0.4460  0.2524
14432TIP3   OH264710   6.856   1.771   3.304  0.5364  0.0211 -0.8347
14432TIP3    H164711   6.921   1.840   3.290 -0.0119  0.6058 -0.5656
14432TIP3    H264712   6.783   1.796   3.247 -0.5694  0.8835  0.9038
14433TIP3   OH264713   1.367   2.229   1.187  0.6048 -0.4049  0.1681
14433TIP3    H164714   1.329   2.156   1.236  0.5490 -0.8982 -0.5986
14433TIP3    H264715   1.388   2.192   1.101 -0.2967  0.7051 -0.5530
14434TIP3   OH264716   1.965   6.193   3.358 -0.2290 -0.0077  0.1796
14434TIP3    H164717   1.901   6.142   3.308 -1.7820  0.3238  1.7673
14434TIP3    H264718   1.916   6.271   3.385  1.3605  1.0805 -0.0066
14435TIP3   OH264719   1.959   3.936  15.431  0.1445  0.5095 -0.9712
14435TIP3    H164720   1.977   4.020  15.390 -1.6866  1.1263 -0.5632
14435TIP3    H264721   1.871   3.945  15.468  0.6993 -0.9397  0.7697
14436TIP3   OH264722   1.056   3.472   2.417 -0.4630 -0.3473 -0.2959
14436TIP3    H164723   0.999   3.480   2.341 -0.9551 -0.8651  0.0127
14436TIP3    H264724   1.144   3.464   2.381 -0.6060  0.2838 -0.7810
14437TIP3   OH264725   1.790   5.051   0.863  0.0494 -0.3582  0.3506
14437TIP3    H164726   1.745   5.134   0.848 -0.3021 -0.5607  0.2709
14437TIP3    H264727   1.824   5.026   0.777  0.4471 -0.1290  0.4411
14438TIP3   OH264728   2.769   4.413   2.819  0.3827  0.0466  0.3908
14438TIP3    H164729   2.723   4.493   2.845 -1.6109 -1.3233  1.1839
14438TIP3    H264730   2.701   4.357   2.780  1.6894 -1.3800  0.0883
14439TIP3   OH264731   2.639   1.582   2.873 -0.1973  0.1196 -0.0590
14439TIP3    H164732   2.720   1.587   2.924  0.9639  0.4859 -1.8909
14439TIP3    H264733   2.658   1.631   2.792 -1.2612 -2.2220 -1.7903
14440TIP3   OH264734   2.578   2.708   2.865 -0.2658  0.0908 -0.5167
14440TIP3    H164735   2.574   2.787   2.810 -0.1777 -0.6082 -1.5585
14440TIP3    H264736   2.540   2.639   2.810 -1.8867 -0.2665  1.0049
14441TIP3   OH264737   6.565   3.075   4.301  0.2289  0.1886  0.2211
14441TIP3    H164738   6.563   3.015   4.226  0.6221  0.4858 -0.0346
14441TIP3    H264739   6.601   3.157   4.265 -1.0421  0.8246  0.3938
14442TIP3   OH264740   6.158   6.400   1.555  0.1239 -0.6076  0.2192
14442TIP3    H164741   6.106   6.381   1.633  1.4830 -1.1051  1.0156
14442TIP3    H264742   6.160   6.496   1.551  0.5984 -0.5705  1.1698
14443TIP3   OH264743   1.505   1.731   3.548  0.3072  0.2650 -0.0890
14443TIP3    H164744   1.578   1.764   3.496  0.1227  0.1612 -0.4174
14443TIP3    H264745   1.534   1.646   3.579  0.3841  0.2901 -0.0914
14444TIP3   OH264746   5.081   3.969   5.024  0.1537  0.5507 -0.8987
14444TIP3    H164747   5.067   3.875   5.021  0.7607  0.4230 -0.0134
14444TIP3    H264748   5.153   3.985   4.964  1.8996  0.0688  0.9894
14445TIP3   OH264749   2.968   3.673   2.717 -0.3541 -0.0411 -0.0785
14445TIP3    H164750   2.979   3.720   2.800 -1.2548  2.7903 -1.5340
14445TIP3    H264751   2.893   3.615   2.733 -0.6335  0.6055  1.0143
14446TIP3   OH264752   7.051   2.956   4.453  0.5088  0.2340  0.2528
14446TIP3    H164753   7.109   2.995   4.519 -0.3227  0.8484  0.6492
14446TIP3    H264754   7.075   2.999   4.371  1.1557 -0.1047  0.2660
14447TIP3   OH264755   4.619   3.525   4.378 -0.0525  0.2991 -0.3593
14447TIP3    H164756   4.570   3.465   4.323 -0.0024 -1.5597  1.5921
14447TIP3    H264757   4.690   3.473   4.414  0.9768  1.9393  0.0642
14448TIP3   OH264758   2.725   3.439   3.829 -0.7480 -0.5114  0.4252
14448TIP3    H164759   2.720   3.533   3.844 -2.3981 -0.5371  0.1026
14448TIP3    H264760   2.819   3.420   3.831 -0.3512  1.2359 -0.1019
14449TIP3   OH264761   1.206   1.111   2.495 -0.4730  0.3703 -0.1372
14449TIP3    H164762   1.289   1.128   2.538 -0.5306  1.9375 -0.6267
14449TIP3    H264763   1.208   1.017   2.476  0.8723  0.2641  0.4819
14450TIP3   OH264764   2.273   1.154   3.999  0.0521  0.0785  0.1815
14450TIP3    H164765   2.280   1.066   4.037  1.6322  0.1843  0.1824
14450TIP3    H264766   2.268   1.213   4.074 -0.8698  0.0022  0.1826
14451TIP3   OH264767   3.303   4.465   4.691  0.6175 -0.6500  0.8331
14451TIP3    H164768   3.271   4.515   4.616 -1.5022 -2.8027  0.2232
14451TIP3    H264769   3.329   4.531   4.755  1.4625  1.2318 -1.3585
14452TIP3   OH264770   3.275   3.319   1.145  0.0209  0.0070  0.2022
14452TIP3    H164771   3.191   3.276   1.126 -0.4701  0.2116  1.7930
14452TIP3    H264772   3.291   3.300   1.237  0.5012  2.0046  0.5631
14453TIP3   OH264773   1.058   7.153   5.489  0.0945  0.5370 -0.2914
14453TIP3    H164774   1.115   7.122   5.559 -0.5282  0.7536  0.3187
14453TIP3    H264775   1.010   7.226   5.528 -1.8323 -0.7057 -0.2673
14454TIP3   OH264776   0.639   3.371   3.648 -0.2431 -0.2286 -0.2786
14454TIP3    H164777   0.637   3.277   3.670  3.5596 -0.4499 -0.6134
14454TIP3    H264778   0.585   3.377   3.569 -0.4448 -2.1555 -0.3316
14455TIP3   OH264779   4.999   3.415   5.580 -0.4416  0.3378 -0.0766
14455TIP3    H164780   4.990   3.479   5.510 -1.3895  0.3775  0.0713
14455TIP3    H264781   4.916   3.367   5.580 -0.6098  0.6122  1.2751
14456TIP3   OH264782   1.624   5.233   1.461  0.1350  0.4202  0.4618
14456TIP3    H164783   1.606   5.204   1.372  0.3549  0.6448  0.3443
14456TIP3    H264784   1.576   5.171   1.517  1.1076 -0.5528  0.2304
14457TIP3   OH264785   2.773   2.950   3.121  0.1913 -0.3504  0.1830
14457TIP3    H164786   2.851   2.924   3.171  0.6568 -1.0510 -0.8853
14457TIP3    H264787   2.729   2.868   3.101 -2.2665  0.1770  2.9911
14458TIP3   OH264788   0.987   4.745   3.215 -0.2524  0.2972  0.4732
14458TIP3    H164789   1.047   4.752   3.289  0.1778  0.0219  0.1461
14458TIP3    H264790   0.920   4.811   3.234  0.7685  1.4100  0.2621
14459TIP3   OH264791   5.594   3.417   3.489 -0.0169  0.5009 -0.0483
14459TIP3    H164792   5.538   3.394   3.415 -1.1362  0.2223  0.8729
14459TIP3    H264793   5.574   3.351   3.555 -0.2489  1.7001  1.1092
14460TIP3   OH264794   1.899   1.880   5.884 -0.1100  0.6094 -0.7322
14460TIP3    H164795   1.935   1.845   5.802  0.3198  0.4545 -0.4785
14460TIP3    H264796   1.863   1.803   5.929  1.9266  0.2747  0.3888
14461TIP3   OH264797   0.438   2.708   1.527  0.7921 -0.4838  0.0351
14461TIP3    H164798   0.454   2.631   1.581 -1.0488  1.4250  3.4429
14461TIP3    H264799   0.375   2.678   1.461 -1.3295 -1.4856  2.4427
14462TIP3   OH264800   2.709   4.420   2.456  0.3756 -0.2787  0.0890
14462TIP3    H164801   2.788   4.431   2.510 -1.4119  1.4102  2.4635
14462TIP3    H264802   2.700   4.503   2.410  0.3690 -0.7270 -0.7209
14463TIP3   OH264803   1.403   1.324   0.939  0.4491  0.5400  0.4116
14463TIP3    H164804   1.330   1.348   0.997  0.9114  1.0770  0.7725
14463TIP3    H264805   1.427   1.406   0.896 -0.8058 -0.1157 -1.5988
14464TIP3   OH264806   2.547   4.252   2.334 -0.0389 -0.4149  0.0155
14464TIP3    H164807   2.599   4.333   2.324  0.1003 -0.6955 -1.8691
14464TIP3    H264808   2.604   4.193   2.383  1.1314 -0.4278 -1.3137
14465TIP3   OH264809   1.052   1.171   2.242  0.3506 -0.2187  0.3639
14465TIP3    H164810   1.087   1.156   2.330  0.8394  0.5905  0.3197
14465TIP3    H264811   1.046   1.085   2.202  0.7150 -0.5243  0.9736
14466TIP3   OH264812   6.552   0.013   2.101 -0.0939  0.4381 -0.3025
14466TIP3    H164813   6.461  -0.006   2.081 -0.2026  1.6218 -0.9546
14466TIP3    H264814   6.596   0.015   2.016  0.3342  0.9032 -0.0740
14467TIP3   OH264815   3.096   0.764   3.003 -0.0166 -0.2788 -0.2509
14467TIP3    H164816   3.000   0.761   3.002  0.0163 -1.3719 -2.4075
14467TIP3    H264817   3.123   0.684   2.958  1.9763 -1.2915  2.6140
14468TIP3   OH264818   3.254   0.212   5.080 -0.4316  0.0759 -0.0697
14468TIP3    H164819   3.269   0.117   5.084  0.9316  0.3103  0.8947
14468TIP3    H264820   3.160   0.222   5.094 -0.9533 -1.2502 -2.3964
14469TIP3   OH264821   3.084   2.197   4.263 -0.4220 -0.2229  0.1704
14469TIP3    H164822   3.169   2.157   4.244 -0.0352  1.4953 -1.9859
14469TIP3    H264823   3.093   2.233   4.351  0.6233 -1.1996  0.4764
14470TIP3   OH264824   7.179   0.804   1.282 -0.0471  0.7868  0.0283
14470TIP3    H164825   7.259   0.824   1.331 -0.3235  0.8955  0.4442
14470TIP3    H264826   7.191   0.714   1.251  0.9209  1.3580 -1.2836
14471TIP3   OH264827   4.858   7.045   3.324 -0.1247 -0.0642  0.1349
14471TIP3    H164828   4.827   7.125   3.366 -0.1405 -0.3427  0.6556
14471TIP3    H264829   4.953   7.054   3.321 -0.3115  1.3661 -2.6178
14472TIP3   OH264830   2.998   1.522   5.327 -0.0530  0.3736  0.3181
14472TIP3    H164831   3.018   1.616   5.323 -2.0498  0.7960 -0.1538
14472TIP3    H264832   2.937   1.514   5.400 -0.7412 -0.3780 -0.3279
14473TIP3   OH264833   6.028   4.840   3.878 -0.0970  0.1244 -0.7817
14473TIP3    H164834   5.975   4.901   3.826 -0.4535  1.7061  1.3729
14473TIP3    H264835   6.115   4.845   3.840 -0.4242  1.0054 -1.4330
14474TIP3   OH264836   2.242   0.784   3.285 -0.5311 -0.0131  0.2612
14474TIP3    H164837   2.178   0.747   3.224 -0.0124 -0.3010 -0.1125
14474TIP3    H264838   2.191   0.801   3.365 -1.1644  0.1736 -0.1784
14475TIP3   OH264839   4.815   2.557   1.096  0.1129 -0.2763  0.4000
14475TIP3    H164840   4.864   2.597   1.024  1.5431 -0.3198  1.3353
14475TIP3    H264841   4.864   2.582   1.175  0.7490 -3.4247  1.0711
14476TIP3   OH264842   3.733   1.271   4.346 -0.0482 -0.4651  0.4772
14476TIP3    H164843   3.684   1.215   4.406  1.3954 -1.3976  0.7936
14476TIP3    H264844   3.753   1.214   4.271  1.4735 -0.4126  0.8259
14477TIP3   OH264845   1.089   4.137   5.154 -0.5070  0.2628 -0.1519
14477TIP3    H164846   1.028   4.066   5.137 -0.8452  0.0868  1.7550
14477TIP3    H264847   1.045   4.216   5.122 -0.8647 -0.1302 -0.6301
14478TIP3   OH264848   1.049   2.194   3.918  0.0925  0.5327 -0.8410
14478TIP3    H164849   1.132   2.196   3.870  1.2846  1.2666  1.1741
14478TIP3    H264850   1.023   2.285   3.926 -0.2982  0.3891 -0.4241
14479TIP3   OH264851   0.808   4.784   2.279  0.3580 -0.6765  0.6486
14479TIP3    H164852   0.777   4.789   2.369  0.0399  1.3551  0.4550
14479TIP3    H264853   0.730   4.764   2.228  0.2910 -0.5350  0.6934
14480TIP3   OH264854   4.877   0.296   2.971  0.6020 -0.0549 -0.6142
14480TIP3    H164855   4.823   0.297   3.050  0.7231  0.2113 -0.5352
14480TIP3    H264856   4.883   0.203   2.948  0.9729 -0.1738 -0.0336
14481TIP3   OH264857   2.478   4.849   5.073  0.1112 -0.2319  0.9972
14481TIP3    H164858   2.550   4.868   5.013 -1.3791 -1.2713 -1.1965
14481TIP3    H264859   2.429   4.931   5.080 -1.0355 -0.6724 -1.1354
14482TIP3   OH264860   3.756   1.050   5.303 -0.4533 -0.4636  0.5870
14482TIP3    H164861   3.808   1.130   5.312  1.2234 -1.7081  2.3103
14482TIP3    H264862   3.819   0.983   5.275 -1.1106 -1.9653  2.5505
14483TIP3   OH264863   0.626   1.332   3.815  0.0570  0.0733 -0.1886
14483TIP3    H164864   0.707   1.332   3.866  0.8378 -0.4221 -1.4214
14483TIP3    H264865   0.652   1.358   3.727 -1.1388 -0.0201 -0.5870
14484TIP3   OH264866   4.820   3.183   3.555  0.0261 -0.6412 -0.0505
14484TIP3    H164867   4.755   3.114   3.544 -0.9511  0.0810  1.0076
14484TIP3    H264868   4.772   3.256   3.594  0.8362  1.0017 -2.0493
14485TIP3   OH264869   4.383   3.509   4.975 -0.1133  0.1154  0.1826
14485TIP3    H164870   4.306   3.548   4.934 -0.0632  0.1214  0.0964
14485TIP3    H264871   4.353   3.424   5.006  0.0329 -0.1722 -0.4681
14486TIP3   OH264872   4.071   4.563   3.395 -0.1115 -0.4877  0.6112
14486TIP3    H164873   4.024   4.480   3.399  1.2196 -1.3015 -0.6807
14486TIP3    H264874   4.157   4.541   3.360  0.0099  1.5397 -0.4076
14487TIP3   OH264875   4.143   2.239   2.091 -0.1428 -0.8905 -0.3544
14487TIP3    H164876   4.145   2.241   1.996 -0.2142 -0.3183 -0.3451
14487TIP3    H264877   4.233   2.219   2.117 -0.0755 -0.8165 -0.5336
14488TIP3   OH264878   6.064   1.699   4.002 -0.3189  0.1078 -0.0014
14488TIP3    H164879   6.078   1.620   3.949 -0.1403  1.1487 -1.5373
14488TIP3    H264880   5.980   1.684   4.045 -0.8664 -0.4116 -1.2218
14489TIP3   OH264881   2.081   3.327   1.500  0.1897 -0.2758 -0.2144
14489TIP3    H164882   2.066   3.247   1.449  0.1090 -0.7097  0.4751
14489TIP3    H264883   2.169   3.354   1.477  0.8957 -1.5797  0.8946
14490TIP3   OH264884   7.030   3.454   4.220 -0.3191  0.0073 -0.1449
14490TIP3    H164885   6.945   3.432   4.258 -1.0205  0.0135 -1.6611
14490TIP3    H264886   7.010   3.515   4.149  1.0628  0.8605  0.1821
14491TIP3   OH264887   0.990   4.449   4.101  0.2078 -0.1205  0.5589
14491TIP3    H164888   0.968   4.360   4.127 -0.6152 -0.0930 -0.0258
14491TIP3    H264889   0.962   4.503   4.175  0.3129 -0.3012  0.7309
14492TIP3   OH264890   2.061   4.366   0.218  0.0837  0.2993 -0.4669
14492TIP3    H164891   2.049   4.457   0.246 -0.5833  0.5299 -1.4598
14492TIP3    H264892   2.035   4.314   0.293  1.7872  0.9413  0.5888
14493TIP3   OH264893   6.162   1.145   5.355 -0.0208 -0.8227  0.2056
14493TIP3    H164894   6.157   1.137   5.450 -1.0511 -0.5356  0.1823
14493TIP3    H264895   6.215   1.070   5.327  1.9779  0.1843  1.1684
14494TIP3   OH264896   3.172   1.541   2.599 -0.1167  0.2139 -0.2552
14494TIP3    H164897   3.193   1.452   2.625  0.7606  0.4713 -0.0511
14494TIP3    H264898   3.251   1.572   2.553  0.0200  1.2670  0.6626
14495TIP3   OH264899   1.448   6.777   3.236  0.0502  0.0177 -0.0237
14495TIP3    H164900   1.356   6.793   3.218 -0.0942 -0.3663  0.3494
14495TIP3    H264901   1.458   6.799   3.329  0.0171 -1.2601  0.3050
14496TIP3   OH264902   2.864   6.683   3.347  0.4156 -0.4509 -0.2637
14496TIP3    H164903   2.831   6.771   3.333  0.9774 -0.1065  0.5950
14496TIP3    H264904   2.823   6.653   3.427  0.0357 -1.0674 -0.6826
14497TIP3   OH264905   5.301   4.851   2.205  0.1111  0.0106  0.2930
14497TIP3    H164906   5.329   4.940   2.187 -0.8221  0.4424  0.9360
14497TIP3    H264907   5.206   4.855   2.204  0.0382 -0.5950  2.0825
14498TIP3   OH264908   1.888   7.123   3.936  0.2462 -0.1573 -0.0110
14498TIP3    H164909   1.831   7.110   4.011  0.0650  0.6743 -0.0029
14498TIP3    H264910   1.940   7.201   3.957 -0.5706  0.7282 -1.2017
14499TIP3   OH264911   3.799   3.244   6.223 -0.2586  0.2953  0.1388
14499TIP3    H164912   3.864   3.310   6.201 -0.3807 -0.3289 -2.1881
14499TIP3    H264913   3.715   3.290   6.216 -0.2384  0.3694  0.3735
14500TIP3   OH264914   7.247   1.154   3.413  0.4524 -0.0181 -0.8082
14500TIP3    H164915   7.297   1.234   3.393 -0.5821  1.0441  0.7135
14500TIP3    H264916   7.160   1.170   3.376  0.7549 -1.2288 -2.1016
14501TIP3   OH264917   2.844   0.601   2.871  0.8695 -0.8768 -0.1903
14501TIP3    H164918   2.751   0.617   2.885  0.9729  0.5199 -0.9740
14501TIP3    H264919   2.855   0.507   2.884 -0.4717 -0.9014  0.8929
14502TIP3   OH264920   0.868   0.784   1.751  0.1720 -0.5819  0.3516
14502TIP3    H164921   0.886   0.878   1.760 -2.4466  0.0939 -1.1314
14502TIP3    H264922   0.789   0.769   1.802 -1.0131 -1.4051 -1.6601
14503TIP3   OH264923   4.820   1.378   3.920  0.1818 -0.4654  0.5055
14503TIP3    H164924   4.791   1.469   3.916 -1.5632 -1.0295 -0.1747
14503TIP3    H264925   4.872   1.374   4.000  0.6825  1.2382  0.2917
14504TIP3   OH264926   2.808   3.603  14.427 -0.2485  0.4356  0.3420
14504TIP3    H164927   2.885   3.594  14.371 -0.0460 -0.2204  0.7262
14504TIP3    H264928   2.786   3.696  14.423  2.1029  1.1114  2.2601
14505TIP3   OH264929   1.454   4.453   1.987 -0.1908 -0.1685 -0.2911
14505TIP3    H164930   1.425   4.438   2.077 -1.0536  0.0456 -0.5240
14505TIP3    H264931   1.547   4.474   1.994  0.7065 -3.9886  0.1960
14506TIP3   OH264932   1.608   1.091   5.793 -0.3524 -0.3655 -0.2221
14506TIP3    H164933   1.640   1.164   5.740 -1.2146  0.8563  0.9413
14506TIP3    H264934   1.669   1.086   5.866 -1.5116  0.5224  0.8055
14507TIP3   OH264935   1.546   1.194   0.555  0.3033  0.4767 -0.6513
14507TIP3    H164936   1.637   1.167   0.540  0.0144 -0.8255 -0.1266
14507TIP3    H264937   1.503   1.180   0.470  0.0252 -1.3098 -0.2404
14508TIP3   OH264938   4.819   0.258   2.201 -0.7253 -0.0718 -0.3664
14508TIP3    H164939   4.887   0.194   2.177 -0.2225  0.3719 -0.1228
14508TIP3    H264940   4.815   0.253   2.297 -0.8317  0.1142 -0.3616
14509TIP3   OH264941   4.741   2.154   3.516 -0.2518  0.1395 -0.1560
14509TIP3    H164942   4.827   2.177   3.551 -1.1188  1.9499  0.8866
14509TIP3    H264943   4.759   2.089   3.448  1.7550 -1.0637  1.4623
14510TIP3   OH264944   0.866   6.306   1.378 -0.1226 -0.0353 -0.3365
14510TIP3    H164945   0.782   6.260   1.365 -0.0351 -0.6281  1.1344
14510TIP3    H264946   0.909   6.258   1.448  0.6323  1.4174  0.2143
14511TIP3   OH264947   2.821   4.819   4.709 -0.2852 -0.2538 -0.2260
14511TIP3    H164948   2.869   4.756   4.762  0.0214  0.6377  0.5709
14511TIP3    H264949   2.730   4.788   4.710 -0.0480 -0.9395 -0.2257
14512TIP3   OH264950   6.605   2.748   0.732  0.7606  0.2409  0.4402
14512TIP3    H164951   6.684   2.702   0.704 -0.2926 -1.5330  0.2734
14512TIP3    H264952   6.551   2.753   0.652 -0.1115 -0.3456  0.9701
14513TIP3   OH264953   1.886   1.239   4.701  0.4654 -0.0984 -0.3400
14513TIP3    H164954   1.887   1.177   4.773  1.7245 -0.0758 -0.3301
14513TIP3    H264955   1.908   1.323   4.741 -0.4266  0.2120 -0.4876
14514TIP3   OH264956   1.627   3.624   1.864 -0.3603  0.5451  0.1249
14514TIP3    H164957   1.653   3.549   1.918  0.1454  0.5852 -0.0561
14514TIP3    H264958   1.697   3.688   1.878  0.3338  0.1354 -1.4280
14515TIP3   OH264959   2.562   3.626   5.585  0.4203  0.1757 -0.3072
14515TIP3    H164960   2.543   3.715   5.615  0.3206  0.8269 -2.2898
14515TIP3    H264961   2.556   3.630   5.490 -1.4392 -2.3737 -0.3530
14516TIP3   OH264962   5.602   2.397   3.810 -0.1900  0.3029 -0.5217
14516TIP3    H164963   5.663   2.324   3.821 -0.8684 -0.0056  1.3583
14516TIP3    H264964   5.654   2.474   3.834  0.4554  0.4370 -2.2820
14517TIP3   OH264965   1.312   4.762   0.925  0.5005  1.3434  0.0464
14517TIP3    H164966   1.280   4.752   0.835  1.9355 -0.2920 -0.3099
14517TIP3    H264967   1.407   4.762   0.918  0.7826 -2.9642  1.8496
14518TIP3   OH264968   3.217   1.974   1.119 -1.0646  0.0491 -0.8696
14518TIP3    H164969   3.266   1.912   1.066 -0.3738  0.0204 -0.2149
14518TIP3    H264970   3.172   1.920   1.184 -0.8513  0.1867 -0.6051
14519TIP3   OH264971   2.066   1.335   1.455  0.5484 -0.2999 -0.6568
14519TIP3    H164972   2.015   1.254   1.459  0.0360 -0.0422 -1.9692
14519TIP3    H264973   2.037   1.385   1.532  0.2590 -0.9908 -0.3088
14520TIP3   OH264974   2.352   4.660   0.252  0.5391  0.1508 -0.1682
14520TIP3    H164975   2.311   4.643   0.337  0.9298 -0.3832 -0.0865
14520TIP3    H264976   2.438   4.696   0.273  0.5722  0.1684 -0.3342
14521TIP3   OH264977   4.420   4.821   5.636  0.0094 -0.2422  0.0204
14521TIP3    H164978   4.498   4.864   5.603 -1.2729  1.4826 -0.8675
14521TIP3    H264979   4.379   4.886   5.693  0.5590 -2.0734  2.5813
14522TIP3   OH264980   2.823   5.275   2.004 -0.4886 -0.0871  0.4610
14522TIP3    H164981   2.833   5.207   2.071 -1.1939 -0.4457  0.2098
14522TIP3    H264982   2.760   5.336   2.040 -0.8862 -0.2920  0.1236
14523TIP3   OH264983   4.483   5.844   4.178 -0.5739 -0.3111  0.0037
14523TIP3    H164984   4.493   5.904   4.252 -3.3811 -0.7291  0.7691
14523TIP3    H264985   4.431   5.894   4.114  0.8810 -0.3525 -1.2451
14524TIP3   OH264986   4.596   7.293   1.261  0.1225  0.3476  0.5847
14524TIP3    H164987   4.508   7.260   1.240  0.0195 -1.7372  3.9364
14524TIP3    H264988   4.587   7.388   1.259 -1.3798  0.2029 -2.2751
14525TIP3   OH264989   2.886   0.945   4.589  0.1446  0.2753  0.0230
14525TIP3    H164990   2.792   0.956   4.600 -0.1460 -0.6573 -1.3879
14525TIP3    H264991   2.904   0.857   4.623  0.6522  0.7852  1.0880
14526TIP3   OH264992   1.524   3.199   2.315 -0.0088 -1.0587 -0.0245
14526TIP3    H164993   1.454   3.144   2.280 -0.0387 -1.4374  0.6162
14526TIP3    H264994   1.532   3.171   2.406 -0.7311  0.7179  0.6118
14527TIP3   OH264995   2.086   4.419   1.983  0.5315 -0.2037  0.6052
14527TIP3    H164996   2.097   4.438   2.076  0.8751 -1.1165  0.7508
14527TIP3    H264997   2.153   4.472   1.940  0.4800  0.0936  0.8877
14528TIP3   OH264998   2.217   2.570   0.813 -0.0361 -0.5785  0.2776
14528TIP3    H164999   2.135   2.606   0.847  0.0069 -0.3752  0.1642
14528TIP3    H265000   2.209   2.580   0.718  0.6508  0.5497  0.3410
14529TIP3   OH265001   3.414   2.926   4.787  0.2316 -0.2604 -0.2525
14529TIP3    H165002   3.324   2.939   4.819 -0.3270  0.1447 -1.9683
14529TIP3    H265003   3.467   2.983   4.843 -1.0125  2.2343 -1.5238
14530TIP3   OH265004   3.333   0.887   5.424  0.2926  0.6609  0.2500
14530TIP3    H165005   3.254   0.840   5.452  0.2201  0.6284 -0.0104
14530TIP3    H265006   3.313   0.979   5.442  1.1243  0.4347  2.4426
14531TIP3   OH265007   3.040   2.112   5.095 -0.3441 -0.4986 -0.2147
14531TIP3    H165008   2.973   2.142   5.034  1.3463  0.0978 -1.8020
14531TIP3    H265009   3.081   2.036   5.052  2.3075  1.2262 -0.8770
14532TIP3   OH265010   0.708   1.385   2.182  0.3600  0.4887 -0.4233
14532TIP3    H165011   0.640   1.402   2.117  1.5263  0.7611 -1.5955
14532TIP3    H265012   0.703   1.459   2.242 -0.5424  0.3769 -0.3527
14533TIP3   OH265013   6.791   2.663   3.544  0.5372  0.2635 -0.1881
14533TIP3    H165014   6.745   2.670   3.460 -1.1071  2.1200  0.8239
14533TIP3    H265015   6.808   2.569   3.554 -0.8507 -0.1819 -1.7619
14534TIP3   OH265016   1.488   3.366   1.832 -0.3260 -0.0731  0.4931
14534TIP3    H165017   1.478   3.462   1.829  0.1042 -0.0247  0.5074
14534TIP3    H265018   1.559   3.352   1.895 -0.2345 -0.3917  0.3195
14535TIP3   OH265019   3.003   0.720   3.791  0.1536  0.4665  0.3450
14535TIP3    H165020   2.982   0.627   3.801  0.8334  0.3553  0.7821
14535TIP3    H265021   2.938   0.753   3.729  1.9432 -1.0189 -2.4275
14536TIP3   OH265022   3.493   2.718   5.526 -0.5450 -0.0254 -0.1578
14536TIP3    H165023   3.538   2.790   5.482  0.6037 -1.1527 -0.8884
14536TIP3    H265024   3.400   2.736   5.513 -0.2817  1.7130  0.3248
14537TIP3   OH265025   0.943   2.754   0.942 -0.3057  0.0284 -0.4234
14537TIP3    H165026   0.889   2.679   0.917 -1.4150  0.6849 -0.0528
14537TIP3    H265027   1.018   2.751   0.882 -0.5822 -1.0843 -0.7295
14538TIP3   OH265028   3.407   3.576   0.885 -0.6131  0.1576 -0.0530
14538TIP3    H165029   3.326   3.583   0.936 -0.4139  0.9254  0.1614
14538TIP3    H265030   3.473   3.546   0.948 -0.4361  0.8072  0.0712
14539TIP3   OH265031   2.659   6.619   1.810 -0.0884 -0.1155 -0.3970
14539TIP3    H165032   2.732   6.561   1.787  0.3133  0.3673 -0.3566
14539TIP3    H265033   2.581   6.565   1.799  0.2198 -0.3939 -1.2500
14540TIP3   OH265034   5.177   2.988   2.762  0.0581  0.4031 -0.0370
14540TIP3    H165035   5.259   2.943   2.786 -0.9346 -1.0363  0.7694
14540TIP3    H265036   5.193   3.021   2.674  1.2446 -0.5543 -0.2056
14541TIP3   OH265037   5.203   4.689   3.191 -0.0896 -0.4377 -0.1010
14541TIP3    H165038   5.228   4.750   3.122  0.3066 -0.2287  0.2261
14541TIP3    H265039   5.232   4.731   3.272  0.0047 -0.9642  0.1414
14542TIP3   OH265040   2.078   1.965   4.250  0.4239  0.1081  0.2500
14542TIP3    H165041   2.149   1.902   4.254  1.1286  0.8441 -0.6385
14542TIP3    H265042   2.121   2.051   4.251 -0.2863  0.5611 -2.8361
14543TIP3   OH265043   1.373   0.066   1.884  0.8228  0.3316 -0.6080
14543TIP3    H165044   1.369  -0.030   1.884 -0.8295  0.3684  1.5302
14543TIP3    H265045   1.431   0.087   1.956  0.0686  0.9723 -0.1837
14544TIP3   OH265046   3.589   4.045   3.154 -0.1411 -0.1013  0.3892
14544TIP3    H165047   3.545   3.960   3.161  1.8228 -1.0087  2.4081
14544TIP3    H265048   3.603   4.073   3.244  0.3411  1.8047 -0.2449
14545TIP3   OH265049   3.873   1.375   2.373 -0.3204 -0.6208 -0.5216
14545TIP3    H165050   3.795   1.337   2.414  0.2763 -0.2876  0.9501
14545TIP3    H265051   3.840   1.446   2.318 -1.0127 -0.2726  0.3513
14546TIP3   OH265052   6.739   3.141   0.610 -0.2199  0.6384  0.4043
14546TIP3    H165053   6.645   3.151   0.627 -0.4805  0.3194 -0.7793
14546TIP3    H265054   6.771   3.087   0.681 -1.3338 -0.9726 -0.2851
14547TIP3   OH265055   4.034   1.078   2.965 -0.2450  0.3829  0.4838
14547TIP3    H165056   4.107   1.036   2.921 -1.1964  0.1886 -0.9596
14547TIP3    H265057   4.066   1.098   3.053  2.2053  2.1328 -0.7424
14548TIP3   OH265058   6.739   5.579   4.413  0.3551 -0.2627 -0.7939
14548TIP3    H165059   6.698   5.649   4.363  0.2485 -1.0172 -1.7916
14548TIP3    H265060   6.668   5.517   4.431 -0.0767  0.9988  2.1585
14549TIP3   OH265061   2.261   3.426   2.539 -0.6593 -0.3129 -0.4119
14549TIP3    H165062   2.303   3.347   2.575  0.3560 -0.6830 -2.3214
14549TIP3    H265063   2.174   3.427   2.580 -0.4867 -2.1143  0.0795
14550TIP3   OH265064   2.450   6.110   2.083 -0.4117 -0.4663 -1.0688
14550TIP3    H165065   2.486   6.178   2.027  0.9733 -0.5974 -0.3799
14550TIP3    H265066   2.492   6.125   2.168 -1.3308 -1.1828 -0.4832
14551TIP3   OH265067   4.017   1.097   2.653 -0.3593  0.2655  0.2405
14551TIP3    H165068   4.101   1.087   2.608 -1.6532 -0.0505 -2.1635
14551TIP3    H265069   4.004   1.013   2.698 -0.2299 -0.3437 -0.8486
14552TIP3   OH265070   5.590   1.041   1.696  0.2085 -0.7714  0.2825
14552TIP3    H165071   5.654   1.009   1.632 -0.1953 -1.6476  0.3005
14552TIP3    H265072   5.526   0.969   1.703 -0.1087 -0.4033  1.1702
14553TIP3   OH265073   5.229   5.655   0.887  0.2736 -0.2942  0.5014
14553TIP3    H165074   5.139   5.637   0.860  0.7934 -2.0356 -0.1287
14553TIP3    H265075   5.223   5.670   0.981 -0.7954  0.5166  0.3184
14554TIP3   OH265076   2.606   2.669   1.527 -0.0711 -0.0445  0.1616
14554TIP3    H165077   2.543   2.684   1.598 -0.5742  1.1265 -0.5313
14554TIP3    H265078   2.666   2.743   1.532  0.1956 -0.2292 -0.2982
14555TIP3   OH265079   4.241   0.601   4.383  0.0812  0.2905  0.2451
14555TIP3    H165080   4.290   0.524   4.355  1.8198  1.3653  0.3142
14555TIP3    H265081   4.242   0.596   4.478  0.3994  0.5395  0.2527
14556TIP3   OH265082   3.003   2.593   5.626 -0.1978  0.5003 -0.8366
14556TIP3    H165083   3.096   2.611   5.609  0.0145 -0.8462 -1.1881
14556TIP3    H265084   2.996   2.592   5.721 -0.0477  1.5429 -0.8093
14557TIP3   OH265085   6.622   4.195   1.435 -0.0407 -0.2427  0.0924
14557TIP3    H165086   6.581   4.269   1.391 -0.6150 -0.1243  0.8193
14557TIP3    H265087   6.590   4.118   1.388 -2.7205 -0.2848  1.9062
14558TIP3   OH265088   2.915   5.684   3.343 -0.1732 -0.0635 -0.3480
14558TIP3    H165089   2.887   5.679   3.252 -0.7718 -0.1630 -0.1623
14558TIP3    H265090   2.845   5.641   3.392 -1.7739  3.3007  0.5288
14559TIP3   OH265091   3.795   0.299   4.368 -0.3618 -0.4815  0.2897
14559TIP3    H165092   3.890   0.306   4.381 -0.3576 -0.8546  0.4605
14559TIP3    H265093   3.757   0.332   4.449 -0.3712 -0.7842  0.4074
14560TIP3   OH265094   2.483   3.058   5.447 -0.5058 -0.7402  0.6308
14560TIP3    H165095   2.516   3.091   5.531  0.8783  2.0764 -0.9300
14560TIP3    H265096   2.538   2.983   5.428  0.3464 -0.3333  1.4208
14561TIP3   OH265097   1.830   4.775   5.774  0.3072  0.2809 -0.2975
14561TIP3    H165098   1.872   4.751   5.856 -0.4357 -1.0294 -0.2893
14561TIP3    H265099   1.746   4.730   5.776  0.6319 -0.4471 -2.1503
14562TIP3   OH265100   0.092   1.245  15.514 -0.0241  0.2334  0.1020
14562TIP3    H165101   0.099   1.320  15.454  1.6227  1.8104  2.1617
14562TIP3    H265102   0.183   1.215  15.524 -0.2194  0.2300  2.0436
14563TIP3   OH265103   4.881   0.267   1.455  0.3915 -0.8294  0.1918
14563TIP3    H165104   4.855   0.302   1.370 -0.3231 -1.4605  0.1416
14563TIP3    H265105   4.975   0.253   1.447  0.5646  0.4188 -0.0155
14564TIP3   OH265106   5.832   1.258   4.841 -0.3455 -0.0631  0.3939
14564TIP3    H165107   5.814   1.190   4.777 -2.0761  0.4831  0.2823
14564TIP3    H265108   5.748   1.275   4.884 -0.0391  2.2284  0.1846
14565TIP3   OH265109   4.687   2.817   0.547  0.2182  0.4597  0.0780
14565TIP3    H165110   4.627   2.810   0.622  0.8410 -0.3865  0.5094
14565TIP3    H265111   4.660   2.746   0.489 -0.1359  0.9933 -0.4093
14566TIP3   OH265112   4.032   6.791   2.882  0.2621 -0.1302 -0.3618
14566TIP3    H165113   4.010   6.817   2.972 -1.0353 -3.0568  0.2143
14566TIP3    H265114   4.128   6.793   2.880  0.2852  1.6261  0.5284
14567TIP3   OH265115   4.998   5.502   4.194  0.0996 -0.0818 -0.1180
14567TIP3    H165116   4.930   5.508   4.262 -0.5372  0.6238 -0.8077
14567TIP3    H265117   5.013   5.408   4.184 -0.6709 -0.2412  0.1605
14568TIP3   OH265118   2.837   0.470  15.855  1.1332  0.2067 -0.2657
14568TIP3    H165119   2.916   0.418  15.870 -0.0531 -1.7674 -0.6937
14568TIP3    H265120   2.862   0.532  15.787  2.0100 -1.1038 -1.1560
14569TIP3   OH265121   0.472   4.919   1.269  0.1843  0.3608  0.6787
14569TIP3    H165122   0.429   4.948   1.349 -2.0873 -0.5592 -0.1778
14569TIP3    H265123   0.562   4.901   1.296 -0.1205  1.6206  2.6607
14570TIP3   OH265124   2.321   2.646   3.651  0.0650 -0.0479 -0.3928
14570TIP3    H165125   2.301   2.553   3.661 -1.8248  0.3424 -0.2165
14570TIP3    H265126   2.312   2.682   3.739  2.1997  0.0621 -0.2077
14571TIP3   OH265127   3.888   4.005   4.173 -0.5987  0.4356  0.3832
14571TIP3    H165128   3.868   4.084   4.122  1.3998  0.3161 -0.6323
14571TIP3    H265129   3.975   4.021   4.209 -0.0107 -1.4482 -0.1375
14572TIP3   OH265130   2.752   5.280   1.482 -0.6459 -0.3863 -0.5216
14572TIP3    H165131   2.801   5.205   1.515  0.7249  0.4637 -0.5904
14572TIP3    H265132   2.745   5.265   1.388  0.7447  0.1663 -0.7381
14573TIP3   OH265133   1.181   2.843   5.645 -0.4706  0.0731 -0.0781
14573TIP3    H165134   1.142   2.773   5.698  0.5279 -0.1120  0.4260
14573TIP3    H265135   1.106   2.892   5.612 -1.1963 -1.5790 -0.9255
14574TIP3   OH265136   3.225   4.447  15.096 -0.1780  0.1923 -0.4020
14574TIP3    H165137   3.267   4.468  15.179 -2.0982 -0.3825  0.7247
14574TIP3    H265138   3.296   4.412  15.042  0.7321 -1.1256  1.6072
14575TIP3   OH265139   6.316   4.602   2.976 -0.2707  0.2903 -0.6804
14575TIP3    H165140   6.336   4.695   2.967  0.2363  0.0168 -2.5970
14575TIP3    H265141   6.221   4.599   2.988 -0.2378  1.0599 -0.1985
14576TIP3   OH265142   1.052   1.020  13.796  0.1939 -0.4720 -0.0790
14576TIP3    H165143   1.132   1.033  13.745 -1.3642  1.2213 -2.1593
14576TIP3    H265144   1.002   0.955  13.747 -1.3045  1.1412 -0.7121
14577TIP3   OH265145   2.013   6.716   4.874  0.0630 -0.2189 -0.2866
14577TIP3    H165146   2.000   6.810   4.859  0.6399  0.0534  0.7940
14577TIP3    H265147   2.042   6.682   4.790 -0.9298  0.4251 -0.8957
14578TIP3   OH265148   3.141   4.084   3.475 -0.4943 -0.7903  0.3643
14578TIP3    H165149   3.082   4.077   3.550 -0.4274  0.0658  0.4962
14578TIP3    H265150   3.116   4.166   3.432  0.2968 -0.6548  0.1605
14579TIP3   OH265151   4.944   0.305   5.661  0.3558 -0.2456  0.1261
14579TIP3    H165152   4.864   0.280   5.708  0.8776  0.9821  1.7225
14579TIP3    H265153   4.940   0.401   5.656  1.3457 -0.2296 -0.4727
14580TIP3   OH265154   0.527   2.512   4.460  0.0756  0.4400 -0.0524
14580TIP3    H165155   0.573   2.459   4.394 -0.3232  1.1430 -0.9065
14580TIP3    H265156   0.558   2.601   4.446  2.0062  0.2099  2.4844
14581TIP3   OH265157   2.846   2.763   2.878 -0.2022 -0.1919  0.3224
14581TIP3    H165158   2.754   2.752   2.856  0.0300 -0.2058 -0.6448
14581TIP3    H265159   2.889   2.784   2.795  0.7242 -0.5445  0.7049
14582TIP3   OH265160   1.515   3.380   5.193 -0.0799 -0.1028 -0.0900
14582TIP3    H165161   1.429   3.381   5.151  0.2656 -1.5452 -0.8544
14582TIP3    H265162   1.499   3.417   5.280 -1.0749  1.5840 -0.9498
14583TIP3   OH265163   4.560   3.309   3.611 -0.6237 -0.0668  0.4004
14583TIP3    H165164   4.571   3.397   3.647  1.8405 -0.3406  0.4438
14583TIP3    H265165   4.471   3.284   3.637 -0.9431  1.9402  1.4045
14584TIP3   OH265166   0.402   3.900   4.781 -0.0963  0.3671  0.5557
14584TIP3    H165167   0.378   3.812   4.810 -0.0591  0.7851  1.8818
14584TIP3    H265168   0.425   3.947   4.861 -0.5117  1.7111 -0.0880
14585TIP3   OH265169   4.595   4.385   3.409  0.0653 -0.0852 -0.1720
14585TIP3    H165170   4.621   4.476   3.398 -0.1225 -0.2414 -2.0974
14585TIP3    H265171   4.501   4.384   3.388 -0.3519 -0.4364  1.5784
14586TIP3   OH265172   5.510   4.140   1.680 -0.7082 -0.1873 -0.0874
14586TIP3    H165173   5.471   4.068   1.729  0.1018  0.2524  1.2406
14586TIP3    H265174   5.590   4.103   1.643 -0.3943 -0.0431  0.4315
14587TIP3   OH265175   7.142   6.235   3.800  0.5042 -0.1234 -0.1446
14587TIP3    H165176   7.150   6.242   3.895 -1.8591  0.8715 -0.0012
14587TIP3    H265177   7.203   6.301   3.766 -0.2478  1.0113  0.7133
14588TIP3   OH265178   1.045   5.100   2.022 -0.1686  0.4272 -0.0421
14588TIP3    H165179   0.979   5.035   2.043  1.0287  0.0296  2.7435
14588TIP3    H265180   1.006   5.183   2.047 -0.7931  0.5541 -1.3866
14589TIP3   OH265181   0.059   5.714   3.221 -0.5537 -0.2637 -0.1321
14589TIP3    H165182   0.057   5.808   3.240  0.4358 -0.2646  0.0134
14589TIP3    H265183   0.042   5.672   3.305  0.8175 -0.2327  0.1665
14590TIP3   OH265184   6.445   1.990   5.114 -0.1954  0.6947  0.4878
14590TIP3    H165185   6.522   1.971   5.061 -0.1987 -1.4728  1.2159
14590TIP3    H265186   6.477   1.992   5.204 -0.8298  0.6585  0.7167
14591TIP3   OH265187   3.063   5.223   5.363 -0.3681 -0.8700  0.2141
14591TIP3    H165188   3.038   5.262   5.279  0.3473 -0.2449  0.2910
14591TIP3    H265189   3.037   5.288   5.428 -0.2262 -1.0221  0.4230
14592TIP3   OH265190   1.684   3.045   2.994 -0.0418 -0.3335  0.0360
14592TIP3    H165191   1.737   3.113   2.951  0.6761 -0.8322  0.1157
14592TIP3    H265192   1.653   3.085   3.074 -0.2788  0.1642 -0.3022
14593TIP3   OH265193   3.308   1.652   4.080  0.0199  0.4307 -0.2320
14593TIP3    H165194   3.388   1.638   4.131 -1.3565  0.0863  1.9092
14593TIP3    H265195   3.273   1.564   4.065 -0.6070  0.6453 -0.0659
14594TIP3   OH265196   1.464   4.412   5.580 -0.3255  0.2864  0.2591
14594TIP3    H165197   1.404   4.425   5.653 -0.0126 -0.7905  0.7293
14594TIP3    H265198   1.419   4.349   5.523  0.7375 -1.2538  1.0878
14595TIP3   OH265199   4.545   4.930   3.490  0.4452  0.2717  0.0941
14595TIP3    H165200   4.561   4.930   3.395  0.7102  0.0246  0.1375
14595TIP3    H265201   4.452   4.947   3.499  0.7328  2.0464 -0.1651
14596TIP3   OH265202   2.434   2.396   4.264  0.8214 -0.2550  0.1739
14596TIP3    H165203   2.386   2.451   4.326 -2.0530 -1.3265 -1.0007
14596TIP3    H265204   2.505   2.358   4.315 -0.6505 -0.0249  2.4727
14597TIP3   OH265205   2.625   1.637   3.765 -0.3661  0.0024 -0.0000
14597TIP3    H165206   2.611   1.670   3.676 -0.8365  0.4490  0.2332
14597TIP3    H265207   2.715   1.661   3.786 -0.6512  1.0331  0.1072
14598TIP3   OH265208   1.625   1.548   5.291 -0.0789  0.0316  0.0794
14598TIP3    H165209   1.682   1.624   5.281 -1.0657  1.0320  1.8079
14598TIP3    H265210   1.596   1.552   5.383 -0.7207 -2.0150 -0.0113
14599TIP3   OH265211   1.100   2.721   4.442 -0.3738 -0.0953  0.6213
14599TIP3    H165212   1.108   2.741   4.535 -1.9188  1.3668  0.4717
14599TIP3    H265213   1.124   2.803   4.398  2.0561 -1.2903 -0.3416
14600TIP3   OH265214   2.313   3.142   1.766 -0.5065 -0.1438 -0.0768
14600TIP3    H165215   2.320   3.231   1.799  0.2306 -0.4336  0.5882
14600TIP3    H265216   2.227   3.112   1.796 -2.0033  1.2956 -2.7793
14601TIP3   OH265217   0.457   5.008   4.492  0.2251  0.7018 -0.0420
14601TIP3    H165218   0.461   4.915   4.470  1.7995  0.7198  0.0523
14601TIP3    H265219   0.393   5.014   4.562 -0.8676 -0.1175 -0.9594
14602TIP3   OH265220   3.161   3.884   1.052  0.2826 -0.2316 -0.2552
14602TIP3    H165221   3.211   3.897   1.132 -1.4165 -2.5185  1.2422
14602TIP3    H265222   3.190   3.799   1.019 -0.1756 -0.0262 -1.2079
14603TIP3   OH265223   2.968   1.747   2.488  0.4491 -0.0859 -0.5154
14603TIP3    H165224   2.999   1.795   2.411 -0.2982 -0.6025 -1.1605
14603TIP3    H265225   3.039   1.753   2.551  2.0634 -1.5762 -2.1014
14604TIP3   OH265226   3.688   3.365   2.575  0.2801 -0.4128 -0.2227
14604TIP3    H165227   3.701   3.321   2.659  1.8689  0.4511  0.0028
14604TIP3    H265228   3.594   3.363   2.562 -0.1305  0.6714  2.2517
14605TIP3   OH265229   2.626   0.929   3.978 -0.3017 -0.4682  0.0576
14605TIP3    H165230   2.553   0.893   4.029  0.5680 -0.6141  1.2197
14605TIP3    H265231   2.688   0.960   4.044 -0.6027  2.3542 -0.9037
14606TIP3   OH265232   5.304   3.842   1.046 -0.2335  0.2002  0.0488
14606TIP3    H165233   5.268   3.801   1.125 -0.1308 -0.1309 -0.0731
14606TIP3    H265234   5.355   3.772   1.005  3.2454  1.5190  1.8946
14607TIP3   OH265235   2.284   1.716   4.725  0.0044 -0.4632 -0.2951
14607TIP3    H165236   2.335   1.796   4.738  0.2658 -0.7032  0.1624
14607TIP3    H265237   2.328   1.650   4.779 -0.3641 -0.8500 -0.4634
14608TIP3   OH265238   4.484   2.978   5.242  0.2303 -0.0114 -0.2456
14608TIP3    H165239   4.428   2.995   5.318 -0.8519 -2.6145 -0.4233
14608TIP3    H265240   4.573   2.973   5.279 -0.1275  0.0196  0.6365
14609TIP3   OH265241   0.837   6.548   4.872  0.3526  0.3036  0.0701
14609TIP3    H165242   0.838   6.557   4.776 -2.3541  0.2888  0.0142
14609TIP3    H265243   0.829   6.637   4.904  0.9647  0.2794  0.3087
14610TIP3   OH265244   3.743   5.923  14.922 -0.5250 -0.2149 -0.3422
14610TIP3    H165245   3.655   5.888  14.911  0.4965 -2.6593 -1.1723
14610TIP3    H265246   3.762   5.966  14.839 -0.7724 -0.0216 -0.3012
14611TIP3   OH265247   2.590   5.482   1.565 -0.6297  0.1064  0.0105
14611TIP3    H165248   2.650   5.531   1.621 -1.2481 -0.0601  0.8130
14611TIP3    H265249   2.639   5.402   1.542 -0.7461 -0.2856  1.1087
14612TIP3   OH265250   0.648   0.288   3.077  0.1619 -0.4657  0.1193
14612TIP3    H165251   0.678   0.372   3.110 -0.0731 -0.1895 -0.3742
14612TIP3    H265252   0.569   0.308   3.027 -0.5588 -1.1200  0.9667
14613TIP3   OH265253   5.302   5.792   4.729  0.1499 -0.3248 -0.0366
14613TIP3    H165254   5.395   5.776   4.742 -0.1305 -1.9667  0.1228
14613TIP3    H265255   5.297   5.848   4.652  1.2893  0.3067  0.3324
14614TIP3   OH265256   4.271   3.572   5.393  0.4237  0.3018  0.3947
14614TIP3    H165257   4.233   3.657   5.372  0.7732 -0.1245 -2.1208
14614TIP3    H265258   4.339   3.591   5.458 -0.3322  1.7745  0.7603
14615TIP3   OH265259   3.423   3.208   3.453 -0.4064 -0.6312  0.2999
14615TIP3    H165260   3.414   3.125   3.498  1.0330 -1.2294 -0.4698
14615TIP3    H265261   3.335   3.230   3.423 -0.5053 -2.8177 -1.0939
14616TIP3   OH265262   4.218   4.195   1.405 -0.0089  0.8969 -0.2398
14616TIP3    H165263   4.208   4.188   1.310  0.1415  1.1129 -0.2732
14616TIP3    H265264   4.302   4.239   1.417 -0.4871  1.7630 -0.0288
14617TIP3   OH265265   1.616   2.465   5.161  0.0134 -0.4584  0.1988
14617TIP3    H165266   1.626   2.420   5.244  2.0463  0.1541  0.3101
14617TIP3    H265267   1.666   2.413   5.099  1.2277  0.8425  0.0460
14618TIP3   OH265268   5.795   2.341   3.545 -0.1848 -0.0792 -0.9382
14618TIP3    H165269   5.788   2.392   3.465  0.2038 -0.5365 -1.2647
14618TIP3    H265270   5.815   2.252   3.515  1.3391  0.0289 -0.2709
14619TIP3   OH265271   4.624   4.993   0.563 -0.3830 -0.1215 -0.2501
14619TIP3    H165272   4.538   5.027   0.589  0.4718  2.6667 -0.9008
14619TIP3    H265273   4.628   5.009   0.469  1.7144  1.8755  0.1372
14620TIP3   OH265274   3.687   4.668   4.075  0.2084 -0.0402  0.7705
14620TIP3    H165275   3.669   4.578   4.104  2.1780 -1.3010 -1.7112
14620TIP3    H265276   3.769   4.691   4.119 -0.4965  0.7158  1.7080
14621TIP3   OH265277   3.077   3.275   4.906 -0.2961  0.1134  0.1936
14621TIP3    H165278   3.013   3.220   4.950 -0.9147  0.5584 -0.1508
14621TIP3    H265279   3.049   3.364   4.925 -0.6769  0.3031 -1.2727
14622TIP3   OH265280   2.371   6.617   1.536 -0.0731 -0.1441 -0.1915
14622TIP3    H165281   2.291   6.663   1.510 -0.1606  1.4571  2.6859
14622TIP3    H265282   2.430   6.687   1.565  1.9629 -1.4150 -1.2035
14623TIP3   OH265283   1.385   2.060   5.099  0.1593  0.8223 -0.0655
14623TIP3    H165284   1.442   2.106   5.160 -0.0022  0.1712  0.5731
14623TIP3    H265285   1.385   2.115   5.020  0.3702  1.6543  0.5129
14624TIP3   OH265286   4.710   1.071   1.904  0.3160 -0.0195  0.9024
14624TIP3    H165287   4.774   1.136   1.930 -0.3275  0.1575  2.0819
14624TIP3    H265288   4.625   1.112   1.922 -0.1173 -0.4572 -0.1105
14625TIP3   OH265289   6.501   3.923   4.754  0.3215  0.1377  0.0087
14625TIP3    H165290   6.425   3.939   4.698  0.6054 -0.7186 -0.6289
14625TIP3    H265291   6.547   3.851   4.712  0.8445 -0.1451  1.0443
14626TIP3   OH265292   6.098   3.713   4.267  0.1109  0.2039  0.5529
14626TIP3    H165293   6.010   3.677   4.260  0.6909 -1.0790 -0.2577
14626TIP3    H265294   6.095   3.793   4.214 -0.5235  0.1107  0.4419
14627TIP3   OH265295   4.000   4.105   2.593  0.1852 -0.3271 -0.0803
14627TIP3    H165296   4.010   4.187   2.546 -0.5525 -0.1765  0.0240
14627TIP3    H265297   3.974   4.130   2.682  1.4248 -0.6156  0.3734
14628TIP3   OH265298   2.940   6.541   4.643 -0.4341  0.4472 -0.1132
14628TIP3    H165299   2.862   6.586   4.677 -1.9122 -1.3323 -1.0044
14628TIP3    H265300   2.938   6.455   4.686  0.3568 -0.0443 -1.0442
14629TIP3   OH265301   1.240   5.236   5.442  0.1822  0.4092 -0.1517
14629TIP3    H165302   1.294   5.162   5.414  0.2416 -0.3165  1.7613
14629TIP3    H265303   1.168   5.195   5.491 -0.5033  1.5477 -0.1801
14630TIP3   OH265304   1.746   2.931   5.002 -0.1071 -0.1030 -0.2940
14630TIP3    H165305   1.824   2.948   5.055 -1.5049  0.0360  1.7920
14630TIP3    H265306   1.720   3.017   4.970 -0.9626  0.2564  1.3028
14631TIP3   OH265307   0.441   2.733   5.148  0.1956 -0.2034  0.5692
14631TIP3    H165308   0.523   2.778   5.168 -0.8618  1.9575  0.2029
14631TIP3    H265309   0.441   2.725   5.052  0.3987 -1.0798  0.6321
14632TIP3   OH265310   5.553   3.783   3.819 -0.5399 -0.2437  0.5190
14632TIP3    H165311   5.583   3.802   3.730  0.7112 -0.4945  0.8873
14632TIP3    H265312   5.503   3.702   3.810  1.4944 -1.5015  0.4244
14633TIP3   OH265313   2.711   7.252   1.553 -0.3952  0.0424 -0.0160
14633TIP3    H165314   2.784   7.314   1.545 -1.1327  0.7344 -1.6604
14633TIP3    H265315   2.747   7.180   1.606  1.1403  0.8570  0.1032
14634TIP3   OH265316   1.488   1.968   3.712 -0.2106  0.5457  0.2165
14634TIP3    H165317   1.492   1.885   3.664 -1.2492  1.5975 -1.7520
14634TIP3    H265318   1.575   1.979   3.749 -0.5493 -2.2786  1.9923
14635TIP3   OH265319   3.109   5.500  14.233  0.5145 -0.2943 -0.4761
14635TIP3    H165320   3.091   5.407  14.245  2.5623 -0.9913 -2.3260
14635TIP3    H265321   3.093   5.515  14.140  1.1308  0.9587 -0.3908
14636TIP3   OH265322   0.044   1.698   3.137 -0.2723 -0.1669 -0.5294
14636TIP3    H165323   0.022   1.605   3.125  0.7418 -0.4029 -0.6231
14636TIP3    H265324  -0.001   1.743   3.065  0.1355 -0.7291 -1.1483
14637TIP3   OH265325   2.300   2.852   2.188 -0.0968  0.1597 -0.2851
14637TIP3    H165326   2.227   2.793   2.205 -0.3544  0.3315 -0.7819
14637TIP3    H265327   2.332   2.826   2.101  1.3398 -0.8594  0.5283
14638TIP3   OH265328   7.117   2.803   2.616 -0.0300 -0.0048  0.4505
14638TIP3    H165329   7.111   2.719   2.662 -0.6626 -0.8060 -1.0795
14638TIP3    H265330   7.128   2.867   2.686  2.0552 -1.4934  1.5705
14639TIP3   OH265331   2.385   4.020   3.381 -0.0675 -0.2532  0.0066
14639TIP3    H165332   2.341   3.939   3.356  1.0457 -0.5404 -1.0836
14639TIP3    H265333   2.476   4.008   3.352  0.6562  0.4517  1.9157
14640TIP3   OH265334   0.100   4.261   4.542  0.6312  0.1632  0.5572
14640TIP3    H165335   0.072   4.322   4.610 -0.5268 -0.6981  0.8653
14640TIP3    H265336   0.137   4.187   4.589  1.5008  0.3596  0.1984
14641TIP3   OH265337   2.423   1.663   0.114  0.0832  0.3709 -0.3535
14641TIP3    H165338   2.443   1.732   0.178  2.6965 -0.9231  0.3111
14641TIP3    H265339   2.500   1.605   0.117 -1.5555 -1.9419 -1.7268
14642TIP3   OH265340   1.888   5.051   2.062 -0.2853 -0.5785 -0.5682
14642TIP3    H165341   1.971   5.098   2.072 -1.6595  1.2880  3.0187
14642TIP3    H265342   1.830   5.114   2.018 -1.3983  0.3138  2.0430
14643TIP3   OH265343   2.413   0.854   3.091  0.4550  0.1513  0.2028
14643TIP3    H165344   2.421   0.949   3.082  0.3813  0.2382  1.0118
14643TIP3    H265345   2.360   0.842   3.170  1.4599 -0.5765  0.7779
14644TIP3   OH265346   4.385   2.497   3.680  0.6079 -0.6400 -0.3584
14644TIP3    H165347   4.437   2.445   3.619  1.4354  1.4241 -1.4655
14644TIP3    H265348   4.299   2.505   3.638  0.1381 -1.9875  0.3206
14645TIP3   OH265349   0.273   2.158   2.972 -0.1905  0.3897  0.0108
14645TIP3    H165350   0.236   2.243   2.951  1.6326  1.3498  0.5417
14645TIP3    H265351   0.242   2.139   3.060 -0.5261  0.5592 -0.0721
14646TIP3   OH265352   7.036   3.941   1.458  0.5727  0.1469  0.6184
14646TIP3    H165353   7.001   4.023   1.424 -1.5801 -1.0905 -0.2608
14646TIP3    H265354   7.022   3.878   1.388  2.5085 -0.9307  1.1468
14647TIP3   OH265355   2.034   4.085   3.403  0.9622  0.3117 -0.6479
14647TIP3    H165356   2.103   4.109   3.465  0.3315  0.3768  0.0383
14647TIP3    H265357   2.012   3.995   3.425  0.0390  0.6609 -0.1092
14648TIP3   OH265358   7.262   2.254   2.805  0.0124 -0.3690  0.6424
14648TIP3    H165359   7.317   2.211   2.741 -0.5823 -0.4425  0.1745
14648TIP3    H265360   7.251   2.189   2.875 -0.6893 -0.8965  0.0488
14649TIP3   OH265361   0.926   2.656   0.290  0.3623 -0.1317 -0.2729
14649TIP3    H165362   0.964   2.578   0.250  0.6014 -0.3963  0.4577
14649TIP3    H265363   0.936   2.641   0.384  0.6858  0.9234 -0.1368
14650TIP3   OH265364   2.240   4.607   1.840 -0.6016  0.2358  0.2723
14650TIP3    H165365   2.254   4.698   1.864  0.9165 -0.0027  0.3096
14650TIP3    H265366   2.198   4.611   1.754  1.2486  0.9409 -0.6142
14651TIP3   OH265367   0.087   3.710   4.975 -0.1603 -0.0167 -0.2519
14651TIP3    H165368   0.003   3.739   4.938 -0.0599 -1.3800 -1.6311
14651TIP3    H265369   0.150   3.721   4.904  0.4667 -0.7120  0.1837
14652TIP3   OH265370   2.307   4.500   3.164  0.0602  0.5389  0.1420
14652TIP3    H165371   2.350   4.448   3.232  0.6759 -2.6128 -2.5209
14652TIP3    H265372   2.231   4.539   3.207  1.0827 -0.4282  2.8951
14653TIP3   OH265373   1.697   3.400   0.862  0.1649 -0.1018  0.0147
14653TIP3    H165374   1.613   3.403   0.907  0.8477  1.2988  1.2322
14653TIP3    H265375   1.678   3.360   0.778 -1.5306 -0.7454  0.6980
14654TIP3   OH265376   5.048   1.716   5.405  0.2580 -0.0687  0.2497
14654TIP3    H165377   5.073   1.665   5.327 -1.8784  0.0603 -0.5600
14654TIP3    H265378   5.051   1.652   5.477  1.2430 -0.4329 -0.0985
14655TIP3   OH265379   3.401   4.795   2.912 -0.6958 -0.2222  0.1323
14655TIP3    H165380   3.380   4.701   2.919  0.5359 -0.4651  0.7376
14655TIP3    H265381   3.496   4.798   2.918 -0.7969  1.1678  1.3131
14656TIP3   OH265382   1.691   6.567   2.145 -0.0042 -0.0910  0.1673
14656TIP3    H165383   1.656   6.619   2.217 -0.0482 -0.3665  0.3454
14656TIP3    H265384   1.773   6.531   2.180 -0.1372 -0.4057  0.1586
14657TIP3   OH265385   1.433   2.383   3.705  0.3266 -0.3645  0.2114
14657TIP3    H165386   1.510   2.330   3.686 -0.7317 -1.7518 -0.2867
14657TIP3    H265387   1.439   2.401   3.799  2.1180  0.9482 -0.1338
14658TIP3   OH265388   1.019   4.717   1.859  0.0743 -0.2381 -0.3406
14658TIP3    H165389   0.996   4.652   1.926 -3.4403 -0.3003 -1.5164
14658TIP3    H265390   1.101   4.684   1.822  1.5834 -0.7369  3.1886
14659TIP3   OH265391   3.314   0.552   5.611 -0.5245 -0.5932  0.2567
14659TIP3    H165392   3.308   0.482   5.546  0.5762 -0.8430  0.4200
14659TIP3    H265393   3.305   0.633   5.560 -0.9891 -0.8250 -0.0320
14660TIP3   OH265394   2.257   2.888   5.086  0.7042 -0.1241  0.1789
14660TIP3    H165395   2.330   2.948   5.100  0.3881  0.2167  0.3488
14660TIP3    H265396   2.186   2.922   5.141  0.7740 -1.0922  0.8876
14661TIP3   OH265397   4.527   3.662   2.183  0.0000 -0.1802 -0.1716
14661TIP3    H165398   4.596   3.652   2.249 -0.2985  0.8233  0.2967
14661TIP3    H265399   4.573   3.665   2.100  0.1715 -5.6342 -0.4647
14662TIP3   OH265400   0.287   2.496   3.433  0.0228  0.1176 -0.5677
14662TIP3    H165401   0.278   2.479   3.339  1.7349 -3.1482 -0.1937
14662TIP3    H265402   0.246   2.421   3.475  1.3192  0.4280  1.2981
14663TIP3   OH265403   5.079   4.970   2.951  0.5100 -0.0838  0.0105
14663TIP3    H165404   5.087   4.878   2.923 -0.5195 -1.2231  3.2696
14663TIP3    H265405   5.168   5.004   2.947  1.0051 -1.4058 -0.5730
14664TIP3   OH265406   6.092   5.073   2.719  0.0501  0.1367  0.4898
14664TIP3    H165407   6.185   5.050   2.711 -0.2110 -0.9914  0.5674
14664TIP3    H265408   6.076   5.133   2.647  0.7822  0.1498  0.3297
14665TIP3   OH265409   6.610   4.555   3.380  0.0903  0.3880 -0.0049
14665TIP3    H165410   6.543   4.488   3.361  0.4645  0.1301 -0.4360
14665TIP3    H265411   6.568   4.638   3.357 -0.0849  0.2238 -0.2878
14666TIP3   OH265412   2.886   2.809   3.639  0.7320  0.0085 -0.0625
14666TIP3    H165413   2.876   2.719   3.609 -0.1824  0.0289  0.1912
14666TIP3    H265414   2.809   2.826   3.693  1.0242  0.8581  0.0957
14667TIP3   OH265415   3.030   4.046   4.871 -0.5621 -0.1129  0.2167
14667TIP3    H165416   3.093   3.974   4.860 -1.2439 -0.9369  1.6506
14667TIP3    H265417   2.951   4.004   4.905 -0.6198  1.4683  2.1226
14668TIP3   OH265418   1.259   6.425   4.707  0.2159 -0.8964 -0.5372
14668TIP3    H165419   1.190   6.378   4.659  1.2525 -0.4959 -2.4667
14668TIP3    H265420   1.233   6.517   4.701  0.1542 -0.8756  0.0170
14669TIP3   OH265421   2.823   7.175   2.090  0.0011 -0.2007 -0.2869
14669TIP3    H165422   2.837   7.268   2.110  0.2765  0.1705 -2.1048
14669TIP3    H265423   2.728   7.165   2.090 -0.0902  0.5739 -2.1800
14670TIP3   OH265424   6.347   4.249  13.445  0.2526  0.6481 -0.4078
14670TIP3    H165425   6.309   4.317  13.390  3.0779  0.8534 -2.2339
14670TIP3    H265426   6.412   4.295  13.498  0.3220 -0.2012  0.2490
14671TIP3   OH265427   0.056   2.772   2.753  0.2990 -0.0058 -0.2678
14671TIP3    H165428   0.054   2.857   2.708 -0.0395  0.5315  0.7292
14671TIP3    H265429   0.014   2.790   2.838 -1.1846 -1.5493 -0.6637
14672TIP3   OH265430   2.615   3.299   3.598  0.6009 -0.3906  0.4445
14672TIP3    H165431   2.652   3.297   3.510  0.3671  0.6586  0.3153
14672TIP3    H265432   2.669   3.361   3.647  1.1553 -1.4934  1.2398
14673TIP3   OH265433   6.331   5.991   1.252 -0.2787  0.0389 -0.0008
14673TIP3    H165434   6.308   5.946   1.334 -0.0230 -0.1671 -0.0395
14673TIP3    H265435   6.362   5.921   1.195 -1.1999  0.0751 -0.5490
14674TIP3   OH265436   3.095   4.790   2.824  0.2466 -0.0462  0.2342
14674TIP3    H165437   3.105   4.825   2.736 -0.8446  0.4996  0.3202
14674TIP3    H265438   3.175   4.740   2.839  0.3083 -0.3898 -1.1782
14675TIP3   OH265439   1.981   3.003   1.463 -0.1338 -0.1964  0.3260
14675TIP3    H165440   1.949   2.928   1.413 -2.8099  0.5968  0.7731
14675TIP3    H265441   2.076   2.998   1.456 -0.2799 -3.3292 -0.0903
14676TIP3   OH265442   3.890   7.081   4.262  0.6158 -0.1372 -0.2750
14676TIP3    H165443   3.872   7.175   4.271 -0.1202 -0.5128  2.7603
14676TIP3    H265444   3.901   7.050   4.352  2.7113 -2.6284 -1.3070
14677TIP3   OH265445   4.270   2.696   4.704 -0.4079 -0.2977 -0.3329
14677TIP3    H165446   4.295   2.606   4.683  0.3972 -0.3230  0.6648
14677TIP3    H265447   4.184   2.688   4.744 -0.3875 -0.6220 -0.3459
14678TIP3   OH265448   2.984   6.710   1.295 -0.1241 -0.0075  0.7527
14678TIP3    H165449   2.995   6.732   1.388 -0.7417  0.1468  0.7912
14678TIP3    H265450   3.027   6.782   1.249 -1.0883  0.6758  0.9011
14679TIP3   OH265451   4.264   2.173   3.063  0.0675 -0.2226 -0.3642
14679TIP3    H165452   4.287   2.196   3.153  0.8650  0.3613 -0.7128
14679TIP3    H265453   4.319   2.097   3.043 -0.6510 -0.8157 -0.1101
14680TIP3   OH265454   4.076   3.261   0.248  0.0011  0.1944 -0.1505
14680TIP3    H165455   4.021   3.333   0.218 -1.1475 -1.1451 -1.3035
14680TIP3    H265456   4.156   3.269   0.196  0.1847  1.0650  0.2495
14681TIP3   OH265457   0.692   4.852   5.444 -0.0459  0.1955 -0.3148
14681TIP3    H165458   0.741   4.934   5.438 -0.5836  0.7115  1.8477
14681TIP3    H265459   0.751   4.793   5.491 -0.8101  0.3055  0.8180
14682TIP3   OH265460   7.161   2.084   3.642 -0.0019 -0.7611  0.4630
14682TIP3    H165461   7.195   2.058   3.556  0.3842  1.4680 -0.0917
14682TIP3    H265462   7.066   2.088   3.629  0.2216  2.0603 -0.6191
14683TIP3   OH265463   0.703   3.618   3.214 -0.0996  0.0244  0.1174
14683TIP3    H165464   0.657   3.633   3.296  0.5039  0.5207  0.3689
14683TIP3    H265465   0.759   3.695   3.203  0.1037 -0.2163 -0.5636
14684TIP3   OH265466   3.953   5.171   5.142 -0.3706 -0.3511 -0.8329
14684TIP3    H165467   4.045   5.146   5.145 -0.0613  0.8224  3.4410
14684TIP3    H265468   3.953   5.265   5.159 -2.3656 -0.5310  0.4004
14685TIP3   OH265469   4.466   3.955   5.165 -0.0475  0.2824 -0.0154
14685TIP3    H165470   4.500   3.919   5.247  0.0943 -0.6602 -0.4961
14685TIP3    H265471   4.510   4.040   5.157 -0.7654  0.8175  1.3680
14686TIP3   OH265472   3.300   4.715  14.920 -0.0128 -0.7285 -0.9280
14686TIP3    H165473   3.377   4.768  14.942  0.3217 -1.4118 -0.4447
14686TIP3    H265474   3.276   4.672  15.002 -2.3133  1.2738 -0.4911
14687TIP3   OH265475   4.153   2.600   4.041 -0.0192  0.2098 -0.7013
14687TIP3    H165476   4.138   2.516   4.083 -0.9409 -0.0790 -1.5693
14687TIP3    H265477   4.065   2.631   4.018  0.2173  1.9467  0.6175
14688TIP3   OH265478   2.992   2.636   2.063 -0.3555  0.4290  0.0686
14688TIP3    H165479   3.005   2.547   2.031  0.0703  0.3429  0.4696
14688TIP3    H265480   3.021   2.692   1.992 -0.0325  0.2415  0.0517
14689TIP3   OH265481   2.383   4.890   4.769 -0.2449  0.3259 -0.7122
14689TIP3    H165482   2.345   4.890   4.681 -0.6163 -0.8797 -0.5598
14689TIP3    H265483   2.321   4.940   4.821 -0.9883 -0.5221 -0.7506
14690TIP3   OH265484   3.539   3.566   3.379 -0.0741  0.3571  0.1475
14690TIP3    H165485   3.618   3.530   3.421  0.4638  1.8772  0.4814
14690TIP3    H265486   3.550   3.544   3.287  1.5502  1.9598 -0.0646
14691TIP3   OH265487   3.037   0.167   0.555  1.2048 -0.2795  0.4826
14691TIP3    H165488   3.123   0.200   0.580  1.3559 -0.0415 -0.3199
14691TIP3    H265489   3.011   0.221   0.480 -0.9937  1.6954  2.5912
14692TIP3   OH265490   4.685   1.684   4.437 -0.1775 -0.4432 -0.7222
14692TIP3    H165491   4.712   1.775   4.422 -0.6894  0.6644  4.2194
14692TIP3    H265492   4.766   1.633   4.428  0.1912  0.5347 -3.1086
14693TIP3   OH265493   3.394   3.250   1.384 -0.1242 -0.0255 -0.4719
14693TIP3    H165494   3.461   3.287   1.442 -0.3901 -1.1564  0.5721
14693TIP3    H265495   3.349   3.186   1.438 -0.5825 -0.8799 -1.8546
14694TIP3   OH265496   6.237   0.508   2.699  0.6333  0.0113 -0.0163
14694TIP3    H165497   6.313   0.450   2.701 -0.4660 -1.4490  1.4225
14694TIP3    H265498   6.238   0.552   2.784 -1.7251 -2.2263  1.2527
14695TIP3   OH265499   3.968   3.537   5.164  0.0696 -0.8027 -0.0505
14695TIP3    H165500   3.997   3.622   5.197 -2.2573  0.2684 -0.6528
14695TIP3    H265501   3.977   3.478   5.238  0.8477  0.1682  0.6458
14696TIP3   OH265502   6.115   4.720   2.431 -0.0952  0.4408 -0.0547
14696TIP3    H165503   6.176   4.646   2.438  0.6500  1.1728  1.5171
14696TIP3    H265504   6.036   4.682   2.393  0.2560 -1.1693  0.7663
14697TIP3   OH265505   5.738   3.040   3.952  0.1054  0.6348  0.4277
14697TIP3    H165506   5.755   3.102   4.023 -0.0371  0.3219  0.7408
14697TIP3    H265507   5.650   3.062   3.921  0.5405  1.3814 -0.2877
14698TIP3   OH265508   6.471   3.709   2.009  0.2473  0.1250 -0.2098
14698TIP3    H165509   6.516   3.625   2.004  0.8780  0.4238  0.4345
14698TIP3    H265510   6.481   3.736   2.100  0.0968  0.9293 -0.4290
14699TIP3   OH265511   5.426   2.431   4.793 -0.3487  0.4414  0.1776
14699TIP3    H165512   5.471   2.412   4.876  0.6290  0.4854 -0.3405
14699TIP3    H265513   5.496   2.441   4.729 -1.1153  0.1412 -0.7190
14700TIP3   OH265514   5.069   1.935   0.666  0.1101 -0.3710  0.2508
14700TIP3    H165515   5.149   1.886   0.684 -0.0979 -0.8615 -0.1771
14700TIP3    H265516   5.033   1.897   0.586 -0.3293  0.1287  0.1997
14701TIP3   OH265517   3.266   2.363   4.061 -0.1769 -0.5453 -0.1083
14701TIP3    H165518   3.197   2.352   4.127  0.1183 -0.4500  0.2174
14701TIP3    H265519   3.289   2.455   4.066 -2.3779  0.2178 -2.5574
14702TIP3   OH265520   0.321   4.462   4.136 -0.3512  0.1310  0.3852
14702TIP3    H165521   0.349   4.513   4.060 -5.0250  0.6106 -1.1783
14702TIP3    H265522   0.286   4.526   4.197 -2.9429 -0.8290 -0.0423
14703TIP3   OH265523   7.000   2.296   3.455 -0.2646  0.3331  0.5304
14703TIP3    H165524   7.034   2.383   3.476  1.6912 -0.2285 -0.1740
14703TIP3    H265525   7.053   2.267   3.380 -1.2912 -1.2134  0.3733
14704TIP3   OH265526   6.441   5.971   3.918  0.2348 -0.1214  0.2527
14704TIP3    H165527   6.430   5.991   4.011 -1.4791  0.8521 -0.1410
14704TIP3    H265528   6.448   6.056   3.875 -0.6459 -0.5168 -0.6973
14705TIP3   OH265529   5.218   2.945   4.309 -0.0779  0.3936 -0.5348
14705TIP3    H165530   5.145   2.905   4.261 -0.8424 -0.8672  1.6385
14705TIP3    H265531   5.175   3.001   4.374  0.9552  2.2044 -1.3835
14706TIP3   OH265532   1.297   2.618   4.021 -0.0583  0.6882  0.1052
14706TIP3    H165533   1.214   2.622   3.974  0.6537 -2.8510 -1.5763
14706TIP3    H265534   1.364   2.618   3.953  1.1345 -0.9113  1.2288
14707TIP3   OH265535   1.754   6.633   4.963  0.7365 -0.0961  0.3606
14707TIP3    H165536   1.700   6.679   5.027 -0.0216 -1.5453  0.7838
14707TIP3    H265537   1.844   6.642   4.996  0.7670  2.0487 -0.1793
14708TIP3   OH265538   6.578   5.142   1.303  0.2982  0.7766  0.4196
14708TIP3    H165539   6.618   5.221   1.337 -0.8378  1.2556  0.6485
14708TIP3    H265540   6.512   5.118   1.368 -0.0210  0.1805 -0.1180
14709TIP3   OH265541   4.849   2.198   3.957 -0.2977 -0.4988  0.5060
14709TIP3    H165542   4.779   2.190   4.021 -0.0470 -3.4112  0.4550
14709TIP3    H265543   4.925   2.226   4.008 -0.9765  0.6739  0.8872
14710TIP3   OH265544   5.792   4.518   0.843  0.1077  0.2214  0.5221
14710TIP3    H165545   5.761   4.501   0.932 -1.3836 -1.3524 -0.2630
14710TIP3    H265546   5.787   4.433   0.800  1.8267  0.7591 -0.7725
14711TIP3   OH265547   6.739   4.695   1.424 -0.5331 -0.3066 -0.5957
14711TIP3    H165548   6.752   4.605   1.455 -0.3381 -0.8847 -2.3019
14711TIP3    H265549   6.779   4.750   1.491 -0.7229 -1.4817  0.5029
14712TIP3   OH265550   2.331   3.319   5.982 -0.6231  0.2502  0.0227
14712TIP3    H165551   2.327   3.364   6.066 -1.5712 -0.0242  0.1305
14712TIP3    H265552   2.242   3.327   5.946 -0.3711 -0.1134 -0.6979
14713TIP3   OH265553   4.943   3.237   5.351 -0.5189 -0.1636  0.6689
14713TIP3    H165554   4.868   3.284   5.389 -0.4135  0.8154 -0.2940
14713TIP3    H265555   4.914   3.215   5.262  0.6625  1.0585 -0.0404
14714TIP3   OH265556   3.269   0.769   3.817  0.0085  0.3307 -0.2782
14714TIP3    H165557   3.269   0.760   3.913 -1.6574  1.3897 -0.1376
14714TIP3    H265558   3.182   0.738   3.791  1.0723 -1.5888 -1.6552
14715TIP3   OH265559   4.197   5.092   5.129  0.2861  0.0964  0.3617
14715TIP3    H165560   4.216   5.104   5.036 -0.2438 -0.2060  0.2107
14715TIP3    H265561   4.222   5.002   5.148 -1.6376 -0.5365 -0.0146
14716TIP3   OH265562   5.471   4.157   2.149 -0.6667 -0.1739  0.5711
14716TIP3    H165563   5.560   4.141   2.116 -1.3530  1.2898 -2.1321
14716TIP3    H265564   5.484   4.176   2.242  1.7261 -1.1129  0.4824
14717TIP3   OH265565   5.601   7.281   2.306  0.2676 -0.4323  0.2654
14717TIP3    H165566   5.684   7.284   2.259  0.5033 -0.8344  0.6546
14717TIP3    H265567   5.616   7.332   2.386  0.0008 -0.1280  0.1281
14718TIP3   OH265568   6.468   2.892   4.501  0.4335  0.2721  0.8762
14718TIP3    H165569   6.420   2.835   4.440 -0.5064  1.9399  0.0149
14718TIP3    H265570   6.507   2.959   4.445  1.0557  0.7991  1.9323
14719TIP3   OH265571   3.785   3.339   3.020  0.7826 -0.2374 -0.0357
14719TIP3    H165572   3.704   3.382   3.047  0.7078 -0.2756 -0.2041
14719TIP3    H265573   3.758   3.274   2.956  0.6798 -1.7559  1.5290
14720TIP3   OH265574   4.605   3.894   2.814  0.4192  0.0502 -0.4270
14720TIP3    H165575   4.584   3.814   2.766 -0.2751 -0.2550  0.3793
14720TIP3    H265576   4.575   3.877   2.903 -0.5569  1.5271 -0.4541
14721TIP3   OH265577   5.163   6.005   3.708 -0.3840 -0.2914  0.1356
14721TIP3    H165578   5.233   5.941   3.696 -0.7512 -1.1473  2.3409
14721TIP3    H265579   5.148   6.041   3.621  0.9304 -2.0634 -0.8461
14722TIP3   OH265580   4.725   5.106   1.471 -0.6155 -0.1055  0.6807
14722TIP3    H165581   4.744   5.163   1.545 -1.7141  1.8223 -0.4561
14722TIP3    H265582   4.725   5.165   1.395 -0.4278 -1.8607 -0.7275
14723TIP3   OH265583   1.106   1.880   3.687  0.0855 -0.0912  0.2136
14723TIP3    H165584   1.087   1.799   3.735  1.1491  0.6841  2.0009
14723TIP3    H265585   1.023   1.928   3.687 -0.5059 -1.0956 -0.7102
14724TIP3   OH265586   1.819   3.202   4.469 -0.2146  0.9840  0.3316
14724TIP3    H165587   1.806   3.202   4.374  1.5116 -1.0018  0.0498
14724TIP3    H265588   1.765   3.129   4.500  1.2040 -0.0177  0.5262
14725TIP3   OH265589   4.448   1.712   5.249 -0.2162  0.6340 -0.1742
14725TIP3    H165590   4.449   1.695   5.344  0.0329 -1.5070 -0.5412
14725TIP3    H265591   4.419   1.803   5.242 -2.0187  0.2748  1.8721
14726TIP3   OH265592   5.940   0.376   3.575  0.0161 -0.3666 -0.0338
14726TIP3    H165593   5.923   0.300   3.520  1.9134 -0.4734 -0.5120
14726TIP3    H265594   6.036   0.378   3.584 -0.0541  1.5815  0.4929
14727TIP3   OH265595   1.459   1.522   2.571  0.2458  0.1505 -0.1401
14727TIP3    H165596   1.432   1.468   2.645  3.4143 -1.2946  0.0276
14727TIP3    H265597   1.545   1.556   2.596  1.0900  0.1355 -2.8702
14728TIP3   OH265598   4.623   2.739   1.251  0.1074 -0.4033 -0.4921
14728TIP3    H165599   4.566   2.704   1.183 -0.0915  3.1957 -2.3209
14728TIP3    H265600   4.703   2.688   1.244 -0.8372 -1.7343 -1.7536
14729TIP3   OH265601   4.368   4.374   2.344 -0.3665  0.1123  0.9590
14729TIP3    H165602   4.281   4.357   2.308 -0.7960  1.3960  1.3692
14729TIP3    H265603   4.382   4.304   2.407 -0.5728 -0.8227 -0.0210
14730TIP3   OH265604   5.388   1.630   3.627 -0.1721  0.2078 -0.0105
14730TIP3    H165605   5.359   1.689   3.557  2.5678  2.3735  0.5743
14730TIP3    H265606   5.402   1.687   3.702  1.0612 -1.4347  1.0420
14731TIP3   OH265607   4.920   2.288   3.663  0.0527 -0.1962 -0.3892
14731TIP3    H165608   5.011   2.282   3.690  0.1918 -0.6487 -0.9435
14731TIP3    H265609   4.870   2.275   3.743  0.4748 -0.3201 -0.1469
14732TIP3   OH265610   4.523   1.121   5.320  0.3994 -0.0257 -1.0702
14732TIP3    H165611   4.570   1.170   5.388 -0.6600 -0.6960  0.1601
14732TIP3    H265612   4.585   1.118   5.247  1.8329  0.1044  0.1005
14733TIP3   OH265613   0.689   2.985   5.495  0.5758  0.5630  0.2549
14733TIP3    H165614   0.639   2.907   5.518  1.8448 -0.2595  0.2916
14733TIP3    H265615   0.693   3.036   5.576  0.1511  0.4346  0.3562
14734TIP3   OH265616   4.027   5.914   3.755  0.4302  0.2979  0.7392
14734TIP3    H165617   3.978   5.905   3.674  0.5929 -0.1056  0.6827
14734TIP3    H265618   4.092   5.844   3.752  0.8542  0.6777  0.9229
14735TIP3   OH265619   4.355   3.304   4.595 -0.2373  0.8170  0.2601
14735TIP3    H165620   4.317   3.307   4.507 -0.5955 -2.0205  0.2940
14735TIP3    H265621   4.429   3.244   4.588 -1.9984 -1.7035  2.5094
14736TIP3   OH265622   3.272   2.335   3.772  0.0306 -0.1707 -0.4576
14736TIP3    H165623   3.293   2.331   3.865 -0.7616 -0.5782 -0.2935
14736TIP3    H265624   3.216   2.412   3.763  1.2413  0.6779 -0.8289
14737TIP3   OH265625   6.920   2.146   4.310  0.5452 -0.0266 -0.2432
14737TIP3    H165626   6.978   2.166   4.383  1.2603  1.4903 -1.1877
14737TIP3    H265627   6.964   2.075   4.263  0.2905 -0.7167  0.5515
14738TIP3   OH265628   0.717   6.422   4.005  0.5436 -0.4051 -0.0026
14738TIP3    H165629   0.801   6.458   3.974 -0.2817 -0.7013 -2.7668
14738TIP3    H265630   0.678   6.493   4.056  1.2575  0.7617 -1.0393
14739TIP3   OH265631   0.332   3.323   2.477  0.4954  0.4218  0.3536
14739TIP3    H165632   0.424   3.303   2.459  0.7265  1.6187  0.1736
14739TIP3    H265633   0.284   3.253   2.433  1.3751 -1.1343  1.8262
14740TIP3   OH265634   2.124   0.393   3.857  0.5595 -0.2113 -0.1945
14740TIP3    H165635   2.207   0.348   3.874  0.8538  0.0100 -0.9806
14740TIP3    H265636   2.123   0.466   3.919 -0.1047 -1.5141  1.3466
14741TIP3   OH265637   4.405   0.225   4.811  0.3905  0.2791 -0.0515
14741TIP3    H165638   4.318   0.266   4.813 -0.0594 -0.6924  1.9110
14741TIP3    H265639   4.438   0.234   4.901  1.3070 -1.4628 -0.1814
14742TIP3   OH265640   3.790   5.007   3.602 -0.4449  0.3020  0.5292
14742TIP3    H165641   3.850   4.944   3.561 -2.1810 -0.5114 -0.8141
14742TIP3    H265642   3.780   4.975   3.692 -0.3799 -0.6837  0.1917
14743TIP3   OH265643   4.787   5.633   1.170 -0.6699  0.1440  0.8841
14743TIP3    H165644   4.853   5.576   1.209 -1.5137 -1.3583  0.1492
14743TIP3    H265645   4.837   5.707   1.135  0.4858 -0.3716  1.4210
14744TIP3   OH265646   2.952   4.059   5.542  0.4197 -0.3284  0.2467
14744TIP3    H165647   2.958   3.979   5.594  0.3002  0.5906  1.7008
14744TIP3    H265648   3.031   4.108   5.563 -0.1082  0.4996  0.3435
14745TIP3   OH265649   5.841   3.846   2.791  0.2360  0.2397 -0.0200
14745TIP3    H165650   5.787   3.824   2.715  0.5466 -1.7024  0.2830
14745TIP3    H265651   5.795   3.807   2.865 -0.0756  2.1529  0.8097
14746TIP3   OH265652   1.022   6.064   3.398  0.6367 -0.2997 -0.3135
14746TIP3    H165653   1.094   6.113   3.439  0.9134 -0.9974  0.0411
14746TIP3    H265654   1.000   5.996   3.461 -0.1766 -0.2403 -0.5285
14747TIP3   OH265655   3.774   2.035   2.405  0.1915 -0.5386  0.5175
14747TIP3    H165656   3.730   1.972   2.349  0.8536 -0.2801 -0.3041
14747TIP3    H265657   3.854   2.059   2.357 -0.7310  1.9978  0.1280
14748TIP3   OH265658   3.598   5.422   3.321 -0.4983 -0.0370 -0.1468
14748TIP3    H165659   3.569   5.337   3.287 -0.6119  0.2575 -0.8014
14748TIP3    H265660   3.547   5.486   3.271  0.4973  0.4602 -0.5440
14749TIP3   OH265661   5.169   3.562   2.904  0.9772 -0.1036  0.1308
14749TIP3    H165662   5.226   3.514   2.964  3.0906  1.2606 -0.7263
14749TIP3    H265663   5.227   3.593   2.835 -0.2180  3.8592  0.7642
14750TIP3   OH265664   4.782   6.393   0.384 -0.0892 -0.0674 -0.3821
14750TIP3    H165665   4.802   6.342   0.462  0.3777  2.1940  1.0271
14750TIP3    H265666   4.852   6.371   0.322  0.6219 -0.4340  0.5460
14751TIP3   OH265667   0.433   1.378   4.981  0.1654  0.6677 -0.2848
14751TIP3    H165668   0.445   1.299   4.928  1.4393  0.4322  0.3524
14751TIP3    H265669   0.493   1.442   4.942 -1.0439  1.4183 -0.9561
14752TIP3   OH265670   5.731   7.248   5.306 -0.3678 -0.0554  0.0891
14752TIP3    H165671   5.698   7.286   5.387 -2.1596  0.8522 -1.0188
14752TIP3    H265672   5.700   7.158   5.307  1.5167 -0.7345  1.4163
14753TIP3   OH265673   3.913   2.223   1.543 -0.3616 -0.4362 -0.1685
14753TIP3    H165674   3.977   2.277   1.495  1.3227 -2.5993 -0.4030
14753TIP3    H265675   3.947   2.134   1.536 -2.1137 -1.2852  1.8513
14754TIP3   OH265676   6.759   3.057   1.976 -0.5473 -0.3201  0.0025
14754TIP3    H165677   6.822   3.126   1.996  0.5321 -1.9042  2.3203
14754TIP3    H265678   6.692   3.065   2.045  0.4107 -2.5182  1.2381
14755TIP3   OH265679   1.123   3.788   3.030 -0.2450  0.1787 -0.3475
14755TIP3    H165680   1.213   3.807   3.057  0.0283  0.3977 -1.3850
14755TIP3    H265681   1.122   3.694   3.011 -0.8976 -0.3513  2.1207
14756TIP3   OH265682   6.174   3.116   0.338 -0.2359 -0.0921 -0.3516
14756TIP3    H165683   6.180   3.130   0.244  0.6858  0.8311 -0.1682
14756TIP3    H265684   6.263   3.134   0.371 -0.7549  0.4594  0.7912
14757TIP3   OH265685   3.166   2.642  15.464 -0.5654  0.2019 -0.3559
14757TIP3    H165686   3.252   2.686  15.461  0.7732 -2.0878  2.3100
14757TIP3    H265687   3.176   2.567  15.405  0.4630 -1.9511  2.4395
14758TIP3   OH265688   4.454   0.907   2.458  0.3905 -0.6499  0.3777
14758TIP3    H165689   4.388   0.976   2.446 -0.1774 -1.5103 -1.5457
14758TIP3    H265690   4.415   0.846   2.520 -0.5586 -1.0547 -0.6119
14759TIP3   OH265691   4.552   4.133   2.495  0.5617  0.0565 -0.2632
14759TIP3    H165692   4.466   4.092   2.499  0.9953 -0.7886  0.4915
14759TIP3    H265693   4.596   4.106   2.575  2.6473 -2.0181 -2.0331
14760TIP3   OH265694   3.295   1.274   3.279 -0.4015  0.0119  0.1007
14760TIP3    H165695   3.357   1.273   3.352  0.7110 -0.1885 -0.8347
14760TIP3    H265696   3.237   1.199   3.295  2.4145 -2.5939 -1.3969
14761TIP3   OH265697   6.063   1.584   0.958  0.2522 -0.3135 -0.0763
14761TIP3    H165698   6.145   1.535   0.949  0.0049 -0.7339 -0.0641
14761TIP3    H265699   6.088   1.675   0.942  1.1354 -0.1282  2.1653
14762TIP3   OH265700   5.649   3.692  15.790  0.1759 -0.0984 -0.1220
14762TIP3    H165701   5.593   3.636  15.736 -1.0209  1.0073 -0.0430
14762TIP3    H265702   5.698   3.745  15.727  0.8863 -0.8045 -0.1798
14763TIP3   OH265703   7.177   2.258   3.238 -0.8395  0.4080 -0.2665
14763TIP3    H165704   7.257   2.209   3.253 -1.6795 -0.8115  0.2759
14763TIP3    H265705   7.198   2.315   3.163  0.4624 -0.0275 -0.2442
14764TIP3   OH265706   0.064   3.696   1.619  0.6947 -0.5586 -0.4137
14764TIP3    H165707  -0.002   3.661   1.680 -1.0522  0.6829 -1.5508
14764TIP3    H265708   0.136   3.723   1.675 -0.6117 -0.0504  1.0706
14765TIP3   OH265709   6.871   3.103  15.950 -0.5858 -0.2679 -0.2130
14765TIP3    H165710   6.860   3.164  15.876  0.3735 -0.3846 -0.4591
14765TIP3    H265711   6.874   3.160  16.027 -2.7930 -0.2146 -0.1068
14766TIP3   OH265712   6.523   0.643   3.742  0.7253  0.1085  0.2330
14766TIP3    H165713   6.569   0.686   3.670 -0.1739  0.5162 -0.1075
14766TIP3    H265714   6.430   0.663   3.727  0.5342  0.2924  1.5586
14767TIP3   OH265715   4.183   1.772   0.159  0.1717  0.0401  0.2508
14767TIP3    H165716   4.141   1.848   0.120  2.1886  0.2459 -1.6206
14767TIP3    H265717   4.160   1.699   0.102  1.8905  0.0695 -0.5107
14768TIP3   OH265718   5.256   4.590   4.764  0.0745 -0.3041  0.3926
14768TIP3    H165719   5.173   4.543   4.760 -0.1892  0.1206  0.7996
14768TIP3    H265720   5.268   4.610   4.857  0.5991 -0.3030  0.3302
14769TIP3   OH265721   6.822   2.667   3.925 -0.8306 -0.0068 -0.5246
14769TIP3    H165722   6.883   2.630   3.862 -0.3689 -0.3461  0.1131
14769TIP3    H265723   6.873   2.675   4.006 -0.6712  2.7964 -0.8682
14770TIP3   OH265724   2.339   1.469   2.846 -0.3071 -0.2098  0.4011
14770TIP3    H165725   2.336   1.392   2.789  0.4365  0.9411 -1.2394
14770TIP3    H265726   2.424   1.508   2.828 -1.2876  1.8418  0.0597
14771TIP3   OH265727   6.840   6.314   0.771 -0.5083  0.0989  0.3294
14771TIP3    H165728   6.752   6.326   0.808 -0.4229  0.7975  0.3256
14771TIP3    H265729   6.828   6.250   0.701 -1.6348  2.4436 -1.7362
14772TIP3   OH265730   4.358   2.244   2.267  0.1561  0.0078 -0.2166
14772TIP3    H165731   4.328   2.224   2.355 -0.0187  0.2352 -0.2254
14772TIP3    H265732   4.452   2.226   2.269 -0.0638 -1.1620 -0.3264
14773TIP3   OH265733   6.124   4.198   4.004 -0.5749 -0.0781  0.0645
14773TIP3    H165734   6.037   4.180   3.969 -0.7516 -0.2209  0.5638
14773TIP3    H265735   6.160   4.112   4.022 -0.4803 -0.0057  0.2162
14774TIP3   OH265736   4.867   3.267   3.063 -0.6316 -0.4192 -0.6319
14774TIP3    H165737   4.786   3.217   3.056 -0.1652 -1.3017  0.1427
14774TIP3    H265738   4.930   3.216   3.012 -0.1544 -0.6302  0.1608
14775TIP3   OH265739   5.973   4.399   3.615  0.2694 -0.3794 -0.7510
14775TIP3    H165740   5.935   4.466   3.672  0.9625 -0.2296 -0.4702
14775TIP3    H265741   6.067   4.414   3.619  0.4487 -1.5466 -0.4860
14776TIP3   OH265742   5.675   2.487   2.207  0.5860 -0.4564  0.2299
14776TIP3    H165743   5.685   2.416   2.143 -1.2692  0.1156 -0.7327
14776TIP3    H265744   5.658   2.565   2.154  1.2947  0.4758  1.3442
14777TIP3   OH265745   0.141   1.542   2.061  0.0412  0.1308 -0.1727
14777TIP3    H165746   0.124   1.610   2.126  1.7858  2.6151 -2.2495
14777TIP3    H265747   0.235   1.523   2.070 -0.3416 -1.7943  0.1327
14778TIP3   OH265748   5.796   3.638   4.247 -0.3994 -0.1104  0.8728
14778TIP3    H165749   5.721   3.584   4.273  1.3058 -2.8421  0.3419
14778TIP3    H265750   5.812   3.615   4.156  0.9637  0.5693  0.9281
14779TIP3   OH265751   1.602   0.918   1.919  0.2766  0.0130 -0.1926
14779TIP3    H165752   1.583   1.009   1.943  1.2014  1.0911 -3.3359
14779TIP3    H265753   1.686   0.899   1.960 -0.3933  0.2332  1.3053
14780TIP3   OH265754   2.953   5.292   3.048 -0.1436 -0.1059  0.0308
14780TIP3    H165755   2.956   5.202   3.017 -0.6556  0.1384 -0.7708
14780TIP3    H265756   2.873   5.296   3.100  0.6141 -0.4663  1.2400
14781TIP3   OH265757   2.759   2.475  13.969 -0.3302  0.1139  0.3664
14781TIP3    H165758   2.823   2.451  13.901  0.4272 -0.0366  1.1175
14781TIP3    H265759   2.688   2.412  13.958 -1.1308  1.3047 -1.5362
14782TIP3   OH265760   5.311   6.709   4.822  0.2169  0.6957 -0.5933
14782TIP3    H165761   5.358   6.780   4.778  0.9071  0.4978 -0.1765
14782TIP3    H265762   5.337   6.630   4.776 -2.1073  0.9129 -2.3590
14783TIP3   OH265763   4.501   4.513   4.197 -0.4327 -0.0019 -0.0574
14783TIP3    H165764   4.426   4.569   4.214  0.8388  1.6941  0.1049
14783TIP3    H265765   4.484   4.475   4.111 -0.9849  1.2074 -0.4918
14784TIP3   OH265766   2.183   1.374   1.203  0.0144 -0.1857 -0.0773
14784TIP3    H165767   2.202   1.463   1.174  0.2059 -1.1096 -2.8488
14784TIP3    H265768   2.189   1.379   1.299  2.7865  2.1439 -0.2950
14785TIP3   OH265769   3.821   6.175   3.932 -0.9994  0.0101 -0.5981
14785TIP3    H165770   3.801   6.263   3.901 -0.3677  0.6287  0.7206
14785TIP3    H265771   3.782   6.171   4.019 -0.9019 -0.9704 -0.5945
14786TIP3   OH265772   1.639   4.046   5.169  0.6195  0.3187 -0.8161
14786TIP3    H165773   1.707   4.100   5.208 -0.1398  1.6413 -1.3042
14786TIP3    H265774   1.594   4.007   5.245  0.9436  0.6543 -0.4483
14787TIP3   OH265775   3.881   2.069   2.655  0.0466  0.1618 -0.2622
14787TIP3    H165776   3.897   1.995   2.713  1.1339  0.4727 -0.1486
14787TIP3    H265777   3.826   2.034   2.585 -1.4978 -0.1503  1.0880
14788TIP3   OH265778   4.341   0.037   3.458 -0.9614  0.1231  0.7474
14788TIP3    H165779   4.407  -0.011   3.509 -1.9324  0.5177  2.4302
14788TIP3    H265780   4.372   0.128   3.459 -0.1850 -0.1209 -0.6887
14789TIP3   OH265781   6.121   3.624   1.083 -0.2385 -0.1027  0.5504
14789TIP3    H165782   6.061   3.594   1.015 -1.1010  3.1440 -0.2405
14789TIP3    H265783   6.154   3.708   1.050  1.2748  0.3186  3.0024
14790TIP3   OH265784   3.514   6.660   2.318 -0.1003  0.4869  0.1125
14790TIP3    H165785   3.533   6.573   2.353  0.9799 -0.8201 -3.4825
14790TIP3    H265786   3.448   6.645   2.250 -1.0826  2.7019  0.5368
14791TIP3   OH265787   6.113   3.194   3.817 -0.1761  0.9065 -0.2738
14791TIP3    H165788   6.116   3.284   3.850 -0.8718 -0.2769  3.2619
14791TIP3    H265789   6.204   3.172   3.798  0.1222  1.9974 -0.1250
14792TIP3   OH265790   6.114   6.425   0.751 -0.4347 -0.0508 -0.0422
14792TIP3    H165791   6.023   6.448   0.734 -0.4627 -1.6209 -2.3105
14792TIP3    H265792   6.165   6.501   0.724 -1.0111  0.4960  0.4120
14793TIP3   OH265793   5.503   4.686   2.083  0.1277 -0.4549  0.0850
14793TIP3    H165794   5.559   4.644   2.148  2.1672  1.2027 -0.5695
14793TIP3    H265795   5.433   4.726   2.135  0.9319 -0.3756  1.1381
14794TIP3   OH265796   6.280   3.952   4.580 -0.1013  0.2701  0.2489
14794TIP3    H165797   6.244   4.005   4.509  0.7025  0.7101  0.1582
14794TIP3    H265798   6.242   3.865   4.568 -0.0737  0.3779 -0.6331
14795TIP3   OH265799   5.365   1.013   2.411 -0.0897 -0.5973  0.4121
14795TIP3    H165800   5.407   0.980   2.490  1.4708  2.3270  0.8908
14795TIP3    H265801   5.436   1.020   2.347  0.3224  4.2182  1.1747
14796TIP3   OH265802   4.531   6.064   4.766  0.3470  0.1990 -0.2582
14796TIP3    H165803   4.474   6.031   4.835 -1.2068 -1.7333 -2.3938
14796TIP3    H265804   4.619   6.064   4.805 -0.5905 -0.2964  1.8873
14797TIP3   OH265805   4.827   5.915  15.674  0.6678 -0.1387 -0.4185
14797TIP3    H165806   4.761   5.953  15.732  1.6266  0.0448  0.5763
14797TIP3    H265807   4.777   5.865  15.609 -0.3551 -1.6499  1.4851
14798TIP3   OH265808   6.340   1.204   4.148  0.2309  0.2921 -0.0340
14798TIP3    H165809   6.256   1.248   4.156  0.3339  0.4132  0.3867
14798TIP3    H265810   6.396   1.247   4.212  0.7032  0.4154 -0.5191
14799TIP3   OH265811   6.109   1.087   2.263 -0.3693 -0.0982  0.2413
14799TIP3    H165812   6.035   1.118   2.210  0.6535  1.3746 -0.3415
14799TIP3    H265813   6.098   1.133   2.347  1.1330  1.9136 -0.6150
14800TIP3   OH265814   3.157   3.057   5.767  0.3516 -0.8271  0.1052
14800TIP3    H165815   3.167   3.152   5.762  1.6424 -1.0494 -2.2948
14800TIP3    H265816   3.235   3.027   5.814  0.2224 -0.7397  0.3735
14801TIP3   OH265817   0.157   6.503  15.999 -0.1780  0.3996 -0.2015
14801TIP3    H165818   0.116   6.484  16.083  1.5183 -1.4880  0.2503
14801TIP3    H265819   0.217   6.430  15.985 -0.4667  0.6474 -3.0862
14802TIP3   OH265820   3.258   3.104   3.113 -0.0183 -0.2362 -0.0090
14802TIP3    H165821   3.270   3.027   3.167  0.6554  0.1379  0.3790
14802TIP3    H265822   3.163   3.118   3.112  0.0434  0.8030  2.5972
14803TIP3   OH265823   4.966   1.997   5.375  0.1101  0.8061  0.1095
14803TIP3    H165824   4.971   1.901   5.373 -3.9387  0.5595 -1.2593
14803TIP3    H265825   4.989   2.024   5.285  2.4553  1.2546  0.8044
14804TIP3   OH265826   2.210   3.815   4.830  0.1385  0.7261 -0.1107
14804TIP3    H165827   2.181   3.906   4.825 -2.8589 -0.0678  2.1383
14804TIP3    H265828   2.237   3.803   4.921  1.5477 -0.3666 -0.6524
14805TIP3   OH265829   5.696   2.453   4.995  0.5043  0.7311 -0.0042
14805TIP3    H165830   5.662   2.540   4.976 -0.6370 -0.2225 -2.6534
14805TIP3    H265831   5.791   2.461   4.982  0.2407  1.2484 -1.8272
14806TIP3   OH265832   1.356   5.932   4.081  0.5041 -0.2569 -0.1272
14806TIP3    H165833   1.302   5.853   4.081  1.5694 -0.9965 -0.4155
14806TIP3    H265834   1.431   5.910   4.136  1.9867 -0.2743 -2.1327
14807TIP3   OH265835   4.087   0.870   5.539  0.6454  0.1873 -0.4134
14807TIP3    H165836   4.116   0.817   5.613 -0.0707  0.7227  0.2643
14807TIP3    H265837   4.135   0.835   5.464  0.3339 -1.2830  0.0557
14808TIP3   OH265838   3.507   3.810   2.029 -0.5088  0.1319 -0.1287
14808TIP3    H165839   3.581   3.869   2.015  1.0243 -1.8249 -0.6816
14808TIP3    H265840   3.533   3.758   2.105 -1.4457 -0.3801 -0.1612
14809TIP3   OH265841   3.329   5.891   3.939 -0.6754  0.3315 -0.0738
14809TIP3    H165842   3.357   5.982   3.939  1.1980 -0.2327  0.0811
14809TIP3    H265843   3.305   5.873   4.030  4.4879 -0.9546  1.1538
14810TIP3   OH265844   6.438   5.523   4.585  0.2743  0.3613  0.0645
14810TIP3    H165845   6.369   5.558   4.529 -2.2561  0.1173  2.9223
14810TIP3    H265846   6.471   5.447   4.536 -1.1165  0.7805 -1.5902
14811TIP3   OH265847   4.745   0.837   2.074  0.0537  0.1031 -0.1461
14811TIP3    H165848   4.835   0.868   2.087  0.3230 -0.0909 -1.5003
14811TIP3    H265849   4.702   0.907   2.026  0.0398 -0.6345 -1.2313
14812TIP3   OH265850   5.564   3.638   5.074  1.1371  0.0593 -0.4209
14812TIP3    H165851   5.529   3.727   5.065  2.2737  0.6435  0.8323
14812TIP3    H265852   5.553   3.617   5.167  0.7778 -1.1551 -0.7289
14813TIP3   OH265853   0.362   5.871   4.117  0.3188  0.0160 -0.4275
14813TIP3    H165854   0.280   5.872   4.166 -0.2737  0.2984 -1.4174
14813TIP3    H265855   0.428   5.846   4.182 -0.5893 -0.5221  0.3015
14814TIP3   OH265856   4.548   2.795   1.572 -0.1220  0.2758  0.0740
14814TIP3    H165857   4.584   2.725   1.626 -1.3806  0.4614  1.1689
14814TIP3    H265858   4.494   2.751   1.507 -2.0252  0.2880  1.6154
14815TIP3   OH265859   5.283   2.249   0.096 -0.0764  0.7697  0.9979
14815TIP3    H165860   5.249   2.321   0.043  0.7576  0.9780  0.7476
14815TIP3    H265861   5.336   2.197   0.036  0.9002  1.0229  1.6371
14816TIP3   OH265862   2.846   6.853  15.229  0.0257 -0.2077  0.2341
14816TIP3    H165863   2.831   6.944  15.253 -0.3487 -0.1648 -0.1502
14816TIP3    H265864   2.761   6.821  15.200 -0.1051 -1.0241  1.4640
14817TIP3   OH265865   3.882   5.570   3.814 -0.7705 -0.4042  0.1514
14817TIP3    H165866   3.841   5.643   3.860  1.1405 -0.4799  2.0367
14817TIP3    H265867   3.972   5.599   3.798  0.2562 -2.6207  1.6310
14818TIP3   OH265868   3.224   4.512   2.603 -0.1672  0.2130  0.7497
14818TIP3    H165869   3.300   4.465   2.639 -0.8529 -1.3395  0.2160
14818TIP3    H265870   3.226   4.492   2.510 -1.0070  0.4694  0.6748
14819TIP3   OH265871   6.524   4.003   3.337 -0.3317 -0.4002  0.6801
14819TIP3    H165872   6.605   4.003   3.287  0.5610  0.5899  2.0743
14819TIP3    H265873   6.470   4.071   3.296  0.6849  0.9222  1.4807
14820TIP3   OH265874   1.341   2.184   2.754  0.8916 -0.3058 -0.1911
14820TIP3    H165875   1.284   2.246   2.800 -0.8332 -1.3333 -0.9067
14820TIP3    H265876   1.312   2.098   2.783  1.3085 -0.8778 -1.4401
14821TIP3   OH265877   5.419   3.371   2.680  0.3022  0.2403 -0.0365
14821TIP3    H165878   5.409   3.290   2.729  0.0517 -0.6370 -1.4920
14821TIP3    H265879   5.334   3.383   2.636  0.7423  0.6326 -0.7970
14822TIP3   OH265880   2.292   4.203   3.587 -0.1595  0.1413 -0.4156
14822TIP3    H165881   2.317   4.146   3.515 -0.5260 -0.7036  0.1228
14822TIP3    H265882   2.317   4.156   3.666 -1.1369  0.3937  0.0529
14823TIP3   OH265883   2.668   6.967   2.933  0.3689  0.4851  0.3856
14823TIP3    H165884   2.636   6.974   3.023  0.9604  0.1746  0.6228
14823TIP3    H265885   2.592   6.936   2.883  0.2134  0.0330  0.8921
14824TIP3   OH265886   6.281   2.734   1.222 -1.0723 -0.0270 -0.2020
14824TIP3    H165887   6.374   2.755   1.225 -0.6349 -1.9257  0.3985
14824TIP3    H265888   6.247   2.784   1.148  0.4103  0.6995 -0.4118
14825TIP3   OH265889   4.487   3.006   1.769 -0.0567 -0.1865  0.7558
14825TIP3    H165890   4.428   3.060   1.716 -0.0131 -0.6456  0.2398
14825TIP3    H265891   4.505   2.930   1.715  1.8590  0.4458  0.4750
14826TIP3   OH265892   2.228   4.692   0.628 -0.3966  0.5195 -0.6737
14826TIP3    H165893   2.308   4.741   0.612 -0.6843  1.5859  1.1059
14826TIP3    H265894   2.170   4.716   0.556  0.1472  1.3315 -0.8380
14827TIP3   OH265895   5.046   1.655   2.646  0.3628  0.5198  0.3984
14827TIP3    H165896   5.056   1.602   2.566 -0.2279  0.2880  0.4752
14827TIP3    H265897   5.081   1.741   2.622 -0.9724  0.8178 -0.5017
14828TIP3   OH265898   1.610   2.452   4.258  0.0291 -0.4290  0.1635
14828TIP3    H165899   1.656   2.448   4.342 -1.2228 -1.1183  0.8262
14828TIP3    H265900   1.518   2.439   4.281 -0.4054  0.1391 -1.2361
14829TIP3   OH265901   4.212   2.468   1.013  0.2794 -0.4727 -0.3561
14829TIP3    H165902   4.229   2.412   1.088  1.4749 -1.4405 -1.3266
14829TIP3    H265903   4.170   2.410   0.949  0.8812 -0.1068 -1.0968
14830TIP3   OH265904   3.610   3.783   5.420  0.2596  0.5727  0.0738
14830TIP3    H165905   3.563   3.867   5.417  0.6520  0.8004  0.2032
14830TIP3    H265906   3.550   3.720   5.380 -1.9377 -0.0335  4.0784
14831TIP3   OH265907   2.842   5.131   2.575  0.2403  0.2102 -0.0669
14831TIP3    H165908   2.800   5.201   2.525  1.8523  0.0900 -1.6262
14831TIP3    H265909   2.928   5.165   2.598  1.1667 -1.3556 -1.1122
14832TIP3   OH265910   5.410   1.829   3.812 -0.1159  0.6107  0.0569
14832TIP3    H165911   5.333   1.885   3.804 -0.6642 -0.4096 -2.2341
14832TIP3    H265912   5.467   1.856   3.739 -0.3719 -1.7587 -1.0435
14833TIP3   OH265913   3.316   2.511   3.266  0.0813  0.2722  0.6089
14833TIP3    H165914   3.366   2.591   3.249  1.1911 -0.6903 -0.7101
14833TIP3    H265915   3.315   2.504   3.362  0.1760  1.7394  0.7233
14834TIP3   OH265916   6.665   2.572   4.229  0.6016 -0.1796 -0.0480
14834TIP3    H165917   6.627   2.610   4.150  2.8450  0.8094 -0.6790
14834TIP3    H265918   6.635   2.481   4.228 -2.4697  0.7717 -0.0247
14835TIP3   OH265919   6.204   1.739  15.908 -0.3021  0.0809 -0.6367
14835TIP3    H165920   6.148   1.753  15.831 -0.3807  0.6792 -0.4710
14835TIP3    H265921   6.221   1.644  15.908  0.2611  0.1652 -1.7923
14836TIP3   OH265922   4.025   1.366   3.146  0.1625  0.3330  0.0185
14836TIP3    H165923   4.098   1.391   3.089 -0.1677 -0.2916 -0.6828
14836TIP3    H265924   4.068   1.323   3.221  0.4999 -0.3959 -0.5829
14837TIP3   OH265925   2.399   4.507   0.999 -0.2074 -0.3033  0.6181
14837TIP3    H165926   2.384   4.414   0.981  0.2884  0.0883 -1.9820
14837TIP3    H265927   2.455   4.507   1.077 -1.2354 -2.1370  1.3870
14838TIP3   OH265928   4.009   2.513  15.358  0.5438 -0.0328 -0.2366
14838TIP3    H165929   3.937   2.518  15.420  0.9276 -2.0947  0.4093
14838TIP3    H265930   3.968   2.514  15.272 -0.1865 -0.2070  0.1133
14839TIP3   OH265931   6.413   5.426   2.119 -0.4876  0.5112  0.1580
14839TIP3    H165932   6.444   5.390   2.201  1.6494  0.3213 -0.7078
14839TIP3    H265933   6.374   5.352   2.073 -1.1586  0.5000  0.7308
14840TIP3   OH265934   6.353   5.516   2.680 -0.3323 -0.1235  0.2512
14840TIP3    H165935   6.374   5.575   2.753  0.6486  0.2516 -0.3305
14840TIP3    H265936   6.359   5.428   2.719  0.5714  0.0551  0.5346
14841TIP3   OH265937   1.856   0.742   4.128 -0.0571 -0.5462  0.1529
14841TIP3    H165938   1.874   0.818   4.073 -1.2334 -0.3039  0.0851
14841TIP3    H265939   1.810   0.777   4.204  1.1057 -0.9507  1.0562
14842TIP3   OH265940   0.476   4.145   1.447 -0.0465 -0.1820  0.2563
14842TIP3    H165941   0.432   4.150   1.532  0.5765  0.8336  0.5335
14842TIP3    H265942   0.441   4.066   1.407  0.5014 -1.2984  1.9243
14843TIP3   OH265943   1.009   2.786   3.926  0.0534  0.0419  0.0383
14843TIP3    H165944   0.952   2.718   3.963 -0.1298  0.1561 -0.0301
14843TIP3    H265945   0.983   2.866   3.971 -0.1407  0.1723 -0.3059
14844TIP3   OH265946   5.042   0.618   2.155  0.5050  0.0624  0.0087
14844TIP3    H165947   5.123   0.644   2.200  0.1441  0.3283  0.5070
14844TIP3    H265948   4.977   0.611   2.224  0.4247 -1.5279 -0.1970
14845TIP3   OH265949   0.556   3.413   5.360  0.6265 -0.6406  0.0184
14845TIP3    H165950   0.603   3.406   5.443  1.6151 -0.7099 -0.5328
14845TIP3    H265951   0.613   3.467   5.305  0.4479 -1.4084 -0.9379
14846TIP3   OH265952   5.408   2.776   5.638  0.3640  0.5392 -0.0043
14846TIP3    H165953   5.500   2.786   5.660  0.5740 -0.5995 -0.3478
14846TIP3    H265954   5.367   2.743   5.718  0.5548 -0.5455 -0.3514
14847TIP3   OH265955   5.545   5.620   1.108  0.5240 -0.0010  0.1426
14847TIP3    H165956   5.617   5.629   1.171 -0.8434 -0.1246  1.7613
14847TIP3    H265957   5.505   5.707   1.104 -1.1625 -0.6575  1.6702
14848TIP3   OH265958   2.863   0.907   3.604 -0.1688  0.2516 -0.6678
14848TIP3    H165959   2.787   0.907   3.546 -0.3838 -0.2641 -0.3951
14848TIP3    H265960   2.840   0.967   3.675 -0.6536 -0.5143 -0.1674
14849TIP3   OH265961   5.706   3.739   2.991  0.0175  0.0556 -0.1446
14849TIP3    H165962   5.770   3.746   3.062 -1.6560  1.4680  1.2800
14849TIP3    H265963   5.637   3.801   3.015 -1.1691 -0.3341 -2.4078
14850TIP3   OH265964   4.746   4.579   4.428 -0.2588 -0.1893 -0.1392
14850TIP3    H165965   4.748   4.627   4.345  1.8409  0.8462  0.4688
14850TIP3    H265966   4.783   4.494   4.407  2.1895  0.7681  0.1074
14851TIP3   OH265967   4.228   2.110   0.648 -0.4986 -0.1532  0.8388
14851TIP3    H165968   4.210   2.104   0.554  2.1488  0.6620  0.2625
14851TIP3    H265969   4.216   2.020   0.680  0.2803 -0.7715 -0.5807
14852TIP3   OH265970   4.798   0.916   5.628 -0.6845  0.1589 -0.3222
14852TIP3    H165971   4.798   0.877   5.715 -0.5878 -2.0660 -1.2751
14852TIP3    H265972   4.708   0.907   5.597  0.0486 -2.4533 -1.8633
14853TIP3   OH265973   2.579   3.382   1.278 -0.0695  0.0813 -0.6606
14853TIP3    H165974   2.606   3.292   1.301 -0.3434  0.4798  1.3287
14853TIP3    H265975   2.620   3.398   1.193  0.2836 -1.8016 -0.8755
14854TIP3   OH265976   4.638   6.505   3.773 -0.1446  0.0346  1.0666
14854TIP3    H165977   4.721   6.526   3.814 -1.1901  1.2683  2.5914
14854TIP3    H265978   4.633   6.410   3.775  1.4307 -0.0707  0.5144
14855TIP3   OH265979   4.709   2.385   4.834  0.6165  0.2649  0.3968
14855TIP3    H165980   4.717   2.295   4.866 -1.6202 -0.0995  0.0217
14855TIP3    H265981   4.778   2.433   4.879  1.5017 -1.5392  0.9933
14856TIP3   OH265982   3.734   4.614  15.627  0.7433  0.2303  0.4303
14856TIP3    H165983   3.702   4.658  15.707 -0.2167  0.6232 -0.1589
14856TIP3    H265984   3.806   4.669  15.597  2.3705 -0.9510  2.0701
14857TIP3   OH265985   5.113   2.660   4.494 -0.0724  0.2829  0.0588
14857TIP3    H165986   5.098   2.744   4.451  0.7399  0.8704  0.9003
14857TIP3    H265987   5.041   2.651   4.555  0.1077  0.6046  0.3198
14858TIP3   OH265988   3.570   0.182   4.145  0.0163  0.3479 -0.0645
14858TIP3    H165989   3.636   0.233   4.097 -0.2926 -0.4336 -1.3490
14858TIP3    H265990   3.508   0.248   4.178  0.0831  0.8874 -0.9890
14859TIP3   OH265991   0.357   4.329   1.048  0.0566  0.3459 -0.4570
14859TIP3    H165992   0.404   4.374   0.978  0.3463  1.2646  0.3135
14859TIP3    H265993   0.276   4.379   1.058  0.0118  0.2105 -0.1455
14860TIP3   OH265994   2.230   4.156   3.104 -0.4481  0.0829 -0.5761
14860TIP3    H165995   2.206   4.230   3.049 -1.6409  0.3968  0.3386
14860TIP3    H265996   2.279   4.194   3.177 -1.4518  0.0469  0.1337
14861TIP3   OH265997   5.532   0.488   5.840 -0.1146 -0.0802  0.1882
14861TIP3    H165998   5.590   0.414   5.856 -1.3151 -1.1340 -0.1654
14861TIP3    H265999   5.450   0.464   5.883  0.1888  2.0866  2.0436
14862TIP3   OH266000   3.963   3.217   4.609 -0.0611  0.8378  0.3811
14862TIP3    H166001   3.977   3.290   4.669  1.3120 -0.4436  1.6392
14862TIP3    H266002   3.901   3.160   4.654  2.6755 -1.2439  1.6080
14863TIP3   OH266003   3.897   5.734   4.277 -0.1273 -0.5432  0.0198
14863TIP3    H166004   3.896   5.781   4.194 -1.1520 -0.7768 -0.1096
14863TIP3    H266005   3.804   5.718   4.297 -0.0184  1.3392  2.2667
14864TIP3   OH266006   1.642   3.452   4.952 -0.2087 -0.1684  0.4261
14864TIP3    H166007   1.702   3.505   5.005  1.1441 -3.5673  2.4691
14864TIP3    H266008   1.588   3.405   5.016 -1.1002 -1.5400 -1.2797
14865TIP3   OH266009   5.317   4.438   3.172 -0.6366  0.1986 -0.1711
14865TIP3    H166010   5.302   4.434   3.267  0.5734 -0.1339  0.0153
14865TIP3    H266011   5.285   4.525   3.147  1.3037  1.2912  0.9798
14866TIP3   OH266012   6.675   2.883   1.783  0.1548  0.1730  0.1726
14866TIP3    H166013   6.598   2.888   1.839  0.7781 -2.0373  1.3092
14866TIP3    H266014   6.739   2.940   1.825 -0.3117  0.7167  0.1470
14867TIP3   OH266015   3.302   3.517   1.883 -0.4728  0.1738  0.4074
14867TIP3    H166016   3.367   3.485   1.946  0.3117  0.0430 -0.4711
14867TIP3    H266017   3.251   3.581   1.933 -0.7939 -0.9716  1.6034
14868TIP3   OH266018   2.441   4.130   5.543  0.2318 -0.0499  0.4822
14868TIP3    H166019   2.409   4.138   5.454  0.6718 -2.5386  0.0599
14868TIP3    H266020   2.527   4.172   5.542 -0.1801  0.7847 -0.0136
14869TIP3   OH266021   0.583   2.497   3.324 -0.3782 -0.5304 -0.3368
14869TIP3    H166022   0.569   2.469   3.414 -0.9584 -2.2418 -0.9415
14869TIP3    H266023   0.536   2.432   3.271  1.7472 -0.7809 -1.9710
14870TIP3   OH266024   3.112   4.213   5.067  0.1091  0.4701 -0.1490
14870TIP3    H166025   3.086   4.154   4.996  2.4566  1.0291 -1.5122
14870TIP3    H266026   3.093   4.163   5.147 -0.4274 -1.0804 -1.2069
14871TIP3   OH266027   4.126   3.780   2.918  0.0272 -0.1474 -0.3636
14871TIP3    H166028   4.035   3.777   2.945 -0.0551 -0.9778 -0.7100
14871TIP3    H266029   4.170   3.716   2.975  0.2874 -0.1735 -0.5922
14872TIP3   OH266030   4.158   0.849   4.339  0.7048  0.0501  0.0063
14872TIP3    H166031   4.190   0.896   4.416 -0.4066  0.0100  0.4955
14872TIP3    H266032   4.202   0.764   4.342  1.8304  0.6135 -0.2434
14873TIP3   OH266033   4.614   0.710   2.272  0.0300 -0.6322 -0.2578
14873TIP3    H166034   4.622   0.743   2.183 -1.6524 -1.3314 -0.6800
14873TIP3    H266035   4.631   0.787   2.327  2.1263 -0.4336 -1.1467
14874TIP3   OH266036   1.200   4.800   3.384  0.2053 -0.2443 -0.3418
14874TIP3    H166037   1.153   4.884   3.378  0.6218 -0.0854 -1.5651
14874TIP3    H266038   1.150   4.749   3.448 -0.1478  0.8775  0.2942
14875TIP3   OH266039   2.937   1.235   3.798 -0.4791  0.1358  0.4701
14875TIP3    H166040   2.861   1.208   3.747  0.0394  1.4656 -1.0216
14875TIP3    H266041   3.012   1.220   3.740  0.3252 -0.4001  1.6316
14876TIP3   OH266042   5.992   2.829   5.035 -0.1169 -0.2469  0.3951
14876TIP3    H166043   6.001   2.852   5.127  0.6957 -0.9582  0.4967
14876TIP3    H266044   5.901   2.800   5.026 -0.1692 -0.2653  0.9901
14877TIP3   OH266045   4.353   7.212  15.252 -0.5612 -0.4628  0.2493
14877TIP3    H166046   4.288   7.276  15.281  0.3711  0.9678 -0.7987
14877TIP3    H266047   4.306   7.128  15.255 -2.1960  0.4293  0.3212
14878TIP3   OH266048   0.126   2.623   0.150 -0.5124 -0.5840 -0.4860
14878TIP3    H166049   0.142   2.567   0.075  1.4559  0.7607 -1.0905
14878TIP3    H266050   0.212   2.641   0.187 -1.0785  2.0173 -0.3035
14879TIP3   OH266051   5.675   2.091   0.716 -0.0436  0.2591  0.9998
14879TIP3    H166052   5.596   2.129   0.756 -0.2602 -0.9679  1.7640
14879TIP3    H266053   5.651   2.000   0.699  1.1951 -0.1084  1.1936
14880TIP3   OH266054   5.493   6.062   3.733 -0.2750 -0.7514 -0.0563
14880TIP3    H166055   5.470   6.143   3.687  1.2249  0.9743  2.1282
14880TIP3    H266056   5.516   6.001   3.663 -1.6183  0.6099 -1.7636
14881TIP3   OH266057   4.475   6.163   1.956  0.1320 -0.0478  0.1680
14881TIP3    H166058   4.519   6.234   2.004 -0.1274 -0.3140  0.8066
14881TIP3    H266059   4.399   6.205   1.916  1.1274  0.4869 -1.2143
14882TIP3   OH266060   6.590   2.009   1.088 -0.2512 -0.3451 -0.7016
14882TIP3    H166061   6.521   1.954   1.052 -1.6805 -0.2589  1.7913
14882TIP3    H266062   6.632   1.955   1.155 -1.1989  1.2975  1.2780
14883TIP3   OH266063   1.280   1.361   3.209  0.5675 -0.1669  0.0308
14883TIP3    H166064   1.340   1.434   3.227  0.6867 -0.1107 -0.5706
14883TIP3    H266065   1.282   1.307   3.288  0.1461  0.7155  0.6532
14884TIP3   OH266066   5.296   2.508   3.293  0.0933 -0.0733  0.0054
14884TIP3    H166067   5.346   2.434   3.260 -0.7104 -1.4172  1.7229
14884TIP3    H266068   5.295   2.496   3.388 -1.5952  1.1422  0.1682
14885TIP3   OH266069   5.614   4.250   2.862 -0.1754  0.0438  0.3881
14885TIP3    H166070   5.678   4.276   2.928  1.0064  0.7690 -1.0174
14885TIP3    H266071   5.642   4.295   2.782 -0.9583 -1.6414 -0.8686
14886TIP3   OH266072   0.326   2.309   6.210 -0.1453 -0.4340 -0.0693
14886TIP3    H166073   0.402   2.282   6.158  0.1965  0.2470  0.0849
14886TIP3    H266074   0.353   2.390   6.253 -0.6590 -0.6479  0.6604
14887TIP3   OH266075   7.162   6.807   3.388  0.4623  0.6566 -0.4594
14887TIP3    H166076   7.191   6.768   3.471 -1.0185 -0.4612 -0.4566
14887TIP3    H266077   7.190   6.898   3.394  2.0827  0.1189  0.4403
14888TIP3   OH266078   6.084   2.552  14.732  0.0942  0.6001 -0.0593
14888TIP3    H166079   6.101   2.643  14.707 -1.1471  1.2633  1.3701
14888TIP3    H266080   6.007   2.558  14.789  0.4268 -1.2779  0.6076
14889TIP3   OH266081   3.937   6.871   3.154  0.1362  0.0708 -0.2840
14889TIP3    H166082   3.897   6.899   3.237  0.2756 -0.9127  0.1170
14889TIP3    H266083   3.863   6.840   3.102  0.2978 -1.1885  0.2321
14890TIP3   OH266084   5.517   2.371   1.048  0.0858 -0.9272  0.1445
14890TIP3    H166085   5.450   2.440   1.041 -0.0510 -0.9026  1.5484
14890TIP3    H266086   5.502   2.315   0.971 -1.2300 -0.6304  0.1715
14891TIP3   OH266087   7.167   4.442   3.725  0.1494 -0.0377 -0.1400
14891TIP3    H166088   7.202   4.365   3.680  0.3134  0.0661 -0.1898
14891TIP3    H266089   7.145   4.503   3.655 -0.0711 -0.0770 -0.1059
14892TIP3   OH266090   6.388   4.665   1.117 -0.1021  0.5260 -0.5130
14892TIP3    H166091   6.294   4.681   1.119  0.0274  1.2684 -0.0437
14892TIP3    H266092   6.404   4.622   1.033 -0.6938  1.4155 -1.0846
14893TIP3   OH266093   2.371   3.800   2.054  0.4944  0.3263  0.4229
14893TIP3    H166094   2.352   3.758   2.138 -2.6619 -1.0715 -0.8833
14893TIP3    H266095   2.325   3.883   2.059 -1.9527 -0.9033 -0.8686
14894TIP3   OH266096   5.252   5.729   1.695  0.5700  0.4325 -0.3724
14894TIP3    H166097   5.319   5.725   1.627  1.5350  1.8493  0.4724
14894TIP3    H266098   5.233   5.823   1.704 -1.8719  0.0376 -0.9320
14895TIP3   OH266099   7.204   1.910   0.736 -0.5636  0.4908 -0.3175
14895TIP3    H166100   7.144   1.852   0.784 -1.0491  0.5735 -0.8259
14895TIP3    H266101   7.280   1.855   0.718 -0.9906  0.0314 -0.7392
14896TIP3   OH266102   5.007   1.542  15.978  0.3448 -0.4091 -0.4436
14896TIP3    H166103   4.925   1.530  15.930 -0.8758  1.1117  1.1912
14896TIP3    H266104   5.062   1.591  15.917 -0.4230 -0.3017 -1.0742
14897TIP3   OH266105   1.724   2.967   5.447  0.1041 -0.5779 -0.5188
14897TIP3    H166106   1.777   3.037   5.483  0.9773 -1.5829  0.1645
14897TIP3    H266107   1.674   3.009   5.377  1.0144  0.6020 -0.4796
14898TIP3   OH266108   0.404   5.312   0.942 -0.3673  0.1049 -0.1252
14898TIP3    H166109   0.500   5.314   0.941 -0.3119 -1.2244  1.2750
14898TIP3    H266110   0.380   5.348   1.027 -1.1902  2.3704 -1.2939
14899TIP3   OH266111   5.677   2.179   1.491 -0.1258  0.2102  0.2648
14899TIP3    H166112   5.725   2.253   1.453 -0.0721  0.7638  1.3967
14899TIP3    H266113   5.671   2.200   1.584  0.6983 -1.6548  0.7503
14900TIP3   OH266114   5.669   2.995   3.513  0.1958  0.2483  0.6459
14900TIP3    H166115   5.681   3.088   3.532 -3.0931  0.7458  0.5271
14900TIP3    H266116   5.578   2.977   3.537  0.3680 -2.6245 -0.6639
14901TIP3   OH266117   5.428   4.219   3.072  0.0860  0.9157 -0.4686
14901TIP3    H166118   5.493   4.237   3.005 -0.3874  1.5086 -0.7764
14901TIP3    H266119   5.407   4.305   3.108  0.9419  0.5189  1.0109
14902TIP3   OH266120   6.142   2.083   2.174 -0.4810  0.5536 -0.2905
14902TIP3    H166121   6.202   2.039   2.113 -0.8426  0.6296 -0.7028
14902TIP3    H266122   6.139   2.026   2.250 -1.4461 -0.4608 -1.0817
14903TIP3   OH266123   0.523   2.997   4.310 -0.0129  0.1826 -0.4298
14903TIP3    H166124   0.614   3.020   4.326 -0.3145  1.0295  0.1329
14903TIP3    H266125   0.491   3.065   4.250 -0.6735  0.7329  0.5391
14904TIP3   OH266126   0.652   0.166   0.910 -0.7300  0.1849  0.1075
14904TIP3    H166127   0.685   0.256   0.912  1.5795 -0.5950 -1.6869
14904TIP3    H266128   0.558   0.176   0.893 -0.6552  2.2599  0.6945
14905TIP3   OH266129   5.265   5.234   1.371 -0.0171 -0.8855  0.2713
14905TIP3    H166130   5.258   5.318   1.324 -1.4011 -0.2107  1.6142
14905TIP3    H266131   5.358   5.216   1.374  0.2787  0.4478 -0.3186
14906TIP3   OH266132   1.162   5.463   1.687  0.0104 -0.3968 -0.5681
14906TIP3    H166133   1.118   5.546   1.671  0.6400 -0.5004 -3.1221
14906TIP3    H266134   1.111   5.399   1.637 -0.0670 -1.4434  0.8204
14907TIP3   OH266135   6.637   3.114   2.820  0.3016 -0.3179  0.6284
14907TIP3    H166136   6.566   3.165   2.860  2.0515  2.4552  0.3549
14907TIP3    H266137   6.598   3.028   2.803 -2.4862  0.6020  1.9932
14908TIP3   OH266138   6.893   1.293   1.824 -0.2075 -0.3664  0.1412
14908TIP3    H166139   6.866   1.244   1.901  0.3435  0.1559  0.6718
14908TIP3    H266140   6.854   1.380   1.835  1.1213  0.1947  0.6056
14909TIP3   OH266141   6.582   1.935   3.756 -0.5018 -0.0255  0.5954
14909TIP3    H166142   6.551   1.894   3.675 -0.1097  0.2101  0.3173
14909TIP3    H266143   6.567   1.870   3.824 -0.8721 -0.2122  0.3349
14910TIP3   OH266144   1.156   3.558   0.315 -0.3924  0.2218 -0.4120
14910TIP3    H166145   1.116   3.475   0.286 -1.1508  0.1446  0.8412
14910TIP3    H266146   1.094   3.625   0.286 -0.1440  0.3074 -0.7577
14911TIP3   OH266147   4.809   0.471   0.378 -0.1701  0.3939 -0.2117
14911TIP3    H166148   4.781   0.561   0.394 -0.9840  0.7001 -3.1170
14911TIP3    H266149   4.895   0.465   0.419  0.0233  2.6005 -0.2366
14912TIP3   OH266150   5.350   1.509   5.299  0.0886  0.2148  0.3375
14912TIP3    H166151   5.340   1.594   5.256  0.5988  0.0403 -0.1278
14912TIP3    H266152   5.394   1.529   5.382 -1.5024  0.6348  1.1038
14913TIP3   OH266153   1.826   3.842   0.521 -0.9568  0.4233  0.3528
14913TIP3    H166154   1.887   3.857   0.449 -1.2791 -0.3406 -0.0856
14913TIP3    H266155   1.740   3.863   0.484 -1.1610 -0.3105  0.4052
14914TIP3   OH266156   1.857   2.928   3.576  0.7189  0.2355  1.0154
14914TIP3    H166157   1.853   2.924   3.480 -1.5117 -1.5767  1.1489
14914TIP3    H266158   1.946   2.900   3.597  1.2947  0.8190 -0.5244
14915TIP3   OH266159   4.290   4.638   3.062 -0.1852  0.4187 -0.0903
14915TIP3    H166160   4.203   4.663   3.032  0.1893  0.7470 -0.9005
14915TIP3    H266161   4.347   4.655   2.988  0.4945 -0.2834  0.2613
14916TIP3   OH266162   1.351   3.576   1.377 -0.1511  0.3482 -0.0092
14916TIP3    H166163   1.327   3.603   1.288  1.8714  1.1044 -0.3646
14916TIP3    H266164   1.397   3.652   1.413  1.4098 -0.9214  0.7157
14917TIP3   OH266165   3.021   2.358   3.250  0.5625  0.5976  0.4440
14917TIP3    H166166   3.096   2.363   3.191  0.5218 -1.8300  0.1428
14917TIP3    H266167   2.998   2.449   3.267  2.1745  1.3541 -1.2447
14918TIP3   OH266168   6.177   0.428   1.168 -0.8830 -0.3418  0.2077
14918TIP3    H166169   6.195   0.451   1.077 -3.3030  0.4395 -0.1084
14918TIP3    H266170   6.088   0.392   1.167 -1.3714  0.6942  2.4100
14919TIP3   OH266171   6.794   3.784   4.036 -0.6672 -0.1323 -0.3104
14919TIP3    H166172   6.797   3.794   4.131 -3.5589  0.3517 -0.2166
14919TIP3    H266173   6.762   3.868   4.004 -1.9486 -1.0573 -1.5135
14920TIP3   OH266174   1.094   2.414   0.219 -0.0985 -0.4553  0.2544
14920TIP3    H166175   1.138   2.367   0.148  1.9071 -1.0148  1.8164
14920TIP3    H266176   1.056   2.344   0.273 -1.7311 -0.0265 -0.3019
14921TIP3   OH266177   5.645   2.649   3.298  0.4097 -0.0349 -0.9843
14921TIP3    H166178   5.569   2.613   3.345 -0.7027  2.3038 -0.9297
14921TIP3    H266179   5.720   2.628   3.353 -0.3733 -1.0920 -0.3053
14922TIP3   OH266180   4.376   5.790   2.517  0.6769 -0.0289 -0.6334
14922TIP3    H166181   4.295   5.769   2.564 -0.0292  0.2596 -1.6946
14922TIP3    H266182   4.348   5.847   2.445  2.1528  2.0110  0.3594
14923TIP3   OH266183   1.477   3.075   2.553  0.2875  0.6742 -0.0913
14923TIP3    H166184   1.385   3.063   2.531  0.8313 -1.6710 -1.1971
14923TIP3    H266185   1.488   3.029   2.636  0.9291 -0.9955 -1.0736
14924TIP3   OH266186   5.954   2.916   3.844 -0.4945  0.6096  0.4067
14924TIP3    H166187   6.011   2.992   3.838 -1.2736  1.1787  0.0332
14924TIP3    H266188   5.880   2.947   3.897 -1.4697  0.5299 -0.8879
14925TIP3   OH266189   3.064   3.688   1.280 -0.7223  0.2333  0.3868
14925TIP3    H166190   3.114   3.634   1.340  0.7876  0.8160 -0.3176
14925TIP3    H266191   3.029   3.759   1.334  0.4338  0.6308  0.6227
14926TIP3   OH266192   5.075   4.623   0.709  0.0556  0.2097  0.4091
14926TIP3    H166193   4.988   4.661   0.697  0.2568  0.5806  0.1149
14926TIP3    H266194   5.108   4.665   0.789 -0.2556 -0.3453  0.8344
14927TIP3   OH266195   3.541   3.201   2.134  0.3066  0.0327 -0.4923
14927TIP3    H166196   3.508   3.282   2.095 -0.4465 -0.4591 -0.8790
14927TIP3    H266197   3.502   3.199   2.222  0.7878  0.3703 -0.2637
14928TIP3   OH266198   2.707   5.014   0.636 -0.3258  0.8014 -0.7490
14928TIP3    H166199   2.740   4.981   0.552 -0.3269  0.6613 -0.6948
14928TIP3    H266200   2.785   5.027   0.689 -0.5165 -2.0379  0.2935
14929TIP3   OH266201   0.990   3.587   2.136  0.2675 -0.3927 -0.5491
14929TIP3    H166202   0.950   3.528   2.072  1.2026 -1.0523 -0.5351
14929TIP3    H266203   0.934   3.665   2.135 -0.8306 -1.1731 -0.7526
14930TIP3   OH266204   2.593   1.220   1.238  0.0587  0.3314  0.0515
14930TIP3    H166205   2.585   1.177   1.323 -1.3089  0.6119  0.0638
14930TIP3    H266206   2.509   1.205   1.194 -0.1091  2.1889 -0.3131
14931TIP3   OH266207   5.996   1.986   1.521  0.5652 -0.6440  0.5159
14931TIP3    H166208   5.972   1.991   1.429  1.6264 -1.3757  0.1882
14931TIP3    H266209   6.087   2.016   1.524 -0.0393  1.1511  1.5891
14932TIP3   OH266210   6.521   0.747   3.251  0.4218  0.8409 -0.6664
14932TIP3    H166211   6.511   0.842   3.248 -0.1923  0.8216  0.6217
14932TIP3    H266212   6.592   0.733   3.314 -0.7790  0.3625  0.5900
14933TIP3   OH266213   1.390   2.071   1.646  0.1867 -0.0924  0.6256
14933TIP3    H166214   1.408   1.981   1.619  0.2544  0.3160 -0.6841
14933TIP3    H266215   1.296   2.072   1.664  0.1954 -0.4381  0.7000
14934TIP3   OH266216   6.488   2.624   2.572 -0.3241 -0.3282 -0.0489
14934TIP3    H166217   6.512   2.538   2.608  0.4491  0.9380  2.5902
14934TIP3    H266218   6.546   2.634   2.496 -0.8938 -2.4167 -0.7918
14935TIP3   OH266219   6.003   3.423   2.213  0.6166  0.8686 -0.0609
14935TIP3    H166220   5.917   3.386   2.235  0.6098 -0.5294 -2.3551
14935TIP3    H266221   5.982   3.508   2.175 -0.1014 -1.0841 -4.3057
14936TIP3   OH266222   5.446   4.507   1.713  0.3885 -0.2594  0.1371
14936TIP3    H166223   5.512   4.478   1.775  0.1229 -1.4013 -0.0909
14936TIP3    H266224   5.371   4.449   1.729  0.3281 -0.5972 -1.2397
14937TIP3   OH266225   4.985   2.860   3.836 -0.0280 -0.2385 -0.6117
14937TIP3    H166226   5.072   2.886   3.868  0.2725 -1.7479 -0.1433
14937TIP3    H266227   4.927   2.931   3.863  1.1809  1.1457 -1.5735
14938TIP3   OH266228   5.186   6.537   0.507 -0.2410 -0.4749 -0.1737
14938TIP3    H166229   5.277   6.527   0.480 -1.0870 -0.0110 -3.5343
14938TIP3    H266230   5.160   6.451   0.540  1.2973 -0.7136  0.4054
14939TIP3   OH266231   6.961   2.353   2.315 -0.8757  0.0370 -0.6363
14939TIP3    H166232   6.988   2.373   2.225 -1.4423 -1.6444 -1.2056
14939TIP3    H266233   6.910   2.272   2.307 -1.5767  0.2907  1.1054
14940TIP3   OH266234   3.116   0.116   0.902  0.6067  0.4740  0.1555
14940TIP3    H166235   3.071   0.129   0.985 -0.0039 -0.4253 -0.0229
14940TIP3    H266236   3.195   0.170   0.908  0.8617 -0.0425  1.5533
14941TIP3   OH266237   6.005   1.627   0.145 -0.3233 -0.2449 -0.2527
14941TIP3    H166238   5.987   1.534   0.131 -1.5530 -0.2954  1.5461
14941TIP3    H266239   6.095   1.629   0.178 -0.2387 -0.7940 -0.4487
14942TIP3   OH266240   5.847   4.674   4.553  0.5563  0.2529 -0.1956
14942TIP3    H166241   5.774   4.727   4.523  0.4240  0.5409  0.6274
14942TIP3    H266242   5.822   4.584   4.532 -1.2481  0.0639  2.4647
14943TIP3   OH266243   4.402   2.624   3.936  0.2114  0.3197 -0.4288
14943TIP3    H166244   4.386   2.585   3.850 -0.3917 -0.7574  0.1594
14943TIP3    H266245   4.316   2.630   3.977  0.5336  0.4654  0.2404
14944TIP3   OH266246   6.982   2.503  15.989  0.0674  0.8715  0.5710
14944TIP3    H166247   7.013   2.418  16.021  0.7693  1.7492  2.2929
14944TIP3    H266248   6.959   2.552  16.069 -0.6445  2.1722 -0.4157
14945TIP3   OH266249   0.626   4.581   4.966  0.1474  0.0567 -0.0021
14945TIP3    H166250   0.620   4.487   4.951 -0.3341 -0.1157  1.2109
14945TIP3    H266251   0.678   4.590   5.045  0.6675  0.8420 -0.4250
14946TIP3   OH266252   7.153   4.065   0.341 -0.6127 -0.2329  0.3275
14946TIP3    H166253   7.093   4.098   0.274  0.4158  0.3730 -0.3023
14946TIP3    H266254   7.159   4.137   0.405 -0.2112 -0.1122  0.1566
14947TIP3   OH266255   0.936   4.397   2.587  0.2025 -0.3806  0.1808
14947TIP3    H166256   0.939   4.364   2.497 -2.1437  2.3604 -0.9904
14947TIP3    H266257   0.845   4.423   2.600  0.8900  0.9097  2.7296
14948TIP3   OH266258   3.782   3.388   4.088 -0.6773 -0.2952 -0.1136
14948TIP3    H166259   3.728   3.309   4.085 -1.1092  0.0322 -1.0922
14948TIP3    H266260   3.771   3.429   4.002 -1.5160  1.5407  0.8353
14949TIP3   OH266261   6.859   1.171  15.317  0.1978 -0.6876 -0.8417
14949TIP3    H166262   6.867   1.192  15.410  3.2717 -1.1041 -0.9691
14949TIP3    H266263   6.851   1.255  15.274 -0.7201 -0.4642 -0.2493
14950TIP3   OH266264   5.754   0.407   4.854  0.2068  0.6816 -0.0039
14950TIP3    H166265   5.804   0.433   4.776  1.1262  1.5006  0.8433
14950TIP3    H266266   5.680   0.467   4.857  1.0955  1.7566  0.6855
14951TIP3   OH266267   4.224   5.424   1.696  1.0808  0.1816  0.4153
14951TIP3    H166268   4.196   5.367   1.767  0.7605  0.9778  0.9396
14951TIP3    H266269   4.170   5.397   1.621  0.3617  0.3264  0.8724
14952TIP3   OH266270   0.378   3.910   0.822 -0.7175  0.2144 -0.1277
14952TIP3    H166271   0.366   3.868   0.736  1.9419 -1.1692  0.1261
14952TIP3    H266272   0.409   3.998   0.802 -3.2660  1.0670 -0.5974
14953TIP3   OH266273   1.615   3.011   0.881 -0.4490 -0.0371 -0.0717
14953TIP3    H166274   1.659   3.020   0.797 -0.9047 -1.0719 -0.4369
14953TIP3    H266275   1.685   3.022   0.946 -0.2994  1.8853 -0.5494
14954TIP3   OH266276   5.541   1.721   3.211 -0.1072 -0.1219  0.3735
14954TIP3    H166277   5.556   1.766   3.128 -0.9525 -0.6088 -0.0490
14954TIP3    H266278   5.599   1.765   3.273  1.8847 -0.9451 -0.8649
14955TIP3   OH266279   0.232   1.366   5.295 -0.4179 -0.4990 -0.0814
14955TIP3    H166280   0.248   1.311   5.372 -0.2509  1.0361  1.0139
14955TIP3    H266281   0.142   1.347   5.271  0.0872 -2.3108 -0.6042
14956TIP3   OH266282   6.005   2.096   2.781  0.4453 -0.3781  0.1115
14956TIP3    H166283   5.928   2.082   2.725 -0.3200  0.5984  0.8914
14956TIP3    H266284   6.067   2.142   2.724  1.3326 -3.0717 -1.1795
14957TIP3   OH266285   5.019   0.938   1.995  0.2767  1.1236 -0.1623
14957TIP3    H166286   5.031   0.844   2.008 -1.7429  0.8476 -0.1693
14957TIP3    H266287   5.102   0.977   2.023  0.8923 -0.6066  0.4712
14958TIP3   OH266288   6.733   4.456   1.192 -0.6979 -0.4525  0.1619
14958TIP3    H166289   6.646   4.430   1.222 -0.5763 -0.2319  0.7169
14958TIP3    H266290   6.745   4.544   1.228  0.0995 -0.8161  0.8057
14959TIP3   OH266291   5.388   2.217   2.488  0.0596 -0.4861 -0.2326
14959TIP3    H166292   5.318   2.179   2.436  1.7462 -2.2314 -1.3054
14959TIP3    H266293   5.386   2.168   2.570  0.2252 -0.7481 -0.3853
14960TIP3   OH266294   2.452   2.707  15.263  0.1460  0.4718 -0.6128
14960TIP3    H166295   2.519   2.746  15.207  0.1555  0.5904 -0.5177
14960TIP3    H266296   2.384   2.680  15.202 -0.3682  1.6473 -0.5847
14961TIP3   OH266297   0.851   5.802   0.973 -0.3375  0.1679 -0.1867
14961TIP3    H166298   0.829   5.742   0.901  0.8854  0.4913 -0.8540
14961TIP3    H266299   0.944   5.788   0.988 -0.0630  1.8048 -0.2591
14962TIP3   OH266300   7.085   1.893   1.486  0.9219 -0.5245 -0.3694
14962TIP3    H166301   7.080   1.887   1.582  0.7675  0.4161 -0.3154
14962TIP3    H266302   7.002   1.934   1.460  1.8322  1.1348 -0.7269
14963TIP3   OH266303   5.149   3.959   5.467  0.0272  0.2828 -0.4323
14963TIP3    H166304   5.206   4.014   5.522  0.4076  2.6370 -3.0563
14963TIP3    H266305   5.066   4.008   5.463 -0.4778 -0.5911 -0.8049
14964TIP3   OH266306   3.815   5.406   2.449  0.1519  0.4590 -0.4165
14964TIP3    H166307   3.830   5.343   2.520 -0.3567 -1.5117 -2.0019
14964TIP3    H266308   3.719   5.413   2.443  0.1600 -0.3744 -1.7315
14965TIP3   OH266309   4.364   3.165   1.570 -0.4517 -0.1260  0.7032
14965TIP3    H166310   4.451   3.149   1.532  0.1779  1.0667  1.6087
14965TIP3    H266311   4.303   3.129   1.505  0.7054 -0.7754 -0.0474
14966TIP3   OH266312   0.448   4.460   0.779  0.2763 -0.1499 -0.0494
14966TIP3    H166313   0.525   4.474   0.724  0.5726  1.1700  0.6929
14966TIP3    H266314   0.402   4.544   0.778 -2.3127 -1.5145 -2.2228
14967TIP3   OH266315   4.536   4.122   0.555 -0.6297  0.7756 -0.1059
14967TIP3    H166316   4.536   4.122   0.459 -0.3554 -0.0176 -0.1068
14967TIP3    H266317   4.481   4.048   0.579  0.6337 -0.0228  0.3452
14968TIP3   OH266318   5.509   1.890   5.548 -0.4583 -0.0163 -0.6704
14968TIP3    H166319   5.500   1.978   5.585 -1.0820  0.0756 -1.0295
14968TIP3    H266320   5.468   1.832   5.613 -0.0206 -0.0460 -0.4197
14969TIP3   OH266321   3.252   2.156   2.306 -0.4376  0.3128  0.2357
14969TIP3    H166322   3.316   2.164   2.235 -0.8825  1.0121 -0.0953
14969TIP3    H266323   3.303   2.127   2.382  0.1136 -0.0134 -0.2567
14970TIP3   OH266324   7.146   2.546   3.455 -0.0079 -0.8813 -0.0129
14970TIP3    H166325   7.195   2.512   3.529  0.9769  0.9168  0.2005
14970TIP3    H266326   7.211   2.592   3.402 -1.3326  1.0139 -0.0610
14971TIP3   OH266327   1.019   0.140   2.999  0.1034 -0.4210  0.4100
14971TIP3    H166328   0.949   0.183   2.950  0.6632  0.6064  0.4951
14971TIP3    H266329   1.017   0.180   3.086  0.7231 -0.4656  0.4498
14972TIP3   OH266330   6.901   6.952   3.024  0.1708  0.1218 -0.5455
14972TIP3    H166331   6.961   6.968   2.951  0.5199  2.2081  0.1701
14972TIP3    H266332   6.816   6.980   2.990 -0.0300 -0.8418 -0.8422
14973TIP3   OH266333   4.745   1.834   3.157 -0.0788  0.1482  0.7168
14973TIP3    H166334   4.834   1.802   3.165 -0.6585 -1.5772  0.6113
14973TIP3    H266335   4.691   1.764   3.194 -1.4763  0.4820 -0.5982
14974TIP3   OH266336   1.015   3.906   3.584 -0.3173 -0.1768  0.2186
14974TIP3    H166337   1.107   3.896   3.560  0.4795 -1.4666  3.4672
14974TIP3    H266338   0.971   3.836   3.536  0.7363 -0.8155  0.1441
14975TIP3   OH266339   5.922   5.614  15.792 -0.9701  0.2467 -0.2926
14975TIP3    H166340   6.004   5.663  15.783 -0.4021 -0.2403  2.0193
14975TIP3    H266341   5.877   5.654  15.866 -2.8304  0.4938 -1.5322
14976TIP3   OH266342   6.651   1.518   2.375  0.6152  0.3122 -0.4494
14976TIP3    H166343   6.608   1.496   2.458  0.9917  1.6145  0.1064
14976TIP3    H266344   6.652   1.435   2.326 -1.3005 -0.0433  0.0638
14977TIP3   OH266345   0.792   7.180   0.250  0.0936 -0.0823 -0.2790
14977TIP3    H166346   0.727   7.133   0.197 -0.3987 -0.0927  0.3368
14977TIP3    H266347   0.742   7.247   0.296  0.2064 -1.2599  1.6203
14978TIP3   OH266348   1.139   3.486   2.748 -0.2275 -0.3672 -0.4089
14978TIP3    H166349   1.147   3.552   2.680 -2.3390 -2.5559 -2.9067
14978TIP3    H266350   1.216   3.430   2.738  0.9517  0.9732  0.9409
14979TIP3   OH266351   6.793   3.309  15.132 -0.2564 -0.7265  0.2512
14979TIP3    H166352   6.757   3.370  15.067  2.6100 -0.0594 -0.8165
14979TIP3    H266353   6.784   3.223  15.091 -1.1654 -0.6395  0.2609
14980TIP3   OH266354   0.744   6.003   4.897 -0.2912 -0.2002  0.0805
14980TIP3    H166355   0.760   6.087   4.939  0.4105 -0.3978  0.2084
14980TIP3    H266356   0.738   5.940   4.969  2.2052 -0.7591 -0.1386
14981TIP3   OH266357   6.675   6.940   3.511 -0.1879 -0.3815 -0.5585
14981TIP3    H166358   6.760   6.911   3.479 -0.4287 -1.9720  0.1761
14981TIP3    H266359   6.681   7.036   3.513  1.3378 -0.4549 -1.1374
14982TIP3   OH266360   4.442   0.834   0.619 -0.2770 -0.0497 -0.0011
14982TIP3    H166361   4.385   0.761   0.643  0.3347 -0.4381  0.2804
14982TIP3    H266362   4.497   0.799   0.549  0.2280  0.0429  0.3455
14983TIP3   OH266363   3.500   3.750   3.567  0.3500  0.2942 -0.0344
14983TIP3    H166364   3.458   3.683   3.513 -0.2306  1.3614 -0.9275
14983TIP3    H266365   3.592   3.722   3.572  0.1776 -0.4009 -0.6785
14984TIP3   OH266366   1.592   2.283   2.653 -0.2300  0.0695 -0.3798
14984TIP3    H166367   1.601   2.332   2.735 -1.3148 -2.0386  1.0542
14984TIP3    H266368   1.521   2.221   2.670 -1.5360  0.6318 -3.4567
14985TIP3   OH266369   5.875   0.803  15.696  0.6618  0.3980 -0.0683
14985TIP3    H166370   5.959   0.817  15.740  0.1751  0.9170  0.7231
14985TIP3    H266371   5.822   0.880  15.720 -0.5151 -0.6060  0.6182
14986TIP3   OH266372   0.180   2.788   5.194 -0.5015 -0.2680  0.6980
14986TIP3    H166373   0.274   2.804   5.186 -0.4765  0.0395  1.6204
14986TIP3    H266374   0.139   2.864   5.154 -0.3696 -0.9735 -0.8443
14987TIP3   OH266375   6.677   2.236   4.574  0.4479  0.1082 -0.1984
14987TIP3    H166376   6.666   2.142   4.555  0.2673  0.2849 -0.9982
14987TIP3    H266377   6.602   2.258   4.629  0.2587 -0.1257 -0.3579
14988TIP3   OH266378   7.203   4.901   1.028 -0.7852 -0.5167  0.3550
14988TIP3    H166379   7.124   4.887   0.975 -0.1805  1.3650 -1.0574
14988TIP3    H266380   7.274   4.909   0.964  0.3441 -0.7592  1.5641
14989TIP3   OH266381   1.117   0.169   3.457 -0.2160  0.1657  0.1112
14989TIP3    H166382   1.061   0.212   3.521  0.2972  0.6582  0.2234
14989TIP3    H266383   1.187   0.130   3.508  1.6323  2.7545 -0.3692
14990TIP3   OH266384   3.373   4.389   3.793  0.3853  0.1315  0.9966
14990TIP3    H166385   3.355   4.452   3.863 -0.5839  1.2690 -0.2612
14990TIP3    H266386   3.333   4.308   3.822 -0.6380  0.7904  1.4353
14991TIP3   OH266387   2.233   5.856   2.465  0.3012 -0.5741  0.4624
14991TIP3    H166388   2.171   5.924   2.439 -0.5133 -1.5057 -0.1212
14991TIP3    H266389   2.274   5.828   2.383  0.8443 -0.5772  0.7321
14992TIP3   OH266390   6.978   3.770   2.813 -0.0349 -0.6023 -0.3920
14992TIP3    H166391   6.921   3.700   2.782 -0.0013 -1.4619  1.4802
14992TIP3    H266392   7.061   3.727   2.833  0.9357  0.4608 -1.9912
14993TIP3   OH266393   7.247   3.566   3.391  0.5238  0.2286  0.4240
14993TIP3    H166394   7.159   3.575   3.356  0.8494 -1.6983 -0.9998
14993TIP3    H266395   7.247   3.482   3.436  1.3540  0.6744  1.2916
14994TIP3   OH266396   6.685   4.314   0.071  0.4384 -0.9502 -0.0082
14994TIP3    H166397   6.604   4.264   0.079 -0.0111 -0.4514 -1.3284
14994TIP3    H266398   6.660   4.404   0.090  0.1513 -0.3923 -2.7936
14995TIP3   OH266399   2.363   1.222   2.732 -0.1770  0.4452 -0.1653
14995TIP3    H166400   2.294   1.157   2.746  1.0006 -0.9691 -0.8872
14995TIP3    H266401   2.406   1.195   2.651  1.2736  1.2774  0.3170
14996TIP3   OH266402   1.070   3.432  15.743  0.1123 -0.3443 -0.4275
14996TIP3    H166403   1.106   3.345  15.758 -0.3472 -0.4460  0.0787
14996TIP3    H266404   1.021   3.423  15.661 -1.2682 -0.9741  0.4560
14997TIP3   OH266405   6.586   3.261   3.497 -0.2829 -0.4208  0.1581
14997TIP3    H166406   6.585   3.220   3.410 -2.0879 -0.1862  0.0451
14997TIP3    H266407   6.621   3.194   3.555  0.0355 -0.9129 -0.5925
14998TIP3   OH266408   6.464   4.232   0.406 -0.0221  0.6278  0.1427
14998TIP3    H166409   6.521   4.194   0.340 -0.8201  0.8972 -0.7048
14998TIP3    H266410   6.496   4.195   0.489  1.4401  0.8540 -0.3027
14999TIP3   OH266411   1.152   3.012   4.422  0.6535  0.2566  0.0222
14999TIP3    H166412   1.138   3.087   4.364 -0.2148  0.6845  0.7829
14999TIP3    H266413   1.238   3.028   4.460  0.9791  0.2699 -0.6961
15000TIP3   OH266414   5.904   0.460   4.041  0.4392 -0.4435 -0.1784
15000TIP3    H166415   5.815   0.437   4.012 -0.0227  2.1374 -0.9297
15000TIP3    H266416   5.961   0.399   3.994 -0.9959 -2.9484  1.2363
15001TIP3   OH266417   4.498   0.622   3.515  0.2372 -0.4132  0.2902
15001TIP3    H166418   4.548   0.681   3.458 -0.3402 -0.6103 -0.4165
15001TIP3    H266419   4.484   0.673   3.595  0.7651 -0.0214  0.1344
15002TIP3   OH266420   5.997   4.693   4.141  0.1771 -0.7078 -0.0700
15002TIP3    H166421   5.994   4.727   4.052  1.3063  0.8740  0.4528
15002TIP3    H266422   5.961   4.764   4.195  0.3673 -1.2747  0.8170
15003TIP3   OH266423   0.641   5.480   0.859 -0.2377  0.0319 -0.1595
15003TIP3    H166424   0.574   5.525   0.808 -1.9720 -0.4426  1.6271
15003TIP3    H266425   0.650   5.533   0.938 -1.4275 -2.0883  1.4215
15004TIP3   OH266426   5.578   6.553   4.099 -0.6044 -0.6474  0.0343
15004TIP3    H166427   5.588   6.459   4.116  1.1585 -0.6412 -0.9084
15004TIP3    H266428   5.607   6.565   4.009 -1.4653  0.7140 -0.0782
15005TIP3   OH266429   5.601   1.011   2.221 -0.5831  0.1818 -0.1762
15005TIP3    H166430   5.593   0.969   2.135 -0.4848  0.0931 -0.1433
15005TIP3    H266431   5.620   1.103   2.201  1.5438 -0.2366 -0.2597
15006TIP3   OH266432   7.231   3.135   3.833  0.2591  0.0450 -0.0787
15006TIP3    H166433   7.301   3.106   3.891  0.4161  0.6260  0.0283
15006TIP3    H266434   7.274   3.197   3.774 -0.4744  1.6261  0.9945
15007TIP3   OH266435   5.407   3.889   4.457 -0.4300  0.4278  0.6490
15007TIP3    H166436   5.472   3.925   4.517  3.3895 -0.3342 -2.8164
15007TIP3    H266437   5.422   3.794   4.461 -1.4572  0.2293 -0.0586
15008TIP3   OH266438   4.147   4.687   2.545 -0.3088 -0.1021 -0.0370
15008TIP3    H166439   4.202   4.762   2.562 -1.6774  1.0828 -0.7169
15008TIP3    H266440   4.092   4.679   2.623 -1.6438  0.9549 -0.8308
15009TIP3   OH266441   4.075   4.279   2.823 -0.0698 -0.2506  0.0527
15009TIP3    H166442   4.140   4.345   2.798 -0.9566  0.5943 -0.0793
15009TIP3    H266443   4.072   4.284   2.918 -0.0990 -0.1386  0.0460
15010TIP3   OH266444   0.079   3.036   4.039  0.6243 -0.2461 -0.1042
15010TIP3    H166445   0.076   3.066   4.130  0.2984 -0.1106 -0.1564
15010TIP3    H266446   0.122   2.950   4.044 -1.0625 -1.0958  0.4263
15011TIP3   OH266447   0.853   2.292   3.651  0.0988 -1.2184  0.1269
15011TIP3    H166448   0.771   2.338   3.669 -0.5174 -1.4020 -2.0985
15011TIP3    H266449   0.910   2.316   3.724 -0.6814  1.9432 -0.1978
15012TIP3   OH266450   7.214   1.693   1.143  0.2303  0.0340 -0.2484
15012TIP3    H166451   7.282   1.684   1.076 -1.8493 -2.0109 -2.1889
15012TIP3    H266452   7.160   1.766   1.114 -0.5289 -0.6992 -0.7368
15013TIP3   OH266453   0.695   2.351   4.307 -0.1513 -0.6619 -0.2460
15013TIP3    H166454   0.644   2.270   4.301 -0.5714 -0.4135 -0.0793
15013TIP3    H266455   0.770   2.336   4.251 -1.5063 -0.2441 -2.2307
15014TIP3   OH266456   6.982   3.183   2.424 -0.4217 -0.5221  0.5636
15014TIP3    H166457   7.003   3.233   2.502  1.2225 -0.1991 -0.0770
15014TIP3    H266458   6.886   3.182   2.421 -0.5072  2.8981  0.4204
15015TIP3   OH266459   1.496   2.353   3.973 -0.0971 -0.4249  0.0571
15015TIP3    H166460   1.533   2.299   4.043 -2.0377  0.9617  2.2142
15015TIP3    H266461   1.487   2.440   4.011 -0.7915  0.4675 -2.0687
15016TIP3   OH266462   5.924   4.131   3.569 -0.0332 -0.5478 -0.0772
15016TIP3    H166463   5.949   4.220   3.596  0.9371 -0.9400  0.3405
15016TIP3    H266464   6.002   4.094   3.529 -0.6868 -0.9240 -1.0381
15017TIP3   OH266465   6.086   2.897   2.349 -0.1498  0.4623  0.2137
15017TIP3    H166466   5.994   2.883   2.325 -0.2690 -0.8876  1.3610
15017TIP3    H266467   6.081   2.948   2.430  0.1515  1.6020 -0.4795
15018TIP3   OH266468   5.772   1.067   4.625 -0.0851 -0.0139  0.3687
15018TIP3    H166469   5.821   1.109   4.554 -2.3713  2.8231  0.3644
15018TIP3    H266470   5.700   1.022   4.582 -0.8916  0.8615  0.7781
15019TIP3   OH266471   6.197   2.181   4.725 -0.2029  0.0889  0.4202
15019TIP3    H166472   6.185   2.098   4.679 -0.2840  0.0430  0.5271
15019TIP3    H266473   6.112   2.224   4.721  0.3954  1.1716 -1.6262
15020TIP3   OH266474   0.243   2.257   0.917  0.3791 -0.4325  0.3852
15020TIP3    H166475   0.281   2.199   0.852  0.2232 -0.1342  0.0247
15020TIP3    H266476   0.177   2.307   0.869 -1.6020 -2.0715  1.3463
15021TIP3   OH266477   6.663   5.508   0.395  0.3867  0.1908 -0.4928
15021TIP3    H166478   6.632   5.597   0.381 -0.2115  0.1580  0.5332
15021TIP3    H266479   6.589   5.464   0.438  1.4025 -0.2525  0.8155
15022TIP3   OH266480   6.622   3.366   2.956  0.2997 -0.5205  0.0696
15022TIP3    H166481   6.661   3.424   2.891 -0.0696 -0.5254 -0.1546
15022TIP3    H266482   6.549   3.416   2.991 -0.6872 -1.2739 -0.8917
15023TIP3   OH266483   3.696   1.532   1.738 -0.1600  0.1725  0.4070
15023TIP3    H166484   3.747   1.452   1.727 -1.1702 -0.8025  2.5052
15023TIP3    H266485   3.640   1.537   1.661  1.3592 -0.0341 -0.7222
15024TIP3   OH266486   2.743   3.152   1.465 -0.1263 -0.2418 -0.3574
15024TIP3    H166487   2.788   3.068   1.462 -0.9364 -0.7096  0.4061
15024TIP3    H266488   2.707   3.157   1.553  0.1786  1.0523 -0.2903
15025TIP3   OH266489   6.716   3.843   5.176 -0.4789  0.1728  0.0321
15025TIP3    H166490   6.678   3.914   5.228 -0.2407  1.4460 -1.5213
15025TIP3    H266491   6.641   3.788   5.154 -1.2417  1.8598 -1.7344
15026TIP3   OH266492   4.044   0.806   1.264 -0.0140 -0.7278  0.6835
15026TIP3    H166493   4.099   0.859   1.206  0.6221 -0.8412  1.1798
15026TIP3    H266494   3.968   0.783   1.211  0.2715 -0.3067  0.0924
15027TIP3   OH266495   1.311   6.966   0.736 -0.3689  0.6329 -0.4637
15027TIP3    H166496   1.385   6.989   0.793 -1.4369 -0.2118  1.3120
15027TIP3    H266497   1.343   6.982   0.647  1.8614  0.5052  0.2878
15028TIP3   OH266498   7.043   2.743   3.633 -0.4763  0.0511  0.6352
15028TIP3    H166499   7.073   2.682   3.565 -0.1981 -0.6698  1.4042
15028TIP3    H266500   6.950   2.755   3.615 -0.4583 -0.3349  0.2835
15029TIP3   OH266501   5.877   3.083   0.702  0.5445  0.1731  0.0655
15029TIP3    H166502   5.930   3.005   0.719 -1.7675 -1.3348  0.6817
15029TIP3    H266503   5.855   3.077   0.609 -0.1785 -0.2870  0.2604
15030TIP3   OH266504   6.045   3.087   2.567 -0.0888  0.1971 -0.2370
15030TIP3    H166505   5.966   3.139   2.581 -0.8545 -1.3184  1.3923
15030TIP3    H266506   6.031   3.008   2.621  2.5056 -0.1210  0.0340
15031TIP3   OH266507   5.991   3.552   5.389 -0.1486 -0.4291 -0.3556
15031TIP3    H166508   6.004   3.631   5.338 -0.5739  0.6577  1.1647
15031TIP3    H266509   5.992   3.582   5.480 -0.7660 -2.0991  0.2288
15032TIP3   OH266510   1.766   0.814   4.359 -0.9612 -0.2599  0.5952
15032TIP3    H166511   1.799   0.903   4.344  0.0444 -0.5800  0.8893
15032TIP3    H266512   1.788   0.795   4.450 -0.0668 -1.2670  0.1827
15033TIP3   OH266513   1.080   4.167   2.736 -0.4738 -0.3569  0.0700
15033TIP3    H166514   1.013   4.226   2.703  0.3718  0.6432  0.1037
15033TIP3    H266515   1.061   4.157   2.829 -0.0529  0.6564  0.2732
15034TIP3   OH266516   0.114   1.662   4.443 -0.0809  0.1663 -0.4346
15034TIP3    H166517   0.180   1.657   4.512 -0.1824  1.5057 -0.2279
15034TIP3    H266518   0.081   1.572   4.435  0.1002 -0.0535  1.1050
15035TIP3   OH266519   6.074   4.757   3.518 -0.2138 -0.6465 -0.3573
15035TIP3    H166520   6.127   4.804   3.453  0.0910 -0.2110  0.1965
15035TIP3    H266521   5.985   4.788   3.502  0.0361  0.4123  0.2429
15036TIP3   OH266522   0.831   2.005   3.715 -0.6884 -0.2625  0.4582
15036TIP3    H166523   0.736   2.016   3.724 -0.7541 -0.8924  0.5176
15036TIP3    H266524   0.865   2.095   3.716 -1.2636 -0.0424  0.6376
15037TIP3   OH266525   6.094   4.554  15.601  0.1450 -0.0654 -0.0991
15037TIP3    H166526   6.052   4.626  15.556 -1.4321  0.0938  1.5546
15037TIP3    H266527   6.123   4.591  15.685 -0.0111 -1.1484  0.4512
15038TIP3   OH266528   4.776   3.480   3.482  0.9073  0.0027 -0.4961
15038TIP3    H166529   4.700   3.506   3.535  1.3532 -0.9024  0.5963
15038TIP3    H266530   4.851   3.495   3.539  1.4603 -0.1673 -1.1795
15039TIP3   OH266531   2.131   4.063   5.963 -0.0175  0.4257  0.6615
15039TIP3    H166532   2.040   4.053   5.935 -0.0149 -1.1074  1.1775
15039TIP3    H266533   2.178   4.089   5.884 -0.2846 -2.2367 -0.4057
15040TIP3   OH266534   0.380   4.962   2.211  0.0378  0.4279  0.3150
15040TIP3    H166535   0.458   4.991   2.257  1.2575 -1.8250 -0.2571
15040TIP3    H266536   0.356   4.880   2.254  0.5475 -1.1287 -2.2774
15041TIP3   OH266537   4.425   1.979   1.937  0.0851  0.0242  0.4697
15041TIP3    H166538   4.356   2.001   2.000 -0.0233  0.9184  0.0442
15041TIP3    H266539   4.454   1.892   1.964  0.1839  0.4740  1.8822
15042TIP3   OH266540   7.122   3.924   3.908 -0.3654 -0.2571  0.3667
15042TIP3    H166541   7.104   3.997   3.850 -2.1436 -3.0352 -2.7412
15042TIP3    H266542   7.206   3.889   3.879  0.5180  0.5309  1.8920
15043TIP3   OH266543   5.917   2.381   5.362 -0.6479  0.1088 -0.2550
15043TIP3    H166544   5.838   2.377   5.417 -0.6422  0.9117 -0.1886
15043TIP3    H266545   5.990   2.374   5.424 -0.6359  1.2577 -0.1206
15044TIP3   OH266546   5.021   6.748   1.144 -0.0915  0.4590  0.5629
15044TIP3    H166547   5.071   6.807   1.199  1.5926  0.2613 -0.7219
15044TIP3    H266548   4.929   6.770   1.163  0.4630  1.1745  2.5380
15045TIP3   OH266549   4.970   0.896   1.399 -0.1379  0.0053  0.4740
15045TIP3    H166550   5.022   0.904   1.479  0.4503  0.0527  0.0892
15045TIP3    H266551   4.917   0.976   1.397  1.4438  1.0544 -0.3126
15046TIP3   OH266552   5.934   1.796  15.180  0.3993 -0.2245 -0.2871
15046TIP3    H166553   5.903   1.846  15.105 -1.7432  0.3504  0.9552
15046TIP3    H266554   5.893   1.710  15.172  0.2557 -0.2010  0.1543
15047TIP3   OH266555   5.154   2.979   5.685 -0.2443  0.3361  0.2120
15047TIP3    H166556   5.241   2.944   5.668 -0.6002 -0.3242 -0.2968
15047TIP3    H266557   5.110   2.911   5.736 -1.1400 -0.2392 -1.2898
15048TIP3   OH266558   6.806   4.407   2.333  0.0411  0.0591 -0.4482
15048TIP3    H166559   6.773   4.497   2.330 -0.9865 -0.2542  0.9444
15048TIP3    H266560   6.763   4.363   2.259  0.1093  0.5641 -0.7910
15049TIP3   OH266561   7.011   3.601   3.986  0.3412  0.0933  0.1399
15049TIP3    H166562   7.047   3.608   3.897  1.5617  0.6258  0.6610
15049TIP3    H266563   6.938   3.663   3.987  0.0500 -0.2354 -0.6208
15050TIP3   OH266564   5.784   4.753   2.551  0.3343  0.2466  0.4192
15050TIP3    H166565   5.855   4.762   2.614  1.0182 -0.1558 -0.2841
15050TIP3    H266566   5.747   4.666   2.568 -0.1420  0.5481  0.9372
15051TIP3   OH266567   6.795   2.502   5.202 -0.0258  0.3980 -0.3212
15051TIP3    H166568   6.785   2.559   5.126  0.9261  0.6272 -0.2828
15051TIP3    H266569   6.882   2.522   5.236  0.3170 -1.0759 -0.3038
15052TIP3   OH266570   5.762   1.452   1.590  0.2812 -0.0604  0.4877
15052TIP3    H166571   5.830   1.516   1.568 -1.4315  0.6566 -3.1429
15052TIP3    H266572   5.690   1.505   1.623 -0.0109 -0.3843  0.3688
15053TIP3   OH266573   5.780   1.199   2.847 -0.1366  0.1711 -0.4766
15053TIP3    H166574   5.862   1.190   2.897 -0.1830  0.0880 -0.4152
15053TIP3    H266575   5.763   1.111   2.814 -0.7167 -0.0186  0.3120
15054TIP3   OH266576   0.522   4.716   0.250  0.2972  0.3358  0.0941
15054TIP3    H166577   0.583   4.714   0.323  0.1919 -1.3959  0.1429
15054TIP3    H266578   0.564   4.663   0.182 -0.2930  0.6883 -0.5554
15055TIP3   OH266579   1.590   6.380  14.831  0.2854  0.7263 -0.3110
15055TIP3    H166580   1.658   6.342  14.887  0.2253 -1.2378 -1.5415
15055TIP3    H266581   1.638   6.432  14.767  0.4312  1.9317  0.7657
15056TIP3   OH266582   2.856   5.542   0.711 -0.0201  0.5340 -0.2097
15056TIP3    H166583   2.890   5.580   0.629 -1.8138  1.1139 -0.6982
15056TIP3    H266584   2.814   5.461   0.683  1.5058 -0.5212  0.4891
15057TIP3   OH266585   0.951   3.959   1.299  0.2615 -1.1487  0.3128
15057TIP3    H166586   1.012   4.026   1.332 -1.8682  0.9896  0.0537
15057TIP3    H266587   0.942   3.897   1.372  1.5586 -0.6699  0.9002
15058TIP3   OH266588   3.879   1.518  15.802 -0.1603 -0.4665 -0.3227
15058TIP3    H166589   3.884   1.426  15.778 -0.5591 -0.6686  0.3566
15058TIP3    H266590   3.785   1.536  15.809 -0.1800  0.7153 -3.2075
15059TIP3   OH266591   6.268   2.977   5.281 -0.2372  0.2976 -0.2843
15059TIP3    H166592   6.218   3.058   5.273 -1.4639 -0.1315  2.4304
15059TIP3    H266593   6.202   2.911   5.304  0.9049 -1.2598 -1.4151
15060TIP3   OH266594   0.081   4.515   1.703  0.3124  0.2012 -0.4711
15060TIP3    H166595   0.003   4.460   1.706 -0.0877  0.7770 -0.3507
15060TIP3    H266596   0.056   4.590   1.650  0.6607  0.5764 -0.1071
15061TIP3   OH266597   0.750   7.299   2.633 -0.5759 -1.0142 -0.2347
15061TIP3    H166598   0.667   7.306   2.680 -1.4034  0.1515 -1.8034
15061TIP3    H266599   0.808   7.360   2.678 -0.2248 -2.6082  1.5257
15062TIP3   OH266600   5.796   2.310   0.346  0.1616 -0.1367 -0.5997
15062TIP3    H166601   5.729   2.249   0.378  2.4931 -0.5365  3.9390
15062TIP3    H266602   5.860   2.255   0.302 -1.3671  0.0099 -3.1083
15063TIP3   OH266603   6.758   5.137   1.113 -0.4525 -0.1291  0.5293
15063TIP3    H166604   6.787   5.227   1.127  1.0271 -0.7441  1.4617
15063TIP3    H266605   6.701   5.118   1.188 -1.4576  0.3168 -0.1180
15064TIP3   OH266606   0.829   0.545   5.754 -0.1405 -0.1197  0.1017
15064TIP3    H166607   0.768   0.472   5.764  0.4375 -0.5721  0.3058
15064TIP3    H266608   0.897   0.530   5.820 -0.0686  0.6518  0.2159
15065TIP3   OH266609   1.829   3.714   2.170 -0.0544 -0.0345  0.4720
15065TIP3    H166610   1.839   3.805   2.144  0.6028 -0.4592 -0.8190
15065TIP3    H266611   1.761   3.715   2.237  1.4169  1.6474  1.9595
15066TIP3   OH266612   2.666   4.675   2.313  0.4531 -1.0329 -0.0594
15066TIP3    H166613   2.576   4.655   2.339  0.0704  0.4439 -0.1625
15066TIP3    H266614   2.658   4.709   2.223  0.8183  1.1079  0.6729
15067TIP3   OH266615   0.125   2.437   1.694  0.3131  0.5432 -0.2545
15067TIP3    H166616   0.078   2.430   1.611 -1.0376  1.0833  0.4403
15067TIP3    H266617   0.106   2.354   1.739 -1.3332  1.4081  0.6973
15068TIP3   OH266618   0.016   6.110   1.525 -0.1196 -0.2021 -0.0951
15068TIP3    H166619   0.086   6.061   1.569 -0.3685 -0.9800 -0.5413
15068TIP3    H266620   0.015   6.074   1.436 -0.1370  0.8091 -0.5125
15069TIP3   OH266621   0.798   4.336  12.528  0.7075  0.3614 -0.8881
15069TIP3    H166622   0.854   4.401  12.486  2.2786 -0.2947  0.1137
15069TIP3    H266623   0.840   4.252  12.509  1.6474  0.0755  2.1724
15070TIP3   OH266624   0.503   6.117   2.476  0.0533 -0.2034 -0.0072
15070TIP3    H166625   0.546   6.034   2.455 -1.6805 -1.8286  2.5657
15070TIP3    H266626   0.575   6.177   2.495  1.4030 -0.5583 -3.5575
15071TIP3   OH266627   6.240   5.713   1.169  0.9220 -0.2622  0.2466
15071TIP3    H166628   6.187   5.784   1.133  2.0461  0.9469  0.9380
15071TIP3    H266629   6.194   5.685   1.248  0.9784  0.3623  0.5038
15072TIP3   OH266630   0.737   3.793  15.794  0.4410 -0.0569  0.3362
15072TIP3    H166631   0.807   3.733  15.770  0.2878 -0.0864 -0.0449
15072TIP3    H266632   0.666   3.737  15.825  0.9674  0.0245  1.7445
15073TIP3   OH266633   1.057   6.588   3.185 -0.2244  0.3584  0.0946
15073TIP3    H166634   0.981   6.646   3.186 -0.4366  0.0913 -0.4197
15073TIP3    H266635   1.085   6.583   3.276  1.0506  2.9118 -0.0851
15074TIP3   OH266636   0.276   3.529   1.955 -0.7040  1.0537  0.0552
15074TIP3    H166637   0.191   3.491   1.934 -0.1716 -0.7655  1.0394
15074TIP3    H266638   0.270   3.549   2.049  0.7213 -1.2961  0.6996
15075TIP3   OH266639   2.460   6.235   5.162  0.3881  0.0703 -0.0902
15075TIP3    H166640   2.400   6.173   5.121  1.6531  0.0564 -1.9957
15075TIP3    H266641   2.520   6.260   5.091  3.7895 -1.3361  2.1353
15076TIP3   OH266642   2.375   3.190   2.609 -0.1299  0.5744  0.2741
15076TIP3    H166643   2.392   3.140   2.529  0.7678  1.3482 -0.0278
15076TIP3    H266644   2.390   3.128   2.680 -1.2011 -0.1934 -0.1560
15077TIP3   OH266645   1.464   2.476   2.085  0.1910 -0.2017 -0.0264
15077TIP3    H166646   1.400   2.536   2.125 -0.1858 -1.0846  0.7235
15077TIP3    H266647   1.411   2.413   2.037  0.3834 -1.8783  1.8969
15078TIP3   OH266648   0.963   2.952  15.602  0.1971  0.0045 -0.4684
15078TIP3    H166649   0.991   2.869  15.641  0.2910  0.3833  0.2756
15078TIP3    H266650   1.039   3.009  15.610  0.0813  0.2145 -0.8478
15079TIP3   OH266651   2.084   5.136   0.942 -0.1304  0.6343 -0.4705
15079TIP3    H166652   2.140   5.061   0.922 -1.0210 -0.2461  0.2995
15079TIP3    H266653   2.015   5.134   0.876 -2.1379 -1.3081  1.6089
15080TIP3   OH266654   3.004   3.906   3.314  0.3987  0.7268  0.4736
15080TIP3    H166655   2.970   3.966   3.248 -2.3041  0.7657  1.8315
15080TIP3    H266656   3.032   3.962   3.386  2.6001  0.6321 -0.2641
15081TIP3   OH266657   6.562   4.435   5.096 -0.2994  0.1650  0.5316
15081TIP3    H166658   6.493   4.499   5.111 -0.2440  0.0158  1.4401
15081TIP3    H266659   6.520   4.350   5.108  0.2119  0.0879  1.8846
15082TIP3   OH266660   1.347   3.422   0.764  0.2342 -0.9278  0.1244
15082TIP3    H166661   1.279   3.366   0.728 -1.0620  0.5497  0.2327
15082TIP3    H266662   1.338   3.412   0.859 -0.1239 -0.4081  0.1484
15083TIP3   OH266663   2.767   5.614   2.461  0.3924  0.2335 -0.3358
15083TIP3    H166664   2.850   5.640   2.500  1.2829 -1.4616 -1.1022
15083TIP3    H266665   2.708   5.688   2.480  1.5064  0.5836  1.9164
15084TIP3   OH266666   0.751   5.379   5.199 -0.8638  0.2674 -0.6809
15084TIP3    H166667   0.700   5.416   5.271 -0.6911 -3.7345  1.6323
15084TIP3    H266668   0.841   5.409   5.214 -0.9309 -0.1127  0.4936
15085TIP3   OH266669   4.051   3.739   5.389  0.3371  0.1199 -0.3378
15085TIP3    H166670   4.073   3.826   5.355  2.0483  0.1959  0.9522
15085TIP3    H266671   3.970   3.753   5.439  0.2264  0.8214 -0.7032
15086TIP3   OH266672   6.452   6.937  15.719 -1.1309 -0.1487 -0.0277
15086TIP3    H166673   6.369   6.929  15.670 -1.3417  2.6949 -0.2264
15086TIP3    H266674   6.481   7.026  15.701  1.8209 -1.0078  0.3546
15087TIP3   OH266675   1.937   5.159   2.550  0.0099 -0.1220  0.2779
15087TIP3    H166676   1.873   5.093   2.524 -0.3253  0.2282  0.2130
15087TIP3    H266677   1.933   5.225   2.481 -1.9334  1.5423  1.8964
15088TIP3   OH266678   1.884   0.910   0.761 -0.2054  0.8432 -0.0784
15088TIP3    H166679   1.901   0.869   0.676 -2.6268  0.0306 -0.1887
15088TIP3    H266680   1.882   1.004   0.742  3.6104  0.9986 -0.1243
15089TIP3   OH266681   1.897   7.223   3.607  0.3729  0.0300  0.0296
15089TIP3    H166682   1.846   7.269   3.540 -0.0052  0.2134  0.4337
15089TIP3    H266683   1.937   7.293   3.658  1.3107 -0.1213 -0.4974
15090TIP3   OH266684   1.964   3.476   2.373 -0.0740 -0.1741 -0.2799
15090TIP3    H166685   1.992   3.553   2.423  1.2728 -0.4035 -0.6594
15090TIP3    H266686   1.880   3.502   2.334 -1.5984 -0.2691  2.7518
15091TIP3   OH266687   3.772   3.482   3.497  0.4512  0.5059 -0.1033
15091TIP3    H166688   3.830   3.413   3.462 -0.7122 -0.7883  0.4663
15091TIP3    H266689   3.824   3.524   3.565  0.3619 -1.3783  1.1715
15092TIP3   OH266690   0.902   3.804   1.501 -0.1881 -0.3127 -0.0615
15092TIP3    H166691   0.941   3.724   1.537  0.7679 -0.4172 -1.3102
15092TIP3    H266692   0.819   3.812   1.547 -0.6842 -2.4825 -0.4956
15093TIP3   OH266693   1.400   0.662   5.078  0.1331  0.0427 -0.5541
15093TIP3    H166694   1.328   0.626   5.026  0.5297 -0.5494 -0.6940
15093TIP3    H266695   1.440   0.727   5.021 -0.5052  0.6322 -0.3473
15094TIP3   OH266696   2.773   4.690   3.115 -0.1698 -0.2726 -0.3310
15094TIP3    H166697   2.836   4.716   3.183 -0.5543  1.3350 -0.5764
15094TIP3    H266698   2.692   4.734   3.139 -0.2816  0.4071 -1.8791
15095TIP3   OH266699   7.301   6.766   0.386  0.8275 -0.1061  0.1381
15095TIP3    H166700   7.346   6.684   0.406  0.9105  0.0217  0.4767
15095TIP3    H266701   7.274   6.800   0.471 -0.2615 -0.3829 -0.0864
15096TIP3   OH266702   0.505   6.713   0.180 -0.6344 -0.0400 -0.5056
15096TIP3    H166703   0.427   6.670   0.214 -0.5008  1.0336  1.1559
15096TIP3    H266704   0.575   6.648   0.192 -1.0170 -0.5113 -0.8173
15097TIP3   OH266705   6.347   2.403   4.516  0.2242 -0.3673  0.0072
15097TIP3    H166706   6.404   2.367   4.584  0.8600  0.6831  0.0381
15097TIP3    H266707   6.354   2.340   4.444  0.6117 -0.7769  0.3960
15098TIP3   OH266708   2.982   2.706   3.962  0.3409 -0.3614 -0.2632
15098TIP3    H166709   2.888   2.697   3.980  0.1745 -1.2785 -1.5277
15098TIP3    H266710   3.024   2.684   4.045 -0.4625 -2.9640 -0.5003
15099TIP3   OH266711   1.390   4.929   1.944  0.1148 -0.4093 -0.3017
15099TIP3    H166712   1.483   4.921   1.963 -0.0595  0.3957  0.9431
15099TIP3    H266713   1.374   5.023   1.942 -0.8631 -0.5461  0.5073
15100TIP3   OH266714   7.201   5.650   2.503 -0.1259 -0.2518  0.1023
15100TIP3    H166715   7.223   5.558   2.519  1.0155  0.0199  0.0901
15100TIP3    H266716   7.282   5.698   2.520 -0.6405  0.7264 -0.1676
15101TIP3   OH266717   1.476   4.599   3.913 -0.4063  0.1873  0.3470
15101TIP3    H166718   1.552   4.558   3.955 -0.2865  1.4316  1.3443
15101TIP3    H266719   1.402   4.545   3.941 -0.3074  0.8912  2.0265
15102TIP3   OH266720   0.755   3.796   2.472  0.5973 -0.0720 -0.5795
15102TIP3    H166721   0.743   3.751   2.555 -0.2255 -3.0049 -2.2136
15102TIP3    H266722   0.673   3.781   2.424  1.4929  0.5314 -2.3699
15103TIP3   OH266723   0.923   3.891   4.779  0.1959 -0.5597  0.2325
15103TIP3    H166724   0.888   3.895   4.868  0.7555 -0.0089  0.4349
15103TIP3    H266725   1.017   3.910   4.790 -0.4005  3.3689 -0.9132
15104TIP3   OH266726   1.587   5.873   4.258  0.0420  0.3406 -0.2176
15104TIP3    H166727   1.564   5.951   4.308  0.4175 -0.9670  2.0697
15104TIP3    H266728   1.664   5.899   4.208 -0.1990  1.6268  0.0633
15105TIP3   OH266729   2.911   3.261   0.002 -0.1217 -0.3272 -0.6029
15105TIP3    H166730   2.988   3.206  -0.015  0.3260  0.1509 -0.1250
15105TIP3    H266731   2.837   3.200   0.001  0.6502 -1.4312  2.7794
15106TIP3   OH266732   1.697   0.586   2.887  0.9664 -0.2947 -1.0785
15106TIP3    H166733   1.605   0.566   2.872  0.6521  0.9047 -0.7835
15106TIP3    H266734   1.745   0.520   2.836 -0.0565  0.2812 -2.8391
15107TIP3   OH266735   2.165   3.385   1.860 -0.5726  0.2797  0.0861
15107TIP3    H166736   2.094   3.349   1.807 -1.3960  1.5422  0.3120
15107TIP3    H266737   2.124   3.402   1.945  0.0754  0.7366  0.3102
15108TIP3   OH266738   3.926   4.788   4.161  0.0024 -0.3403  0.2870
15108TIP3    H166739   3.885   4.835   4.234 -0.3119 -0.0615 -0.0706
15108TIP3    H266740   3.969   4.713   4.202  0.5133  0.2638  0.8656
15109TIP3   OH266741   7.249   3.262   2.226  0.5428 -0.4679 -0.5290
15109TIP3    H166742   7.282   3.271   2.137  0.4858  0.2612 -0.4844
15109TIP3    H266743   7.201   3.180   2.227  0.1125 -0.2233 -1.3073
15110TIP3   OH266744   5.529   4.828   3.556 -0.2470  0.4586 -0.4499
15110TIP3    H166745   5.481   4.848   3.476  2.2311  2.2582 -1.5375
15110TIP3    H266746   5.528   4.909   3.606 -1.1046 -0.4346  1.0349
15111TIP3   OH266747   5.377   4.644   4.501 -0.2669  0.4485  0.5126
15111TIP3    H166748   5.392   4.622   4.593  0.8752 -0.5886  0.0949
15111TIP3    H266749   5.302   4.590   4.476 -0.6072  0.7626  0.8325
15112TIP3   OH266750   0.167   3.364   3.187 -0.4328 -0.1222  0.6810
15112TIP3    H166751   0.082   3.365   3.144  0.2555  0.7408 -0.7227
15112TIP3    H266752   0.230   3.367   3.115  0.7693  0.2571  1.7163
15113TIP3   OH266753   6.499   5.283   1.841  0.4100 -0.2185 -0.2571
15113TIP3    H166754   6.572   5.335   1.873 -0.5175  0.7674  0.3003
15113TIP3    H266755   6.421   5.327   1.876 -0.4087 -1.6872 -0.2009
15114TIP3   OH266756   6.716   0.816   5.580  0.1455 -0.2983 -0.2173
15114TIP3    H166757   6.676   0.762   5.512 -1.7403 -0.7542  1.2369
15114TIP3    H266758   6.660   0.893   5.586  1.3386  0.6116 -0.4260
15115TIP3   OH266759   6.280   4.538   4.762 -0.2825 -0.3665  0.3590
15115TIP3    H166760   6.362   4.554   4.809  0.1365 -1.1741 -0.0875
15115TIP3    H266761   6.246   4.625   4.741  0.6717 -0.0379  0.1858
15116TIP3   OH266762   2.065   6.190   1.086  0.0769  0.1863  0.0368
15116TIP3    H166763   2.101   6.169   1.000 -1.5424  2.2471 -1.2329
15116TIP3    H266764   2.118   6.263   1.117  0.4002 -0.2880  0.6019
15117TIP3   OH266765   4.524   5.996   0.291  0.5343  0.0431  0.0083
15117TIP3    H166766   4.516   5.913   0.244 -0.3153  0.1688 -0.0663
15117TIP3    H266767   4.618   6.003   0.310  0.4781 -1.4058  0.8749
15118TIP3   OH266768   3.066   2.747  14.590  0.1604  0.2176 -0.4724
15118TIP3    H166769   3.092   2.678  14.529  0.7517 -1.3835  1.5293
15118TIP3    H266770   3.148   2.782  14.624 -0.1186 -1.7404  2.4376
15119TIP3   OH266771   1.090   1.651   2.116  0.3803 -0.0622 -0.2805
15119TIP3    H166772   1.083   1.556   2.116  0.4054 -0.0843  1.5531
15119TIP3    H266773   1.149   1.671   2.189 -0.6853  1.4294  0.1953
15120TIP3   OH266774   4.912   3.908   2.674 -0.5711  0.1917 -0.8817
15120TIP3    H166775   4.921   3.904   2.769 -0.1902  2.7415 -0.7867
15120TIP3    H266776   4.865   3.828   2.651  0.0871 -0.8689  1.3494
15121TIP3   OH266777   2.479   3.636   2.505  0.0432  0.1762 -0.2355
15121TIP3    H166778   2.416   3.567   2.528  0.4866 -0.4374 -0.8271
15121TIP3    H266779   2.425   3.705   2.466  0.0605 -1.7585 -3.8811
15122TIP3   OH266780   6.596   5.795   1.298  0.4468  0.2976  0.0359
15122TIP3    H166781   6.598   5.815   1.205  0.6142  1.9873  0.3868
15122TIP3    H266782   6.677   5.834   1.332  0.6842 -0.8153  0.8056
15123TIP3   OH266783   6.049   6.257   1.307 -0.2721 -0.3266 -0.3736
15123TIP3    H166784   6.091   6.282   1.224 -1.3644  0.2042 -0.7733
15123TIP3    H266785   6.104   6.297   1.374  0.7171 -0.8960 -0.8352
15124TIP3   OH266786   1.390   5.346   4.904 -0.1961 -0.5854  0.0796
15124TIP3    H166787   1.481   5.322   4.924  0.8143  1.8481 -1.2865
15124TIP3    H266788   1.343   5.331   4.985  1.6140 -1.0590  1.0740
15125TIP3   OH266789   6.830   5.337   0.275  0.2648 -0.1782 -0.8708
15125TIP3    H166790   6.754   5.387   0.305 -0.5090 -0.9444 -1.5145
15125TIP3    H266791   6.823   5.253   0.320  1.7125  0.3775  0.4273
15126TIP3   OH266792   4.657   5.968  15.908  0.2458  0.6576 -0.3176
15126TIP3    H166793   4.630   6.023  15.981 -1.5287 -0.6727  0.0496
15126TIP3    H266794   4.582   5.912  15.891  1.5523 -0.7526 -1.5559
15127TIP3   OH266795   4.988   4.467   1.077 -0.3855  0.1189 -0.2111
15127TIP3    H166796   5.078   4.439   1.057 -0.9830 -2.3827  0.4087
15127TIP3    H266797   4.993   4.563   1.082  2.0917  0.0575 -0.9019
15128TIP3   OH266798   0.523   0.024   2.765 -0.3835  0.1039  0.2190
15128TIP3    H166799   0.454   0.068   2.815 -1.8361 -0.7162 -1.0028
15128TIP3    H266800   0.476  -0.041   2.712  1.2476  0.0977 -1.2637
15129TIP3   OH266801   0.326   4.403   1.616  0.5594 -0.1129  0.0319
15129TIP3    H166802   0.243   4.432   1.654  1.5475  0.2746  1.9225
15129TIP3    H266803   0.321   4.432   1.525  0.6312  4.2294  1.2877
15130TIP3   OH266804   2.518   1.694   2.254  0.2346  0.0896  0.5664
15130TIP3    H166805   2.556   1.637   2.321 -1.0343 -1.2655  0.1425
15130TIP3    H266806   2.500   1.637   2.180 -1.5868  0.9224  0.3384
15131TIP3   OH266807   2.433   2.050   3.462  0.2205  0.1850  0.1496
15131TIP3    H166808   2.361   2.041   3.524  0.0217 -0.8125 -0.2012
15131TIP3    H266809   2.510   2.019   3.509  0.1445 -0.1775  0.0383
15132TIP3   OH266810   6.831   3.171   4.241 -0.1020 -0.2489 -0.2617
15132TIP3    H166811   6.800   3.092   4.197 -0.6282 -0.3715  0.3209
15132TIP3    H266812   6.924   3.175   4.221 -0.3851 -0.1745 -1.5890
15133TIP3   OH266813   4.720   4.385   2.518 -0.4210 -0.1409  0.0730
15133TIP3    H166814   4.679   4.306   2.552 -3.8682  1.4282 -0.1987
15133TIP3    H266815   4.671   4.405   2.439  0.1617  2.4680  0.3339
15134TIP3   OH266816   5.065   6.455   1.574 -0.0553  0.0332 -0.5205
15134TIP3    H166817   4.971   6.441   1.566  0.0282 -0.7720 -0.1878
15134TIP3    H266818   5.075   6.507   1.654 -0.2532  0.5062 -0.8062
15135TIP3   OH266819   7.053   4.914   3.157  0.3412  0.3231  0.2819
15135TIP3    H166820   6.979   4.940   3.211 -0.0124 -0.4942  0.1921
15135TIP3    H266821   7.109   4.863   3.216  0.2222 -0.1091  0.0238
15136TIP3   OH266822   2.768   2.484   1.783  0.1055 -0.1174  0.1325
15136TIP3    H166823   2.774   2.564   1.730 -1.1039 -0.0645  0.0511
15136TIP3    H266824   2.820   2.503   1.861  1.2701  0.0877 -0.6863
15137TIP3   OH266825   1.343   6.049   1.454  0.6468 -0.3537 -0.1495
15137TIP3    H166826   1.409   5.983   1.475  0.4506 -1.2076 -2.1011
15137TIP3    H266827   1.275   6.000   1.408 -1.1637  0.5963  1.4273
15138TIP3   OH266828   0.934   3.794   1.821  0.3980 -0.0140  0.0679
15138TIP3    H166829   0.988   3.769   1.896  1.2875 -1.9977 -1.2177
15138TIP3    H266830   0.871   3.723   1.812 -1.2579  1.3786  0.3829
15139TIP3   OH266831   2.080   0.921   1.044 -0.7403 -0.2671  0.5188
15139TIP3    H166832   2.158   0.917   1.100 -1.4322  0.6303  1.5656
15139TIP3    H266833   2.085   0.842   0.991 -0.2096 -1.2862  2.0488
15140TIP3   OH266834   4.720   1.184   4.236 -0.3344 -0.9854 -0.4149
15140TIP3    H166835   4.634   1.214   4.206  0.4110  1.2523 -0.3516
15140TIP3    H266836   4.731   1.098   4.195 -2.5792 -1.2741 -0.4514
15141TIP3   OH266837   1.691   6.095   2.733 -0.0162  0.0772  0.5583
15141TIP3    H166838   1.638   6.054   2.665 -1.2662  1.0522  0.9328
15141TIP3    H266839   1.650   6.070   2.815 -0.5292  1.6815  0.8089
15142TIP3   OH266840   1.624   4.602   2.571 -0.0305  0.1871  0.1709
15142TIP3    H166841   1.528   4.597   2.568 -0.1316  0.6422  1.9697
15142TIP3    H266842   1.653   4.511   2.566 -0.6893 -0.1717  2.4369
15143TIP3   OH266843   3.528   5.027   4.747  0.1503 -0.0549 -0.0529
15143TIP3    H166844   3.561   5.055   4.662 -0.0413 -0.1826 -0.1709
15143TIP3    H266845   3.592   4.963   4.778 -0.8451 -1.5610 -1.0457
15144TIP3   OH266846   4.223   0.640   4.648 -0.2601  0.1287 -1.2857
15144TIP3    H166847   4.132   0.668   4.637 -0.5711 -0.3074  0.0273
15144TIP3    H266848   4.259   0.699   4.714  0.0420 -0.4779 -0.8945
15145TIP3   OH266849   0.747   1.312   1.260  0.2345 -0.0131  0.2280
15145TIP3    H166850   0.706   1.362   1.331  0.2086  1.0166 -0.5063
15145TIP3    H266851   0.691   1.234   1.251 -1.3832  1.2077 -0.5185
15146TIP3   OH266852   1.262   0.318   3.840  0.0202  0.4164 -0.2786
15146TIP3    H166853   1.176   0.340   3.804  0.3832  2.7062  0.1473
15146TIP3    H266854   1.259   0.353   3.929  1.2710  0.1945 -0.1481
15147TIP3   OH266855   3.687   1.671   0.970 -0.1197  0.2857 -0.0645
15147TIP3    H166856   3.654   1.593   0.926  2.6857 -0.8208 -0.2902
15147TIP3    H266857   3.773   1.686   0.932 -0.7460  3.7175 -0.2589
15148TIP3   OH266858   1.362   3.418   5.448  0.3579  0.6823  0.7562
15148TIP3    H166859   1.338   3.325   5.455  0.7339  0.5631  0.4308
15148TIP3    H266860   1.291   3.464   5.494  1.6770  0.0460  3.5285
15149TIP3   OH266861   4.824   5.227   1.710 -0.2146 -0.2910  1.0141
15149TIP3    H166862   4.892   5.167   1.742  0.4372 -0.7892 -1.2595
15149TIP3    H266863   4.872   5.293   1.660 -1.3055  0.0384  0.3936
15150TIP3   OH266864   0.115   3.698   3.174  0.1603  0.0212 -0.1812
15150TIP3    H166865   0.189   3.656   3.130 -0.7460 -0.6279 -1.1219
15150TIP3    H266866   0.090   3.636   3.242 -0.5131 -0.4987 -0.8916
15151TIP3   OH266867   2.945   6.235   2.927 -0.7979 -0.2752 -0.6784
15151TIP3    H166868   2.920   6.251   2.836  1.4976  1.0851 -1.1094
15151TIP3    H266869   2.970   6.143   2.929 -0.7039 -0.2702 -1.4648
15152TIP3   OH266870   6.021   3.568  14.370  0.2076 -0.4266  0.0998
15152TIP3    H166871   5.933   3.536  14.387  0.6495 -1.8851 -0.3126
15152TIP3    H266872   6.008   3.647  14.316 -0.8185 -1.0427 -0.5574
15153TIP3   OH266873   2.482   6.574  14.926 -0.4686 -0.3108  0.1290
15153TIP3    H166874   2.417   6.615  14.871  1.3670 -2.4367 -3.8623
15153TIP3    H266875   2.434   6.506  14.975 -1.6760 -0.1212 -0.7913
15154TIP3   OH266876   4.147   4.763   4.790 -0.1210 -0.5677  1.4076
15154TIP3    H166877   4.203   4.769   4.868  0.7669  1.2965  0.6700
15154TIP3    H266878   4.190   4.699   4.734  1.8703  1.5176  0.4457
15155TIP3   OH266879   6.775   5.626   5.421 -0.0958  0.2987  0.7573
15155TIP3    H166880   6.702   5.683   5.402  0.9139  0.6620 -2.2600
15155TIP3    H266881   6.845   5.685   5.450 -0.3691  0.1504  1.7313
15156TIP3   OH266882   5.221   2.559   3.565  0.2026  0.2956 -0.5881
15156TIP3    H166883   5.235   2.625   3.632 -2.1505  0.6900 -0.4314
15156TIP3    H266884   5.245   2.477   3.606 -0.3149  0.6482  0.4197
15157TIP3   OH266885   3.201   4.455   5.393 -0.0761 -0.1034 -1.4296
15157TIP3    H166886   3.155   4.539   5.395  1.3193  0.6638 -0.5527
15157TIP3    H266887   3.134   4.391   5.415 -1.7192  0.4817 -4.4463
15158TIP3   OH266888   6.425   5.232   5.270  0.1102  0.1357 -0.1255
15158TIP3    H166889   6.420   5.167   5.341 -2.1712 -2.0525 -2.1929
15158TIP3    H266890   6.507   5.213   5.226  0.1629 -0.3658  0.1854
15159TIP3   OH266891   1.330   0.882   5.518  0.5854 -0.4322 -0.1486
15159TIP3    H166892   1.314   0.973   5.543  0.6097 -0.8331  1.3739
15159TIP3    H266893   1.421   0.866   5.543  0.4694 -0.9848 -0.0659
15160TIP3   OH266894   7.233   3.319   4.887  0.0309 -0.0242 -0.0100
15160TIP3    H166895   7.285   3.253   4.933 -0.4243 -0.9127 -0.7451
15160TIP3    H266896   7.298   3.382   4.854  0.7156 -1.4125 -1.3841
15161TIP3   OH266897   6.005   0.265   2.655  0.7790  0.0344  0.0063
15161TIP3    H166898   6.036   0.342   2.607  0.7589  0.2850  0.3975
15161TIP3    H266899   5.997   0.197   2.588  1.7213  0.0989 -0.1803
15162TIP3   OH266900   5.613   0.243   3.150  0.4339  0.2559 -0.1404
15162TIP3    H166901   5.663   0.163   3.164  0.5913  0.0541 -1.8191
15162TIP3    H266902   5.547   0.219   3.084 -0.8149  0.9653  0.8171
15163TIP3   OH266903   0.606   6.100  15.348 -0.4068 -0.2550 -0.7071
15163TIP3    H166904   0.573   6.162  15.284  0.4106  0.3479 -0.5465
15163TIP3    H266905   0.598   6.145  15.432  0.4287 -0.2654 -0.6194
15164TIP3   OH266906   1.369   0.226   4.353  0.1301 -0.1980  0.2144
15164TIP3    H166907   1.362   0.173   4.432  0.2412 -0.2787  0.1716
15164TIP3    H266908   1.342   0.313   4.379  1.0049 -0.0234  0.5533
15165TIP3   OH266909   0.189   3.786   4.422  0.3049 -0.1680  0.1741
15165TIP3    H166910   0.125   3.769   4.352  0.5118  0.9973 -0.3066
15165TIP3    H266911   0.137   3.827   4.492  0.4285  0.3503 -0.0326
15166TIP3   OH266912   4.259   1.716   4.574  0.7816  0.6224 -0.1634
15166TIP3    H166913   4.215   1.650   4.628 -0.6617  0.7826 -1.1328
15166TIP3    H266914   4.227   1.800   4.608  0.2756  0.7387 -0.9129
15167TIP3   OH266915   2.119   6.473  14.263  0.0040 -0.7491 -1.2695
15167TIP3    H166916   2.078   6.552  14.228  1.3247  0.7641  0.4731
15167TIP3    H266917   2.197   6.461  14.210 -0.2918 -0.9911 -1.6528
15168TIP3   OH266918   1.068   3.839   3.853 -0.2236 -0.0499 -0.4943
15168TIP3    H166919   1.067   3.918   3.906  0.0114  0.1138 -0.7301
15168TIP3    H266920   1.094   3.869   3.766  2.1580 -0.7191 -0.0444
15169TIP3   OH266921   2.672   4.349  15.301 -0.0175 -0.5459  0.4128
15169TIP3    H166922   2.756   4.388  15.277  0.5648 -1.2546  1.2545
15169TIP3    H266923   2.642   4.306  15.221 -0.3137  0.9878 -0.3083
15170TIP3   OH266924   0.488   4.173   5.053  0.2007 -0.4001 -0.1900
15170TIP3    H166925   0.507   4.079   5.056  0.9307 -0.2396  0.3216
15170TIP3    H266926   0.422   4.187   5.121 -2.6636 -1.1458 -2.6999
15171TIP3   OH266927   3.225   3.705   3.992 -0.1418  0.3562 -0.3597
15171TIP3    H166928   3.194   3.795   4.007 -2.2777 -0.5431  0.9000
15171TIP3    H266929   3.189   3.682   3.906  1.8076  1.2631 -1.4397
15172TIP3   OH266930   7.176   4.266   2.149 -0.5868 -0.1556  0.5205
15172TIP3    H166931   7.216   4.352   2.160 -0.3818  0.0532 -1.6696
15172TIP3    H266932   7.241   4.205   2.183  0.0901  0.4252  0.2775
15173TIP3   OH266933   6.293   6.554   2.547  0.5726 -0.1137  0.3589
15173TIP3    H166934   6.292   6.580   2.639  1.2423 -0.6295  0.5154
15173TIP3    H266935   6.294   6.459   2.549  1.7245 -0.1254 -0.1562
15174TIP3   OH266936   1.369   6.448   2.122  0.6734  0.7510  0.9921
15174TIP3    H166937   1.384   6.533   2.081  1.0265  1.4058  2.4285
15174TIP3    H266938   1.429   6.389   2.077  0.0357  1.1311 -0.3955
15175TIP3   OH266939   3.906   7.284  15.260  0.1405  0.7721  0.2210
15175TIP3    H166940   3.911   7.221  15.188 -0.7182  0.6067  0.2910
15175TIP3    H266941   3.994   7.319  15.269  0.5618 -0.2287  0.0023
15176TIP3   OH266942   1.845   4.522   3.072  0.3246  0.5908 -0.0992
15176TIP3    H166943   1.830   4.595   3.012 -2.7371 -1.2715 -1.7759
15176TIP3    H266944   1.864   4.448   3.015 -2.3934 -1.1784  1.1425
15177TIP3   OH266945   0.961   1.199   0.642  0.4073  0.0167 -0.4222
15177TIP3    H166946   0.891   1.259   0.668  0.8818 -0.1451  1.3139
15177TIP3    H266947   1.024   1.254   0.596  0.4345  0.7028  0.4172
15178TIP3   OH266948   2.713   1.251   2.122  0.3332  0.6352 -0.3718
15178TIP3    H166949   2.790   1.304   2.143 -0.4336  0.7490  2.3660
15178TIP3    H266950   2.744   1.161   2.123  0.6497  0.7429 -0.4030
15179TIP3   OH266951   0.713   3.287   2.006  0.4812  0.3595 -0.2931
15179TIP3    H166952   0.694   3.350   2.076 -1.0050 -1.5111  1.0462
15179TIP3    H266953   0.650   3.216   2.020  0.0051  0.0476 -3.6827
15180TIP3   OH266954   7.206   2.785   1.955 -0.5128  0.5066 -0.4410
15180TIP3    H166955   7.239   2.747   2.037 -1.3358 -2.6608 -1.5047
15180TIP3    H266956   7.261   2.746   1.887 -2.4155 -0.0419 -1.7019
15181TIP3   OH266957   5.969   6.535   3.483 -0.1162 -0.2907  0.0378
15181TIP3    H166958   5.937   6.576   3.402 -2.2905  0.1139  1.0798
15181TIP3    H266959   6.040   6.478   3.454 -0.5359  0.2237 -2.1020
15182TIP3   OH266960   4.940   4.935   1.572 -0.3885 -0.2374 -0.3147
15182TIP3    H166961   4.911   4.863   1.629  0.6679  0.5481  1.2324
15182TIP3    H266962   4.860   4.964   1.527 -1.0721 -1.4166  0.1268
15183TIP3   OH266963   0.859   5.682   0.702 -0.0216 -0.8866 -0.3290
15183TIP3    H166964   0.941   5.694   0.653 -0.4321 -0.1686 -0.8569
15183TIP3    H266965   0.870   5.599   0.748  1.3710 -0.3347  0.3419
15184TIP3   OH266966   3.618   4.140   2.828 -0.1644  0.7053 -0.2171
15184TIP3    H166967   3.676   4.095   2.889 -1.8220 -0.0109  0.8802
15184TIP3    H266968   3.530   4.119   2.859 -1.0361  1.0879 -2.3092
15185TIP3   OH266969   3.692   5.598   0.700 -0.3884  0.4541 -0.1009
15185TIP3    H166970   3.750   5.579   0.774 -1.5793  0.2976  0.7958
15185TIP3    H266971   3.606   5.609   0.739 -1.4569 -1.9473 -1.7274
15186TIP3   OH266972   3.807   3.312   2.004 -0.5421 -0.2717  0.0903
15186TIP3    H166973   3.801   3.385   2.066  0.4418 -0.4184  0.3671
15186TIP3    H266974   3.718   3.277   1.999 -0.6363 -0.2393  1.4025
15187TIP3   OH266975   2.351   5.847   4.069 -0.0080 -0.1528 -0.2471
15187TIP3    H166976   2.320   5.794   4.142 -0.1753 -1.3369 -1.1513
15187TIP3    H266977   2.291   5.827   3.997 -0.1746  1.4056 -0.5561
15188TIP3   OH266978   2.949   3.150   3.476  0.0161 -1.0017 -0.3283
15188TIP3    H166979   2.950   3.156   3.571 -1.5152 -1.5819 -0.2563
15188TIP3    H266980   2.857   3.133   3.454 -0.4267  3.0863 -2.1628
15189TIP3   OH266981   6.158   3.664   3.191  0.0930 -0.0191 -0.5033
15189TIP3    H166982   6.098   3.711   3.250 -0.5663  0.7387 -1.7473
15189TIP3    H266983   6.244   3.674   3.231 -0.1328  1.7319 -0.4118
15190TIP3   OH266984   1.625   2.332   2.284 -0.2997 -0.2359 -0.1075
15190TIP3    H166985   1.560   2.266   2.308 -0.9157 -0.2333 -1.7270
15190TIP3    H266986   1.590   2.373   2.205 -0.8093  3.2387  1.8215
15191TIP3   OH266987   0.169   0.403   3.640 -0.2858 -0.3561  0.1251
15191TIP3    H166988   0.233   0.464   3.604 -1.0293  0.0359 -0.5715
15191TIP3    H266989   0.208   0.317   3.628 -1.0496 -0.3509 -2.8889
15192TIP3   OH266990   0.200   0.580   6.107  0.2489 -0.4581  0.1940
15192TIP3    H166991   0.137   0.509   6.124  0.8473 -1.7490 -2.7007
15192TIP3    H266992   0.153   0.660   6.129 -1.4190 -1.5827  0.8146
15193TIP3   OH266993   1.907   5.518   4.327 -0.0645  0.3894 -0.2239
15193TIP3    H166994   1.953   5.495   4.408  3.1073 -1.2582 -2.4103
15193TIP3    H266995   1.965   5.579   4.282 -1.1181  0.1293 -1.9856
15194TIP3   OH266996   1.462   1.750   4.275  0.5868  0.5145 -0.1043
15194TIP3    H166997   1.374   1.757   4.239  1.0043  2.9776 -0.7428
15194TIP3    H266998   1.453   1.777   4.367  0.6839  0.8184 -0.1836
15195TIP3   OH266999   0.315   6.620   2.800 -0.1401 -0.1448 -0.1264
15195TIP3    H167000   0.386   6.607   2.862 -0.4875 -0.9367  0.1123
15195TIP3    H267001   0.250   6.672   2.848 -0.2696 -0.4869  0.0695
15196TIP3   OH267002   2.654   3.577   4.869 -0.5311 -0.3374 -0.0831
15196TIP3    H167003   2.588   3.525   4.915  0.3023  1.8416  3.7879
15196TIP3    H267004   2.604   3.630   4.806 -2.0183 -1.5511  0.0677
15197TIP3   OH267005   1.398   7.001  15.378  0.6123 -0.3960  0.0342
15197TIP3    H167006   1.456   7.068  15.415  0.2588 -0.6433  1.0623
15197TIP3    H267007   1.359   7.043  15.301  2.0476 -0.1868 -0.5804
15198TIP3   OH267008   2.923   3.224   4.632 -0.1188 -0.3821 -0.4241
15198TIP3    H167009   2.967   3.265   4.706 -0.7175 -0.6032  0.0655
15198TIP3    H267010   2.942   3.281   4.558 -0.5845  0.5450  0.1625
15199TIP3   OH267011   1.319   1.291   1.596 -0.5332  0.0964  0.1150
15199TIP3    H167012   1.395   1.310   1.541 -0.1358 -0.1347  0.5779
15199TIP3    H267013   1.345   1.212   1.645 -0.8077  0.4070  0.7654
15200TIP3   OH267014   7.043   4.294   4.751 -0.2229 -0.2183  0.8056
15200TIP3    H167015   7.046   4.211   4.704 -1.4491  0.6171 -0.8051
15200TIP3    H267016   6.957   4.295   4.794 -0.2714  0.2646  0.7069
15201TIP3   OH267017   3.890   4.107   3.622  0.0360  0.1825 -0.0745
15201TIP3    H167018   3.878   4.024   3.668  0.3452 -0.6302 -1.4365
15201TIP3    H267019   3.981   4.104   3.592  0.8813  2.1721  2.1087
15202TIP3   OH267020   0.843   5.704   0.012  0.6043 -0.2760 -0.3505
15202TIP3    H167021   0.910   5.651  -0.030 -0.9394 -0.5107 -2.6109
15202TIP3    H267022   0.795   5.642   0.068  2.4130 -0.0413  1.5147
15203TIP3   OH267023   2.910   6.803   2.697  0.3194 -0.3301  0.3881
15203TIP3    H167024   2.868   6.887   2.680  0.8881  0.0863  1.0096
15203TIP3    H267025   2.944   6.775   2.612  0.6498  0.3588  0.2835
15204TIP3   OH267026   5.774   4.917   1.706 -0.0315 -0.8116  0.4722
15204TIP3    H167027   5.773   4.892   1.798 -2.0770 -0.1925  0.6556
15204TIP3    H267028   5.691   4.962   1.693  1.5959  1.8927 -0.9254
15205TIP3   OH267029   3.184   2.793   5.540 -0.2839  0.2779 -0.8225
15205TIP3    H167030   3.199   2.884   5.517  2.4456  0.2227  0.5758
15205TIP3    H267031   3.188   2.792   5.636  1.5559 -1.5789 -0.8817
15206TIP3   OH267032   2.840   5.906   1.261 -0.2577  0.6564  0.3231
15206TIP3    H167033   2.749   5.929   1.242 -0.0856  2.5606  1.6954
15206TIP3    H267034   2.881   5.897   1.175 -1.8855 -0.8794 -0.3212
15207TIP3   OH267035   0.690   2.887   5.160 -0.4804  0.0037  0.3882
15207TIP3    H167036   0.751   2.817   5.183 -0.1839  0.3287  0.5939
15207TIP3    H267037   0.716   2.961   5.215 -1.2263  0.0655  0.6725
15208TIP3   OH267038   3.373   2.129   2.646 -0.1954  0.2627 -0.1727
15208TIP3    H167039   3.349   2.146   2.737 -0.9768  0.0932 -0.3481
15208TIP3    H267040   3.445   2.190   2.629 -1.5399  1.8798 -0.1377
15209TIP3   OH267041   2.160   4.466   2.258 -0.3059 -0.4144  0.1203
15209TIP3    H167042   2.080   4.516   2.273  1.0327  1.3333  1.6970
15209TIP3    H267043   2.178   4.424   2.342  0.4478 -0.7722 -0.2151
15210TIP3   OH267044   1.317   3.660   1.123  0.6938  0.0677 -0.1619
15210TIP3    H167045   1.345   3.751   1.110  0.9840 -0.1561 -1.1427
15210TIP3    H267046   1.228   3.658   1.087 -0.4414  0.6601  2.5083
15211TIP3   OH267047   6.948   5.857   5.476  0.6581  0.5650 -0.3160
15211TIP3    H167048   6.902   5.936   5.505 -0.9341 -0.5349  0.2304
15211TIP3    H267049   6.939   5.857   5.381  0.0847  0.7024 -0.2632
15212TIP3   OH267050   5.996   5.107   1.168  0.2536 -0.1409 -0.3477
15212TIP3    H167051   6.042   5.097   1.085 -0.0361  0.2881 -0.5606
15212TIP3    H267052   5.906   5.078   1.149  0.4649 -1.1276  0.1022
15213TIP3   OH267053   6.094   3.569   2.951 -0.2323  0.1805  0.4529
15213TIP3    H167054   6.069   3.482   2.979 -1.4777  0.8215  1.3713
15213TIP3    H267055   6.104   3.619   3.032 -1.0660  1.2881 -0.1062
15214TIP3   OH267056   2.186   5.044   4.891 -0.3411  0.0157  0.0840
15214TIP3    H167057   2.167   5.037   4.985  0.4259  0.2556  0.2623
15214TIP3    H267058   2.137   4.972   4.851 -0.4794 -0.2350  0.6926
15215TIP3   OH267059   1.865   1.498   1.606  0.5340  0.2371 -0.2040
15215TIP3    H167060   1.866   1.593   1.612 -0.3831  0.7997 -5.9552
15215TIP3    H267061   1.773   1.476   1.594  0.7908 -1.3538  0.6200
15216TIP3   OH267062   2.075   1.428   4.163  0.3871  0.5820  0.3985
15216TIP3    H167063   2.064   1.444   4.256  0.3930  0.8251  0.3570
15216TIP3    H267064   2.169   1.422   4.150  0.3363 -0.9994  0.6668
15217TIP3   OH267065   2.776   4.586   3.561  0.0671 -0.0272  0.2081
15217TIP3    H167066   2.784   4.628   3.646 -0.0431 -1.1522  0.7856
15217TIP3    H267067   2.858   4.608   3.515 -0.1538  1.1189  0.3453
15218TIP3   OH267068   0.902   2.232   4.196  0.1523  0.0843 -0.1671
15218TIP3    H167069   0.944   2.236   4.110  2.9377 -0.8791  1.0873
15218TIP3    H267070   0.936   2.152   4.235 -0.4568  0.9410  2.1709
15219TIP3   OH267071   7.087   4.885   4.946 -0.4251  0.0357 -0.0640
15219TIP3    H167072   7.006   4.874   4.996 -0.0002  0.5742  0.7549
15219TIP3    H267073   7.150   4.825   4.987  0.1296  0.9974  0.5045
15220TIP3   OH267074   1.258   5.707  14.811  0.2552 -0.8887 -0.0756
15220TIP3    H167075   1.269   5.797  14.842  0.4702 -0.6161 -0.9342
15220TIP3    H267076   1.340   5.688  14.765  0.9931 -2.1836  1.7108
15221TIP3   OH267077   0.715   2.388   3.085 -0.0888 -0.3590 -0.0550
15221TIP3    H167078   0.686   2.300   3.109 -1.7010 -0.3004 -1.7077
15221TIP3    H267079   0.689   2.443   3.159 -2.6081 -0.6286 -0.6934
15222TIP3   OH267080   6.221   0.479   1.891 -0.0367 -0.0881 -0.4914
15222TIP3    H167081   6.306   0.513   1.863 -0.7212  1.5508 -0.6005
15222TIP3    H267082   6.158   0.520   1.832 -1.1104  0.3733  0.9476
15223TIP3   OH267083   6.806   4.837   2.627 -0.8074 -0.1547  0.0296
15223TIP3    H167084   6.887   4.888   2.621 -1.1393  0.2671 -1.1847
15223TIP3    H267085   6.827   4.764   2.685  1.5211 -2.0846 -3.0874
15224TIP3   OH267086   0.926   5.633   2.678 -0.6387  0.2516  0.1902
15224TIP3    H167087   1.015   5.625   2.644 -0.7232  1.2205 -0.2605
15224TIP3    H267088   0.869   5.613   2.603 -0.8031 -1.3596  0.7275
15225TIP3   OH267089   2.081   4.249   4.018  0.6346 -0.5780 -0.7962
15225TIP3    H167090   2.064   4.284   4.105  0.2324 -0.7475 -0.8060
15225TIP3    H267091   2.139   4.174   4.033  1.1073 -0.2012 -0.7346
15226TIP3   OH267092   4.073   5.731   1.646  0.1398  0.1306  1.0260
15226TIP3    H167093   4.003   5.788   1.676 -0.9038 -1.1152  1.0275
15226TIP3    H267094   4.053   5.646   1.686  0.8075 -0.6159 -0.2112
15227TIP3   OH267095   0.439   5.933   5.406 -0.6563  0.5460 -0.2846
15227TIP3    H167096   0.517   5.980   5.435  0.0362 -0.3560 -0.6768
15227TIP3    H267097   0.427   5.863   5.471 -1.2230  0.7629 -0.1484
15228TIP3   OH267098   6.294   4.506   5.117 -0.4436  0.1820 -0.8506
15228TIP3    H167099   6.205   4.473   5.104 -0.3044 -0.0071 -1.3538
15228TIP3    H267100   6.283   4.584   5.171 -0.9560  0.4133 -1.2775
15229TIP3   OH267101   0.053   4.082   0.882  0.4301  0.1846 -0.0044
15229TIP3    H167102   0.075   4.162   0.833 -1.2100 -0.4258 -1.7849
15229TIP3    H267103  -0.013   4.111   0.945  0.3089  0.3671 -0.2127
15230TIP3   OH267104   1.839   6.007   2.395  0.0923  0.0526 -0.0468
15230TIP3    H167105   1.755   6.038   2.361  0.4901  1.8688  0.5849
15230TIP3    H267106   1.827   5.913   2.408 -2.0427  0.4009  0.5932
15231TIP3   OH267107   0.211   3.957   5.708  0.1779 -0.3598  0.0040
15231TIP3    H167108   0.207   4.030   5.770 -0.7478 -1.2630  1.0185
15231TIP3    H267109   0.120   3.932   5.695  0.3697 -0.1880 -1.7174
15232TIP3   OH267110   4.228   0.739   3.536  0.0315  0.6140 -0.3567
15232TIP3    H167111   4.317   0.727   3.504  0.4559  1.1089  0.6014
15232TIP3    H267112   4.176   0.675   3.488  1.2578 -1.1609  0.6297
15233TIP3   OH267113   5.577   6.275   5.434  0.0294 -0.2441  0.2678
15233TIP3    H167114   5.536   6.356   5.402  1.8146  0.7705  0.5201
15233TIP3    H267115   5.607   6.231   5.355 -0.0973 -0.2138  0.2014
15234TIP3   OH267116   6.814   6.408   2.414  0.6905  0.4451 -0.2255
15234TIP3    H167117   6.746   6.383   2.351  0.9260 -1.2622  0.1714
15234TIP3    H267118   6.895   6.411   2.362  0.9753 -1.4816  0.0775
15235TIP3   OH267119   0.524   5.937   2.839  0.3425  0.1517  0.8247
15235TIP3    H167120   0.603   5.883   2.836  0.3341  0.1204  1.1320
15235TIP3    H267121   0.473   5.901   2.911  2.0109  2.8103  3.4960
15236TIP3   OH267122   1.754   5.284   1.904  0.4454 -0.2652 -0.2629
15236TIP3    H167123   1.666   5.251   1.920 -0.4024  1.2622 -1.5645
15236TIP3    H267124   1.765   5.355   1.967 -0.7040  1.9598 -2.4657
15237TIP3   OH267125   2.223   3.335   4.907 -0.4163  0.7457 -0.1375
15237TIP3    H167126   2.185   3.264   4.855 -0.5460  1.3142 -0.8206
15237TIP3    H267127   2.182   3.327   4.993  1.5628 -1.7140  0.6648
15238TIP3   OH267128   3.158   2.351   1.180 -0.9106  0.0471 -0.6219
15238TIP3    H167129   3.211   2.298   1.121 -0.9820 -1.3568  0.5662
15238TIP3    H267130   3.210   2.430   1.194  0.5994 -1.0360  0.0300
15239TIP3   OH267131   0.450   3.180   1.071 -0.0101  0.4570 -0.0056
15239TIP3    H167132   0.488   3.251   1.123  1.1468 -0.3590  0.2787
15239TIP3    H267133   0.524   3.125   1.048 -0.8805 -0.6022 -0.3250
15240TIP3   OH267134   5.187   4.410   1.721  0.1199 -0.2997 -0.1342
15240TIP3    H167135   5.122   4.472   1.688  0.5316 -0.3528 -1.0673
15240TIP3    H267136   5.141   4.360   1.789 -0.3059  0.7986  0.3843
15241TIP3   OH267137   1.439   1.470   4.522 -0.2992 -0.1663  0.0213
15241TIP3    H167138   1.469   1.419   4.598  0.2969 -0.0909 -0.1643
15241TIP3    H267139   1.481   1.555   4.532 -0.5430 -0.0223 -0.1813
15242TIP3   OH267140   2.363   5.775   2.227  0.0836  0.2201  0.0972
15242TIP3    H167141   2.282   5.726   2.216 -0.4662  1.2896 -0.6365
15242TIP3    H267142   2.392   5.793   2.137  2.6827 -2.6659  0.2549
15243TIP3   OH267143   3.577   6.360   3.973 -0.0312 -0.2267 -0.8233
15243TIP3    H167144   3.637   6.407   3.915 -2.6148 -0.0183 -3.4501
15243TIP3    H267145   3.495   6.410   3.969 -0.8983 -1.3894  1.4185
15244TIP3   OH267146   0.179   2.987   4.991 -0.3360  0.2714  0.7222
15244TIP3    H167147   0.252   3.049   4.999  0.4185 -0.7373  1.7728
15244TIP3    H267148   0.158   2.987   4.898  2.4503 -1.0474  0.0456
15245TIP3   OH267149   2.034   2.716   1.232 -0.7058 -0.5078  0.0761
15245TIP3    H167150   2.035   2.788   1.169 -0.0936 -1.1932 -0.7098
15245TIP3    H267151   1.944   2.684   1.230 -1.8595  2.2652  2.8183
15246TIP3   OH267152   1.972   5.907   3.670 -0.2230  0.3624 -0.1538
15246TIP3    H167153   1.991   5.922   3.577  0.2440 -2.4285 -0.5514
15246TIP3    H267154   1.917   5.828   3.671 -2.0084  1.5645  1.8182
15247TIP3   OH267155   1.660   2.587   2.998 -0.2466 -0.3085  0.1838
15247TIP3    H167156   1.661   2.496   2.969 -2.1067 -0.2841 -0.0051
15247TIP3    H267157   1.567   2.608   3.007  0.1276  1.9255 -0.8768
15248TIP3   OH267158   2.294   4.528  14.256  0.0016 -0.0837 -0.2426
15248TIP3    H167159   2.321   4.443  14.291 -0.8904 -0.6696 -0.9375
15248TIP3    H267160   2.310   4.590  14.327  1.8320 -0.6295 -0.1599
15249TIP3   OH267161   1.707   3.382   1.996  0.2912  0.0606 -0.2173
15249TIP3    H167162   1.691   3.410   2.086  1.5896 -1.1920  0.4063
15249TIP3    H267163   1.776   3.316   2.002  0.0231 -0.4317 -2.0740
15250TIP3   OH267164   4.723   4.120   2.712 -0.5131  0.2596 -0.4394
15250TIP3    H167165   4.799   4.080   2.668  1.3931  3.3072 -0.1323
15250TIP3    H267166   4.683   4.048   2.760  1.6665 -1.6527 -1.3293
15251TIP3   OH267167   5.460   6.503   2.581  0.1235 -0.1766 -0.0990
15251TIP3    H167168   5.485   6.562   2.510 -0.0551  2.9554  2.3236
15251TIP3    H267169   5.399   6.441   2.541 -2.1083  3.1653 -2.1250
15252TIP3   OH267170   1.089   6.369   2.035 -0.6761  0.4305 -0.4959
15252TIP3    H167171   1.010   6.422   2.039 -0.0909  1.1427  3.6623
15252TIP3    H267172   1.160   6.432   2.020 -0.2456  0.6351  2.1315
15253TIP3   OH267173   0.779   4.193   2.436 -0.0393 -0.3085  0.2208
15253TIP3    H167174   0.761   4.208   2.529  0.5483 -0.9567  0.4515
15253TIP3    H267175   0.820   4.106   2.434 -1.0168 -0.7553 -0.7639
15254TIP3   OH267176   2.318   5.274   4.783  1.0316  0.4070 -0.3962
15254TIP3    H167177   2.399   5.233   4.813  0.3103 -1.5307 -1.0039
15254TIP3    H267178   2.249   5.224   4.825  0.0955 -0.0683 -2.4293
15255TIP3   OH267179   4.169   2.960   3.691 -0.0325  0.3860 -0.3100
15255TIP3    H167180   4.112   2.928   3.761 -0.2180  0.0208 -0.6262
15255TIP3    H267181   4.203   3.043   3.724 -0.0567  0.1776  0.2462
15256TIP3   OH267182   5.768   4.689   1.567 -0.1628  0.0141  0.4435
15256TIP3    H167183   5.714   4.713   1.491 -2.3141 -0.7538  1.6639
15256TIP3    H267184   5.770   4.768   1.620 -1.0173 -0.2696  0.9106
15257TIP3   OH267185   4.716   3.564   4.864  0.4380  0.0211 -0.0938
15257TIP3    H167186   4.707   3.593   4.955  0.0234 -2.2736  0.6470
15257TIP3    H267187   4.627   3.573   4.828  0.7899  1.7827 -0.5645
15258TIP3   OH267188   1.925   0.900   1.321 -0.0932 -0.1276  0.1057
15258TIP3    H167189   1.931   0.995   1.308  0.0252  0.2042  2.4195
15258TIP3    H267190   1.964   0.863   1.242  0.3022  1.7467 -0.6127
15259TIP3   OH267191   5.979   2.465   2.978  0.5596  0.1638 -0.3303
15259TIP3    H167192   5.976   2.458   2.882  1.6429 -1.6400 -0.2461
15259TIP3    H267193   5.889   2.449   3.006  0.0738  1.5013 -1.0816
15260TIP3   OH267194   4.225   6.640  15.524  0.2285 -0.3352  0.5598
15260TIP3    H167195   4.193   6.564  15.572 -0.3724 -0.5526 -0.1693
15260TIP3    H267196   4.175   6.640  15.442 -0.3977  1.3330  0.9156
15261TIP3   OH267197   6.016   6.866   1.661  0.2359  0.0121  0.2883
15261TIP3    H167198   5.967   6.787   1.682  0.4859 -0.3316 -0.4170
15261TIP3    H267199   5.960   6.938   1.690 -0.5323 -0.3826 -0.2151
15262TIP3   OH267200   1.250   4.151   5.526 -0.0402 -0.3139 -0.3678
15262TIP3    H167201   1.287   4.182   5.443 -1.3790  2.6919  0.1070
15262TIP3    H267202   1.172   4.102   5.501 -1.1140  1.6097 -0.8473
15263TIP3   OH267203   6.142   6.455   3.060 -0.0796 -0.1659  0.0093
15263TIP3    H167204   6.233   6.481   3.071 -0.2195 -0.7126  2.6259
15263TIP3    H267205   6.145   6.362   3.038 -0.0286 -0.2010  0.1705
15264TIP3   OH267206   1.469   4.426   4.975  0.3076  0.1338  0.0049
15264TIP3    H167207   1.436   4.347   5.018 -1.7644  0.2845 -1.2840
15264TIP3    H267208   1.550   4.397   4.932  0.1768 -1.0117  0.4979
15265TIP3   OH267209   0.477   5.107   3.562 -0.1934 -0.6143  0.1082
15265TIP3    H167210   0.490   5.073   3.474 -2.3035  0.5254 -0.6693
15265TIP3    H267211   0.565   5.124   3.595  0.6343 -1.6111 -1.5399
15266TIP3   OH267212   3.023   1.231   2.653 -0.1680 -0.7246 -0.4083
15266TIP3    H167213   3.114   1.261   2.646  0.2198 -0.9805  2.6522
15266TIP3    H267214   3.025   1.163   2.721 -2.3231 -2.1712 -1.7256
15267TIP3   OH267215   6.453   6.290  15.744 -0.9581  0.0474  0.3136
15267TIP3    H167216   6.521   6.326  15.686 -1.1797  1.2981  0.8189
15267TIP3    H267217   6.501   6.230  15.801 -0.4262  0.2327  0.0755
15268TIP3   OH267218   2.549   6.818   1.557 -0.0817 -0.2729 -0.4179
15268TIP3    H167219   2.595   6.782   1.481  0.3263  1.4893 -1.0331
15268TIP3    H267220   2.616   6.826   1.624  0.2886  1.2483 -0.9528
15269TIP3   OH267221   0.455   3.340   3.430 -0.0833 -0.0756  0.4136
15269TIP3    H167222   0.525   3.334   3.366  0.2874 -0.7349  0.8691
15269TIP3    H267223   0.403   3.260   3.418  1.9918 -1.9254  3.2136
15270TIP3   OH267224   0.045   2.376   4.469 -0.2932  0.0662 -0.2528
15270TIP3    H167225  -0.040   2.414   4.491  0.0104  0.1684  0.8116
15270TIP3    H267226   0.025   2.289   4.435 -0.7945 -0.1987  0.6793
15271TIP3   OH267227   6.501   2.971   1.548  0.2732  0.2703 -0.3020
15271TIP3    H167228   6.550   3.021   1.482  1.8113  0.0425  0.6326
15271TIP3    H267229   6.561   2.965   1.623 -0.6483 -1.2703  0.3416
15272TIP3   OH267230   5.581   5.167   3.362  0.0273 -0.5132 -0.4743
15272TIP3    H167231   5.531   5.200   3.287  1.7849  0.5806 -1.1844
15272TIP3    H267232   5.672   5.186   3.340  0.7333 -2.1879  0.9622
15273TIP3   OH267233   3.757   2.104   1.118 -0.1771 -0.4041  0.1142
15273TIP3    H167234   3.816   2.029   1.126  0.5480 -0.0705 -1.7067
15273TIP3    H267235   3.813   2.175   1.087 -1.1147  0.5102  0.4969
15274TIP3   OH267236   0.079   1.540   4.102 -0.0318 -0.5371 -0.0377
15274TIP3    H167237   0.154   1.589   4.067 -0.1124  0.2474  0.8691
15274TIP3    H267238   0.014   1.607   4.123 -0.2108 -1.0328  1.0525
15275TIP3   OH267239   2.233   5.999   0.413  0.0535  0.0355 -0.6842
15275TIP3    H167240   2.222   5.940   0.487  0.2620  1.1201  0.2388
15275TIP3    H267241   2.299   5.957   0.358 -0.1109 -0.7810 -0.2673
15276TIP3   OH267242   2.633   4.943   5.365 -0.1929  0.2367 -0.1191
15276TIP3    H167243   2.689   4.992   5.425 -2.7698  1.5601  1.2428
15276TIP3    H267244   2.626   5.000   5.288  2.0032 -0.8726 -1.2068
15277TIP3   OH267245   0.200   6.245   4.080 -0.8038  0.0160  0.0760
15277TIP3    H167246   0.159   6.161   4.100  0.3131 -0.8640 -1.2483
15277TIP3    H267247   0.250   6.266   4.159 -4.2387  1.4385  1.9825
15278TIP3   OH267248   5.145   5.727   4.156  0.4532 -0.5667 -0.2213
15278TIP3    H167249   5.119   5.636   4.171 -1.1180 -0.0827  0.0474
15278TIP3    H267250   5.073   5.779   4.191  1.7641  0.8165  0.4679
15279TIP3   OH267251   2.555   5.615   1.989  0.4143 -0.0268  0.0263
15279TIP3    H167252   2.529   5.707   1.984  0.2795 -0.0919 -0.4931
15279TIP3    H267253   2.476   5.567   1.963 -0.1367 -0.3623  2.2489
15280TIP3   OH267254   1.494   4.867   4.723  0.0961 -0.9511  0.5621
15280TIP3    H167255   1.580   4.881   4.763 -0.6018  1.6826  1.2406
15280TIP3    H267256   1.466   4.781   4.755  2.2581 -1.6324  0.6982
15281TIP3   OH267257   0.679   6.842   4.834 -0.2214 -0.2266 -0.0493
15281TIP3    H167258   0.631   6.924   4.821 -2.0943 -1.3895 -0.7703
15281TIP3    H267259   0.761   6.854   4.786 -0.7228  1.0098 -0.6211
15282TIP3   OH267260   3.496   5.634   4.063  0.0036  0.1550  0.2257
15282TIP3    H167261   3.576   5.658   4.110  0.1952  3.1049 -1.4981
15282TIP3    H267262   3.428   5.690   4.100 -0.8344 -0.8595  0.2447
15283TIP3   OH267263   3.199   4.821   4.052 -0.8355 -0.2545  0.3923
15283TIP3    H167264   3.126   4.825   4.114 -0.7588  0.2040  0.4492
15283TIP3    H267265   3.237   4.908   4.053 -1.9040  0.2650 -1.5996
15284TIP3   OH267266   2.594   3.137   5.720 -0.0270  0.0859  0.0868
15284TIP3    H167267   2.591   3.214   5.777 -1.3661  1.2940 -1.5411
15284TIP3    H267268   2.670   3.088   5.749 -0.7206  0.6219  2.9469
15285TIP3   OH267269   0.163   5.225   3.807  0.3534  0.2910  0.3877
15285TIP3    H167270   0.231   5.178   3.759 -0.1585 -1.1782  1.0588
15285TIP3    H267271   0.191   5.316   3.806  1.4236 -0.0473 -0.8584
15286TIP3   OH267272   2.788   4.064   3.951 -0.3550 -0.6519 -0.3169
15286TIP3    H167273   2.715   4.037   4.006  0.3072  0.2860  1.0473
15286TIP3    H267274   2.781   4.160   3.947  0.1444 -0.6401 -1.1046
15287TIP3   OH267275   5.894   6.661   2.452  0.5658  0.5114 -0.0002
15287TIP3    H167276   5.958   6.675   2.522  0.1168  0.2323  0.4786
15287TIP3    H267277   5.819   6.714   2.478  0.8438  1.3434 -0.8902
15288TIP3   OH267278   6.484   6.849   3.113 -0.0888 -0.2718  0.5905
15288TIP3    H167279   6.493   6.755   3.097 -0.0373 -0.5216  2.0544
15288TIP3    H267280   6.445   6.855   3.200  0.5356  1.0697  0.7901
15289TIP3   OH267281   2.018   7.247   3.330 -0.0261  0.4802 -0.0841
15289TIP3    H167282   2.009   7.315   3.397 -1.1670  0.7136 -0.4660
15289TIP3    H267283   2.040   7.296   3.250 -0.4541  0.3570 -0.2739
15290TIP3   OH267284   7.179   0.886   4.705  0.1257 -0.0465  0.2151
15290TIP3    H167285   7.261   0.852   4.742  0.5439 -0.5646 -1.1811
15290TIP3    H267286   7.190   0.981   4.709 -0.6504 -0.0230  3.2266
15291TIP3   OH267287   3.780   3.611   4.286  0.1742 -0.5569  0.1143
15291TIP3    H167288   3.762   3.553   4.213 -0.5829 -2.5022  1.7795
15291TIP3    H267289   3.860   3.575   4.326 -0.1348 -0.2778  0.9956
15292TIP3   OH267290   5.977   6.562   0.266  0.3817  0.1997 -0.6285
15292TIP3    H167291   6.015   6.623   0.202  2.2966 -0.6652 -0.3590
15292TIP3    H267292   5.988   6.607   0.350  1.2564 -0.2454 -0.4979
15293TIP3   OH267293   6.081   2.776   1.464 -0.0285  0.1181  0.1424
15293TIP3    H167294   6.153   2.751   1.407  0.4634  2.0173 -0.0887
15293TIP3    H267295   6.032   2.841   1.414  1.0081  2.6123  2.2443
15294TIP3   OH267296   0.739   0.998   0.511  0.1886 -0.3941 -0.6325
15294TIP3    H167297   0.689   1.065   0.557 -0.1711 -1.2252  0.2030
15294TIP3    H267298   0.828   1.034   0.504 -0.4485  0.9911 -1.9329
15295TIP3   OH267299   2.802   4.414   5.801 -0.5021  0.7883  1.1303
15295TIP3    H167300   2.871   4.430   5.737  0.3030 -1.5373  1.3583
15295TIP3    H267301   2.756   4.498   5.810 -0.5850  1.1657 -2.4089
15296TIP3   OH267302   4.099   5.242   3.424 -0.2828 -0.5062 -0.0995
15296TIP3    H167303   4.005   5.257   3.407 -0.3623  0.2029  0.9247
15296TIP3    H267304   4.143   5.297   3.359 -0.5917  2.0794  1.8054
15297TIP3   OH267305   0.857   4.209   2.992  0.9795 -0.7478 -0.4402
15297TIP3    H167306   0.781   4.154   3.012 -0.1463  1.2736  1.0696
15297TIP3    H267307   0.932   4.151   3.003 -0.1346 -1.8096  1.8324
15298TIP3   OH267308   2.329   3.377   1.444 -0.0685 -0.2462  0.4275
15298TIP3    H167309   2.407   3.376   1.388  0.7412 -3.9147  1.4944
15298TIP3    H267310   2.363   3.386   1.533 -1.0679  0.9553  0.7004
15299TIP3   OH267311   0.921   0.322   1.944  0.4379  0.3975 -0.1923
15299TIP3    H167312   0.919   0.281   1.858 -0.8285 -0.7463  0.3734
15299TIP3    H267313   0.841   0.293   1.987  0.6796  1.5701  1.1013
15300TIP3   OH267314   3.209   6.094   2.580  0.2303 -0.3962 -0.3473
15300TIP3    H167315   3.282   6.145   2.616  1.3473 -1.4803 -1.0737
15300TIP3    H267316   3.236   6.003   2.590 -1.2171 -0.8198 -0.2245
15301TIP3   OH267317   2.978   6.659   5.197 -0.3228  0.3667 -0.5441
15301TIP3    H167318   2.945   6.744   5.170  0.5074  0.9504  0.2501
15301TIP3    H267319   3.003   6.615   5.116  1.0788  1.6488 -0.8108
15302TIP3   OH267320   3.287   6.274   4.495 -0.1907 -0.3285 -0.5408
15302TIP3    H167321   3.258   6.217   4.567 -0.0283 -0.4717 -0.5899
15302TIP3    H267322   3.336   6.344   4.539 -1.2521  0.3313 -0.3826
15303TIP3   OH267323   3.099   6.704   5.699  0.2324 -0.1155 -0.2116
15303TIP3    H167324   3.063   6.774   5.754 -0.2738  0.5414 -1.3610
15303TIP3    H267325   3.023   6.658   5.665  0.5344 -0.4275 -0.4703
15304TIP3   OH267326   5.023   2.989  15.685  0.0853  0.1512 -0.1138
15304TIP3    H167327   5.073   3.064  15.717 -0.6810  0.0885  1.2402
15304TIP3    H267328   5.080   2.949  15.619  1.5871  0.4169  0.9895
15305TIP3   OH267329   2.400   4.147   2.704 -0.0664  0.1145  0.8089
15305TIP3    H167330   2.477   4.116   2.752 -0.6073 -0.2888  1.4302
15305TIP3    H267331   2.424   4.234   2.672  0.7942 -0.1843  0.6486
15306TIP3   OH267332   3.666   2.478   4.399 -0.5312 -0.2265 -0.2130
15306TIP3    H167333   3.665   2.438   4.486 -0.1862 -2.5277 -1.2329
15306TIP3    H267334   3.630   2.411   4.341 -1.6489  1.6159 -1.7273
15307TIP3   OH267335   4.859   3.091   4.186  0.1659 -0.4897  0.3022
15307TIP3    H167336   4.775   3.124   4.155  0.2137 -0.7028 -0.0621
15307TIP3    H267337   4.837   3.008   4.230  0.3210 -1.1628 -0.8551
15308TIP3   OH267338   2.138   4.819   3.926 -0.4217 -0.2550 -0.5449
15308TIP3    H167339   2.172   4.886   3.868  0.3324 -0.1701 -0.0119
15308TIP3    H267340   2.215   4.770   3.955 -1.0140 -1.7336 -1.3951
15309TIP3   OH267341   4.426   0.540   0.286  0.5717 -0.7368 -0.0119
15309TIP3    H167342   4.414   0.484   0.363 -1.2010  0.0065  0.2655
15309TIP3    H267343   4.497   0.599   0.311 -0.2819 -0.2149  1.2265
15310TIP3   OH267344   4.936   4.400   2.042 -0.0982 -0.2152  0.1011
15310TIP3    H167345   4.908   4.407   2.133  1.9714 -0.3549  0.7695
15310TIP3    H267346   5.031   4.395   2.046  0.2476  3.0134 -2.2932
15311TIP3   OH267347   0.021   3.962   1.533 -0.0253 -0.3259 -0.2118
15311TIP3    H167348   0.002   3.877   1.573  0.6608  0.0842  1.0132
15311TIP3    H267349  -0.061   3.988   1.492 -0.5747 -1.0447  0.4123
15312TIP3   OH267350   3.572   4.556   2.519 -0.3684  0.3415  0.1233
15312TIP3    H167351   3.663   4.533   2.541 -0.5281 -0.1298  0.3031
15312TIP3    H267352   3.525   4.548   2.602 -0.5209  0.8588  0.0859
15313TIP3   OH267353   4.622   0.168   3.930  0.1804 -0.0848  0.0974
15313TIP3    H167354   4.577   0.100   3.980  2.1483 -0.6059  1.2228
15313TIP3    H267355   4.689   0.201   3.990 -0.6683  2.7968 -0.4704
15314TIP3   OH267356   3.655   6.656   2.627 -0.1280  0.1534 -0.1692
15314TIP3    H167357   3.565   6.647   2.657  0.3908  0.6332  1.5546
15314TIP3    H267358   3.703   6.691   2.702  1.8428 -1.7233 -0.5129
15315TIP3   OH267359   0.986   4.958   4.310 -0.2429 -0.2757  0.4682
15315TIP3    H167360   0.947   4.922   4.389 -0.3427 -0.6862  0.2357
15315TIP3    H267361   1.063   5.006   4.340 -0.0483 -0.7744  0.7679
15316TIP3   OH267362   3.910   6.485   0.944 -0.5203  0.0623 -0.0929
15316TIP3    H167363   3.971   6.545   0.901  1.1493 -1.1994  0.4500
15316TIP3    H267364   3.941   6.398   0.919 -2.8065 -0.5954 -0.7239
15317TIP3   OH267365   1.701   1.024   5.094  0.2586 -0.7054 -0.1922
15317TIP3    H167366   1.697   1.106   5.143  0.5416 -0.7390 -0.1120
15317TIP3    H267367   1.611   1.011   5.062  0.7892  1.0494 -2.5291
15318TIP3   OH267368   4.572   6.138   3.802 -0.6966 -0.2622  0.1259
15318TIP3    H167369   4.538   6.084   3.873 -2.5452 -1.0718 -1.3350
15318TIP3    H267370   4.609   6.075   3.740 -0.3885  0.3365 -0.3011
15319TIP3   OH267371   1.781   5.894   4.002  0.2836 -0.3240 -0.5667
15319TIP3    H167372   1.749   5.976   3.966 -1.2789  0.0390  1.5474
15319TIP3    H267373   1.755   5.828   3.937 -0.7299  0.5324 -1.0434
15320TIP3   OH267374   3.766   4.291   4.417 -0.7946  0.5248  0.0752
15320TIP3    H167375   3.805   4.248   4.494 -1.3080  1.1689  0.6927
15320TIP3    H267376   3.694   4.234   4.392 -0.1302 -0.1101 -0.4249
15321TIP3   OH267377   5.218   5.351   2.487 -0.4702 -0.2735 -0.5465
15321TIP3    H167378   5.128   5.327   2.509 -0.0502 -0.5983  0.8395
15321TIP3    H267379   5.251   5.395   2.565  0.5905 -0.1990 -1.0358
15322TIP3   OH267380   6.310   4.196   2.497 -0.4584  0.1140 -0.5168
15322TIP3    H167381   6.234   4.178   2.442  0.0085 -0.1130 -1.0880
15322TIP3    H267382   6.385   4.187   2.439  0.0329 -0.0242  0.1317
15323TIP3   OH267383   3.089   4.250   1.167  0.5369 -0.2558 -0.0754
15323TIP3    H167384   3.111   4.263   1.259 -1.2543  0.9671  0.2251
15323TIP3    H267385   3.171   4.263   1.120  0.8871  2.2253  1.1280
15324TIP3   OH267386   3.755   5.828   5.243  0.6542  0.0345 -0.6220
15324TIP3    H167387   3.826   5.834   5.307  0.0998  1.0546 -0.0864
15324TIP3    H267388   3.746   5.917   5.209  1.4123 -0.6277 -2.6561
15325TIP3   OH267389   1.751   6.748   3.299  0.0052 -0.1859 -0.7433
15325TIP3    H167390   1.677   6.773   3.243  1.3262 -0.2158 -2.5346
15325TIP3    H267391   1.822   6.727   3.238  1.5929  0.0946  0.9610
15326TIP3   OH267392   4.780   0.279   4.666  0.1478  0.0915 -0.2680
15326TIP3    H167393   4.712   0.218   4.638  0.4212 -0.5573  0.4797
15326TIP3    H267394   4.816   0.240   4.745 -0.4983  1.8133  0.9000
15327TIP3   OH267395   1.756   2.373  14.884 -0.0913 -0.5230 -0.3316
15327TIP3    H167396   1.805   2.444  14.842 -1.5802 -0.0513 -1.2971
15327TIP3    H267397   1.822   2.327  14.936  1.3674  0.1670 -1.5053
15328TIP3   OH267398   2.967   5.025   2.985 -0.4160 -0.2903  0.2753
15328TIP3    H167399   3.029   4.953   2.978  0.4458  0.5868 -1.3249
15328TIP3    H267400   2.886   4.984   3.017  0.8991 -1.4700  2.2035
15329TIP3   OH267401   2.567   5.215   4.930 -0.5740 -0.4741  0.0346
15329TIP3    H167402   2.594   5.303   4.956 -0.1366 -0.6899  0.3206
15329TIP3    H267403   2.644   5.177   4.889 -1.2987 -0.0987 -1.7269
15330TIP3   OH267404   5.549   5.604   2.843 -0.3357 -0.0304  0.1753
15330TIP3    H167405   5.561   5.611   2.937 -0.6200 -0.3604  0.2352
15330TIP3    H267406   5.633   5.631   2.806 -0.0764 -0.3461  0.5349
15331TIP3   OH267407   3.041   4.824   3.724  0.6329 -0.1091 -0.1585
15331TIP3    H167408   2.980   4.863   3.662 -2.5008 -2.6986  1.1131
15331TIP3    H267409   3.031   4.875   3.804  1.5204  0.5921 -0.4867
15332TIP3   OH267410   4.394   6.158   4.530 -0.2782  0.1533  0.5897
15332TIP3    H167411   4.418   6.125   4.617  1.6673 -1.5277 -0.5227
15332TIP3    H267412   4.330   6.094   4.498  0.4343 -0.3007  0.0520
15333TIP3   OH267413   1.932   3.745   1.576 -0.6072  0.0144  0.2149
15333TIP3    H167414   1.853   3.702   1.544  0.0080 -2.3919  1.8206
15333TIP3    H267415   1.928   3.734   1.671  1.2776  0.5603  0.3668
15334TIP3   OH267416   6.477   6.403  14.932  0.4498  0.8400 -0.0838
15334TIP3    H167417   6.485   6.325  14.987 -0.3924  0.7786 -0.0376
15334TIP3    H267418   6.535   6.467  14.972  1.5683  0.0518 -0.4428
15335TIP3   OH267419   2.732   5.737   2.855 -0.4273  0.4034  0.6008
15335TIP3    H167420   2.793   5.720   2.926 -1.2287  1.2939  1.5155
15335TIP3    H267421   2.739   5.660   2.798  1.3141  0.3715  0.8463
15336TIP3   OH267422   0.782   6.212   3.412 -0.1622 -0.2980 -0.4220
15336TIP3    H167423   0.709   6.151   3.404  0.7282 -1.6151  1.3554
15336TIP3    H267424   0.853   6.172   3.361  0.5087 -0.8988  0.9701
15337TIP3   OH267425   3.549   5.974   0.084  0.4450 -0.1497  0.1654
15337TIP3    H167426   3.519   5.932   0.164  2.3294 -0.2534  0.8389
15337TIP3    H267427   3.577   6.061   0.112  2.4337 -0.6861 -0.1299
15338TIP3   OH267428   3.573   4.083   1.803  0.4477 -0.4571 -0.1985
15338TIP3    H167429   3.611   4.076   1.716 -2.5180 -0.8715 -1.5108
15338TIP3    H267430   3.480   4.067   1.790 -0.5757  2.6246  2.5340
15339TIP3   OH267431   2.237   3.816   3.367  1.0419 -0.2473  0.2151
15339TIP3    H167432   2.172   3.842   3.302 -1.8466  0.7588  3.3194
15339TIP3    H267433   2.203   3.734   3.402  1.2395  0.4268  2.0536
15340TIP3   OH267434   3.407   3.656   5.295 -0.4416 -0.0755 -0.8673
15340TIP3    H167435   3.350   3.621   5.362  0.1659 -1.0892 -0.8613
15340TIP3    H267436   3.417   3.584   5.232  0.3384  0.2783 -1.1642
15341TIP3   OH267437   6.068   5.498   0.972  0.1761  0.1269 -0.1051
15341TIP3    H167438   6.030   5.479   1.058 -1.4851 -1.4037 -1.1300
15341TIP3    H267439   6.100   5.413   0.942  1.6124  0.8374 -0.5943
15342TIP3   OH267440   2.334   3.646   1.831  0.1303 -0.3763 -0.4000
15342TIP3    H167441   2.316   3.715   1.895  0.2272 -1.7708  1.1577
15342TIP3    H267442   2.280   3.572   1.859 -0.8568 -0.5891 -2.7162
15343TIP3   OH267443   3.346   4.664   3.568  0.0889 -0.0636 -0.2410
15343TIP3    H167444   3.380   4.590   3.618  0.5198 -0.2893 -0.8588
15343TIP3    H267445   3.382   4.741   3.613  1.0300 -0.2863 -0.6002
15344TIP3   OH267446   1.002   6.940   0.734  0.1589 -0.1243 -0.4252
15344TIP3    H167447   0.946   6.962   0.659  0.9432 -0.2117 -1.0451
15344TIP3    H267448   0.954   6.972   0.810 -1.9927 -2.5285 -0.7022
15345TIP3   OH267449   5.805   2.533   0.608 -0.7464  0.7460 -0.0102
15345TIP3    H167450   5.823   2.627   0.605  2.8327  0.0824 -1.7657
15345TIP3    H267451   5.784   2.509   0.518 -0.6904 -0.3009  0.2470
15346TIP3   OH267452   3.917   0.606   1.080  0.2145  0.9060  0.2386
15346TIP3    H167453   3.897   0.698   1.062 -1.1010  0.8894  1.4598
15346TIP3    H267454   3.834   0.560   1.065  0.8896 -0.0907 -0.4583
15347TIP3   OH267455   3.099   3.811   3.716 -0.1911 -0.0249  0.1245
15347TIP3    H167456   3.179   3.859   3.737  1.1230 -1.2898 -1.8309
15347TIP3    H267457   3.030   3.877   3.714  1.5485  1.7866 -2.3895
15348TIP3   OH267458   2.724   2.825   4.433 -0.7073  0.6003 -0.2434
15348TIP3    H167459   2.721   2.787   4.521 -1.6149  1.5937  0.1651
15348TIP3    H267460   2.739   2.750   4.375  0.0569 -0.0424  0.7671
15349TIP3   OH267461   3.855   3.783   5.571  0.0359 -0.4039  0.1962
15349TIP3    H167462   3.776   3.762   5.521 -1.1413  2.0656  0.9535
15349TIP3    H267463   3.844   3.738   5.654 -0.1768 -0.7152  0.0043
15350TIP3   OH267464   1.827   2.796   2.976 -0.4008 -0.2415  0.7003
15350TIP3    H167465   1.773   2.874   2.972 -0.4885 -0.3877 -1.5374
15350TIP3    H267466   1.765   2.724   2.989 -0.6681 -0.2700 -0.5939
15351TIP3   OH267467   2.282   5.643   4.928 -0.1845 -0.0640  0.0631
15351TIP3    H167468   2.214   5.667   4.991 -0.4647  2.8019 -1.2321
15351TIP3    H267469   2.359   5.627   4.982 -0.6209  1.5455  1.2186
15352TIP3   OH267470   7.249   1.706   4.980  0.0537 -0.6264  0.3001
15352TIP3    H167471   7.178   1.712   5.044  0.3027  1.2810  0.4200
15352TIP3    H267472   7.309   1.641   5.016 -0.9876 -1.3069  0.8263
15353TIP3   OH267473   1.983   2.314   4.151 -0.3913 -0.4825 -0.6826
15353TIP3    H167474   2.045   2.261   4.200  1.4345 -0.2283 -2.6621
15353TIP3    H267475   1.900   2.302   4.197  1.0253 -1.1161  1.7887
15354TIP3   OH267476   2.141   6.367   3.607 -0.6602 -0.0791 -0.2595
15354TIP3    H167477   2.077   6.324   3.663 -1.7276  1.0623 -0.5747
15354TIP3    H267478   2.094   6.385   3.526  0.4764 -0.4890 -1.0310
15355TIP3   OH267479   4.335   6.692   2.299  0.1601 -0.0900  1.1174
15355TIP3    H167480   4.288   6.759   2.348 -0.7535  0.2061 -0.1288
15355TIP3    H267481   4.327   6.720   2.208  2.6415 -0.1093  0.8709
15356TIP3   OH267482   2.701   3.031   3.438 -0.1007  0.8172 -0.2824
15356TIP3    H167483   2.727   2.988   3.356  0.2244  0.9907 -0.2726
15356TIP3    H267484   2.658   2.963   3.489  1.5059  0.1829  0.2518
15357TIP3   OH267485   3.636   4.513  15.029  0.8199  0.0877  0.1057
15357TIP3    H167486   3.620   4.568  15.106  0.0013 -0.1943  0.1432
15357TIP3    H267487   3.573   4.442  15.037 -1.7408  1.9017 -2.6278
15358TIP3   OH267488   4.753   5.527   2.836 -0.2262 -0.5269  0.0579
15358TIP3    H167489   4.708   5.548   2.755 -0.7146 -0.6780  0.2865
15358TIP3    H267490   4.728   5.436   2.854 -0.5638 -0.3181  0.6659
15359TIP3   OH267491   2.192   4.281   5.012 -0.1128 -0.1638  0.3074
15359TIP3    H167492   2.232   4.249   4.931 -0.3682  1.4343 -0.4947
15359TIP3    H267493   2.263   4.324   5.059 -0.3601  0.6065 -0.0049
15360TIP3   OH267494   3.438   5.630   5.207  0.4964  0.0845  0.1741
15360TIP3    H167495   3.362   5.685   5.187 -1.6017 -3.1635 -1.1639
15360TIP3    H267496   3.489   5.681   5.270 -1.9981  2.9896 -0.0666
15361TIP3   OH267497   1.987   2.691   0.899  0.4280  0.0063 -0.3587
15361TIP3    H167498   1.926   2.632   0.856  1.1932 -2.2998  1.6245
15361TIP3    H267499   1.932   2.760   0.937 -0.7239 -0.7868 -0.5671
15362TIP3   OH267500   3.631   6.956   4.606 -0.4173 -0.1156 -0.3548
15362TIP3    H167501   3.562   7.014   4.572  0.3529  2.2329  1.9149
15362TIP3    H267502   3.644   6.985   4.696  1.6662 -2.3293  0.1085
15363TIP3   OH267503   7.126   6.531   1.812  0.5331 -0.2649 -0.8157
15363TIP3    H167504   7.191   6.466   1.785 -1.3605 -1.8484 -1.6329
15363TIP3    H267505   7.125   6.594   1.740  1.7281  0.2075 -0.4340
15364TIP3   OH267506   1.768   0.092   4.161 -0.1157  0.0159  0.0741
15364TIP3    H167507   1.771   0.187   4.175  1.0179  0.4792 -3.0615
15364TIP3    H267508   1.858   0.068   4.141 -0.5762 -1.5768 -0.1144
15365TIP3   OH267509   1.765   2.791   1.814 -0.0578 -0.4855  0.6125
15365TIP3    H167510   1.854   2.789   1.848  0.4402 -4.1960 -0.5930
15365TIP3    H267511   1.711   2.761   1.888 -0.2405  0.9803  1.0919
15366TIP3   OH267512   4.378   6.882   4.868  0.2182 -0.8000  0.7988
15366TIP3    H167513   4.370   6.791   4.840 -0.2253 -0.3176 -0.6806
15366TIP3    H267514   4.460   6.912   4.830  0.1022 -0.4182  0.8421
15367TIP3   OH267515   4.023   6.414   4.726 -0.1863  0.7645  0.6156
15367TIP3    H167516   4.053   6.323   4.732  1.1021  1.0725 -0.8416
15367TIP3    H267517   3.968   6.415   4.647  1.1962  1.6159 -0.3485
15368TIP3   OH267518   3.004   5.596   4.931  0.3382 -0.2022 -0.4262
15368TIP3    H167519   2.922   5.603   4.881  1.5330  1.6464 -2.1901
15368TIP3    H267520   3.070   5.571   4.866  0.9813 -3.1315  1.2441
15369TIP3   OH267521   4.844   1.887   2.263  0.0033  0.6621 -0.4642
15369TIP3    H167522   4.809   1.929   2.184 -2.4732 -1.1566 -0.3823
15369TIP3    H267523   4.803   1.935   2.336 -1.2942 -0.5624 -0.3590
15370TIP3   OH267524   2.092   6.803   3.389  0.2340 -0.1443  0.0883
15370TIP3    H167525   2.126   6.810   3.299  2.9967 -2.9081  0.8318
15370TIP3    H267526   2.120   6.885   3.430  0.1620  0.5365 -1.1727
15371TIP3   OH267527   1.845   4.522   5.415  0.5956  0.0259  0.0573
15371TIP3    H167528   1.848   4.554   5.325 -0.4974 -1.5295 -0.5507
15371TIP3    H267529   1.765   4.560   5.451 -0.5298 -1.7189 -0.5641
15372TIP3   OH267530   0.168   5.344   3.031 -0.4167 -0.7793 -0.0031
15372TIP3    H167531   0.225   5.293   3.089  1.1416  1.2502  0.3135
15372TIP3    H267532   0.184   5.307   2.944  0.3770 -1.1337  0.2874
15373TIP3   OH267533   2.054   4.824   1.361  0.5047 -0.2732  0.4989
15373TIP3    H167534   2.107   4.842   1.284  1.3510 -0.2191  1.0813
15373TIP3    H267535   1.993   4.755   1.333  2.6831 -2.2738  0.5665
15374TIP3   OH267536   2.685   4.021  15.956 -0.1446  0.8104  0.0514
15374TIP3    H167537   2.608   3.973  15.925  0.5453 -0.6609  0.5442
15374TIP3    H267538   2.649   4.098  16.000 -1.4057 -0.5580  1.4778
15375TIP3   OH267539   3.327   4.118  15.797 -0.4642  0.2844  0.2473
15375TIP3    H167540   3.421   4.111  15.778 -0.6746 -0.4003 -0.5765
15375TIP3    H267541   3.322   4.115  15.892  0.1945 -2.1472  0.2405
15376TIP3   OH267542   2.054   3.449   4.500 -0.7419 -0.1675 -0.1383
15376TIP3    H167543   2.016   3.363   4.519 -0.9153 -0.1235 -0.2819
15376TIP3    H267544   2.099   3.474   4.581 -0.3499 -0.5732 -0.2361
15377TIP3   OH267545   3.951   7.214   2.961 -0.1929  0.1880  0.1397
15377TIP3    H167546   3.952   7.153   2.887  0.5723  0.5154 -0.1240
15377TIP3    H267547   4.008   7.286   2.933 -1.1033  1.0270  0.4409
15378TIP3   OH267548   0.732   6.062   2.097  0.8432  0.5498  0.5078
15378TIP3    H167549   0.718   6.077   2.004 -2.3712  2.6131  1.2171
15378TIP3    H267550   0.827   6.062   2.108  1.2781 -0.5339 -2.8641
15379TIP3   OH267551   0.118   1.293   0.732  0.5288  0.1446 -0.0598
15379TIP3    H167552   0.136   1.200   0.728  1.8148  0.4453 -1.6052
15379TIP3    H267553   0.098   1.318   0.642 -1.1109  1.1265  0.5428
15380TIP3   OH267554   0.174   6.274   5.571 -0.5222 -0.1225 -0.1792
15380TIP3    H167555   0.125   6.335   5.517  1.3249  1.6627  0.0992
15380TIP3    H267556   0.116   6.256   5.645 -0.5440  2.4829  0.4973
15381TIP3   OH267557   4.571   6.026   1.243 -0.0077 -0.7915 -0.0482
15381TIP3    H167558   4.488   5.994   1.278  0.4109 -1.8604 -0.0086
15381TIP3    H267559   4.589   5.969   1.168 -1.2021  1.8403 -2.4090
15382TIP3   OH267560   4.613   4.972   4.574  0.7541  0.2255 -0.2065
15382TIP3    H167561   4.520   4.950   4.579  0.7258  0.6568  1.2518
15382TIP3    H267562   4.658   4.887   4.569  0.3716 -0.0261  0.6373
15383TIP3   OH267563   7.229   5.622   2.822  0.0536  0.4995  0.1166
15383TIP3    H167564   7.319   5.630   2.853  0.0398 -0.1918  0.3531
15383TIP3    H267565   7.175   5.645   2.898  0.0357  2.1887 -0.4047
15384TIP3   OH267566   5.204   6.003   2.220  0.3341 -0.1537 -0.5030
15384TIP3    H167567   5.191   5.999   2.315  0.2824 -1.7818 -0.5576
15384TIP3    H267568   5.214   5.911   2.194 -0.5074  0.2128 -2.1908
15385TIP3   OH267569   2.383   6.276   3.865  0.2217 -0.7516 -0.3422
15385TIP3    H167570   2.302   6.225   3.862  0.2801 -0.8004 -1.4713
15385TIP3    H267571   2.443   6.228   3.808  0.6714 -0.0906 -0.4212
15386TIP3   OH267572   1.817   2.500   5.784  0.6536 -0.9492  0.1606
15386TIP3    H167573   1.881   2.511   5.854  1.2706 -0.6115 -0.4411
15386TIP3    H267574   1.843   2.564   5.718 -0.0230 -1.1408 -0.2935
15387TIP3   OH267575   1.838   5.206   2.793  0.6601  0.9964  0.1892
15387TIP3    H167576   1.760   5.260   2.782 -0.1155 -0.0970  0.2163
15387TIP3    H267577   1.856   5.172   2.706  0.3632  0.2426  0.4207
15388TIP3   OH267578   6.125   4.616   1.154  0.4359 -0.2635  0.1599
15388TIP3    H167579   6.076   4.698   1.151  0.3554 -0.3586 -2.3149
15388TIP3    H267580   6.067   4.555   1.199 -0.5204  0.3957 -0.1629
15389TIP3   OH267581   1.492   4.590   1.684  0.4871  0.4536  0.1643
15389TIP3    H167582   1.481   4.548   1.599  0.6972 -0.0205  0.3644
15389TIP3    H267583   1.486   4.518   1.747 -0.0326  0.8470  0.5764
15390TIP3   OH267584   7.095   4.400   2.994  0.2849 -0.3010  0.0496
15390TIP3    H167585   7.021   4.396   3.055 -0.6361 -1.7536 -1.1268
15390TIP3    H267586   7.061   4.361   2.914  1.6405  1.1354 -1.2377
15391TIP3   OH267587   2.057   1.894   2.677  0.3066 -0.3590 -0.2991
15391TIP3    H167588   2.069   1.851   2.592  0.4278 -0.1964 -0.3642
15391TIP3    H267589   2.062   1.823   2.740  1.6460 -0.3013 -0.3213
15392TIP3   OH267590   2.317   5.049   5.886 -0.0701 -0.1649 -0.1304
15392TIP3    H167591   2.410   5.067   5.877 -0.2684  0.9547 -0.0407
15392TIP3    H267592   2.276   5.099   5.815 -0.7538  0.7263  0.8705
15393TIP3   OH267593   4.809   1.122   5.068 -0.2465  0.0473  0.6533
15393TIP3    H167594   4.853   1.204   5.048  0.5314 -0.8373 -1.4351
15393TIP3    H267595   4.720   1.133   5.035 -0.4482  0.4071  1.3048
15394TIP3   OH267596   5.181   0.252   0.195 -0.0251  0.3101 -0.3422
15394TIP3    H167597   5.216   0.217   0.114  0.6213 -0.9543  0.4709
15394TIP3    H267598   5.109   0.309   0.168  0.1808 -0.1112 -1.7833
15395TIP3   OH267599   2.649   5.238   0.793 -0.0986  0.6956 -0.4576
15395TIP3    H167600   2.679   5.175   0.859 -1.3668  0.5296 -0.0274
15395TIP3    H267601   2.665   5.193   0.710 -0.2034  0.1473 -0.1867
15396TIP3   OH267602   2.548   2.156   4.889 -0.0292 -0.1969  0.5368
15396TIP3    H167603   2.582   2.066   4.888  2.1229  0.5954  0.0036
15396TIP3    H267604   2.588   2.196   4.965 -0.2149  0.6083  0.2128
15397TIP3   OH267605   4.783   2.885   4.345 -0.2693  0.5905 -0.4830
15397TIP3    H167606   4.807   2.850   4.431  1.1554  0.3140 -0.9886
15397TIP3    H267607   4.694   2.852   4.330 -0.1914 -0.0896  0.4948
15398TIP3   OH267608   6.141   4.170   4.687 -0.7396  0.3580  0.4555
15398TIP3    H167609   6.180   4.202   4.768  0.4108 -0.4059  0.2238
15398TIP3    H267610   6.200   4.100   4.659 -1.8298 -0.2384 -0.3641
15399TIP3   OH267611   4.628   3.744   3.863 -0.2578  0.0861 -0.2703
15399TIP3    H167612   4.622   3.678   3.932  0.0590 -1.0416 -1.2918
15399TIP3    H267613   4.614   3.828   3.908  0.9420 -0.5324  1.3200
15400TIP3   OH267614   4.684   2.604   4.519 -0.3446 -0.3732 -0.4937
15400TIP3    H167615   4.736   2.681   4.541  0.5068 -1.9206  3.3761
15400TIP3    H267616   4.744   2.530   4.535 -1.3479 -1.9028 -3.4702
15401TIP3   OH267617   2.611   6.239   2.295 -0.0621  0.5096 -0.1869
15401TIP3    H167618   2.553   6.302   2.337  1.5056  3.3211 -2.0844
15401TIP3    H267619   2.684   6.229   2.357 -0.8417 -0.2987  0.6067
15402TIP3   OH267620   4.402   5.008   1.039 -0.3465  0.0515 -0.2946
15402TIP3    H167621   4.325   4.973   0.995 -2.4325 -0.0794  3.3177
15402TIP3    H267622   4.464   4.935   1.039 -1.3412 -0.8058 -0.5954
15403TIP3   OH267623   2.111   2.521   2.189 -0.1041 -0.5785 -0.2887
15403TIP3    H167624   2.039   2.476   2.231 -0.7865  0.8688  0.1088
15403TIP3    H267625   2.145   2.458   2.125  0.2082 -2.3570  1.5773
15404TIP3   OH267626   3.847   6.865   4.439 -0.0955  0.0076 -0.3258
15404TIP3    H167627   3.926   6.861   4.493  0.0669 -1.4004 -0.6358
15404TIP3    H267628   3.774   6.860   4.502  0.0931 -1.7737 -0.2168
15405TIP3   OH267629   2.780   3.929   4.661 -0.3833  0.4332 -0.3223
15405TIP3    H167630   2.772   3.946   4.755 -3.6212  3.2346 -1.0084
15405TIP3    H267631   2.716   3.859   4.644 -1.1391  1.2064 -0.7125
15406TIP3   OH267632   2.262   1.589   1.558 -0.3065 -0.1488 -0.0382
15406TIP3    H167633   2.187   1.629   1.515 -0.7317  0.4173  1.2080
15406TIP3    H267634   2.326   1.577   1.487 -1.0684  0.5521 -0.8659
15407TIP3   OH267635   6.548   4.190   5.598 -0.4415 -0.0813 -0.2646
15407TIP3    H167636   6.519   4.176   5.688 -2.0818 -0.8638 -0.8909
15407TIP3    H267637   6.638   4.157   5.596 -0.2086  0.4325  1.1997
15408TIP3   OH267638   0.249   2.465   3.172 -0.4725  0.3215 -0.5602
15408TIP3    H167639   0.206   2.385   3.202 -0.5789  0.9627  1.0000
15408TIP3    H267640   0.189   2.502   3.108 -1.1575 -0.0183 -0.1156
15409TIP3   OH267641   3.554   6.266  13.447 -0.1201  0.0991 -0.1549
15409TIP3    H167642   3.554   6.210  13.525  0.7312 -2.0595 -1.6467
15409TIP3    H267643   3.645   6.295  13.439 -0.0731 -0.2137 -0.7142
15410TIP3   OH267644   0.956   4.348   4.992  0.0868 -0.6602 -0.3318
15410TIP3    H167645   0.877   4.333   5.044 -0.5016 -1.9371 -1.5701
15410TIP3    H267646   0.966   4.443   4.989 -1.6664 -0.4783 -0.5790
15411TIP3   OH267647   3.735   1.909  13.513 -0.2332  0.0346 -0.1602
15411TIP3    H167648   3.824   1.921  13.481  0.8228 -0.7982  2.3237
15411TIP3    H267649   3.694   1.849  13.451  1.5737 -1.1482 -0.2466
15412TIP3   OH267650   2.563   5.442   6.062 -0.0129 -0.6140 -0.1411
15412TIP3    H167651   2.614   5.488   5.995  0.4413 -1.4459 -0.3723
15412TIP3    H267652   2.475   5.479   6.055 -0.3614 -1.7803 -2.2297
15413TIP3   OH267653   4.492   3.829  13.900  0.6775 -0.2818 -0.9397
15413TIP3    H167654   4.566   3.888  13.912  1.5446 -1.0876 -2.1808
15413TIP3    H267655   4.446   3.831  13.984  2.4915 -0.2993  0.0852
15414TIP3   OH267656   3.501   4.994   4.442  0.3521 -0.3328 -0.0113
15414TIP3    H167657   3.503   4.960   4.352 -0.0190 -0.6335  0.0949
15414TIP3    H267658   3.529   5.086   4.433  1.8013 -0.7743 -0.2415
15415TIP3   OH267659   3.382   6.599  15.766 -0.5112 -0.1765  0.2320
15415TIP3    H167660   3.290   6.590  15.743 -0.5688 -0.2945  0.5135
15415TIP3    H267661   3.393   6.692  15.787 -1.0758 -0.5811  2.4352
15416TIP3   OH267662   4.329   2.424   4.336 -0.2219 -0.0042 -0.1982
15416TIP3    H167663   4.387   2.500   4.329  3.7421 -2.9041 -0.7352
15416TIP3    H267664   4.285   2.418   4.251 -0.1794  1.3621 -0.3166
15417TIP3   OH267665   6.936   3.587   5.341 -0.4400 -0.5431  0.9144
15417TIP3    H167666   7.016   3.620   5.382 -0.1570  0.3202 -0.3123
15417TIP3    H267667   6.953   3.594   5.247 -2.0023 -0.2443  0.6517
15418TIP3   OH267668   3.438   0.719   2.739 -0.4152  0.0292 -0.1173
15418TIP3    H167669   3.533   0.735   2.735 -0.0775 -0.9799  2.8442
15418TIP3    H267670   3.409   0.768   2.816 -2.3697  0.4449 -1.0937
15419TIP3   OH267671   2.562   6.199  14.829  0.7208 -0.4649 -0.0246
15419TIP3    H167672   2.575   6.104  14.826 -1.2651 -0.8023  0.8468
15419TIP3    H267673   2.472   6.209  14.861  1.7979  1.7569  2.4222
15420TIP3   OH267674   3.429   7.117   2.372  0.5258 -0.1400  0.0348
15420TIP3    H167675   3.472   7.164   2.444  2.8679 -1.0779 -0.7055
15420TIP3    H267676   3.398   7.035   2.412  4.3025 -1.9559 -0.5260
15421TIP3   OH267677   7.195   5.020   0.055 -0.2879 -0.3944  0.4945
15421TIP3    H167678   7.207   5.064   0.139  1.2809  1.2605 -0.5740
15421TIP3    H267679   7.219   5.086  -0.011 -2.1108 -1.4492 -1.2793
15422TIP3   OH267680   2.455   4.421   1.789 -0.0215  0.0509  0.3616
15422TIP3    H167681   2.400   4.490   1.827  0.8755  0.3205  1.1941
15422TIP3    H267682   2.465   4.446   1.697  0.6765  1.3056  0.7623
15423TIP3   OH267683   3.271   4.144   4.191  0.5357  0.2713  0.1711
15423TIP3    H167684   3.267   4.066   4.247  1.2261 -0.1025 -0.2930
15423TIP3    H267685   3.182   4.178   4.191 -0.3975 -2.0206 -1.7528
15424TIP3   OH267686   1.116   2.159   2.299  0.1534 -0.7530 -0.0419
15424TIP3    H167687   1.161   2.111   2.229  0.2409 -1.4789  0.5063
15424TIP3    H267688   1.166   2.139   2.378 -0.6272 -0.8645  0.4278
15425TIP3   OH267689   4.139   6.190   1.935  0.0278  0.1772 -0.4279
15425TIP3    H167690   4.142   6.094   1.942  0.2542  0.1435 -0.9497
15425TIP3    H267691   4.131   6.206   1.841 -0.8784  0.6542 -0.2759
15426TIP3   OH267692   5.469   5.593   3.410 -0.4569  0.1495  0.3095
15426TIP3    H167693   5.461   5.673   3.461 -0.6814  0.6052 -0.4369
15426TIP3    H267694   5.380   5.575   3.379 -0.3014 -0.0676 -0.0118
15427TIP3   OH267695   2.353   4.422   3.425 -0.1423  0.5531 -0.0140
15427TIP3    H167696   2.312   4.493   3.475  1.2071  2.6063 -1.7402
15427TIP3    H267697   2.362   4.350   3.488 -2.6932  1.4513  1.4330
15428TIP3   OH267698   6.858   4.912   5.561  0.0172 -0.2075 -0.1811
15428TIP3    H167699   6.797   4.977   5.595 -0.7708 -0.7349 -0.5726
15428TIP3    H267700   6.916   4.893   5.634 -0.8004 -0.3139  0.4381
15429TIP3   OH267701   1.326   4.424   4.041  0.6734  0.2502 -0.3120
15429TIP3    H167702   1.268   4.347   4.040  2.2083 -0.9282 -2.1107
15429TIP3    H267703   1.351   4.433   4.133 -3.6859  1.8706  0.8516
15430TIP3   OH267704   2.261   4.039   4.625  0.1983 -0.3534 -0.1720
15430TIP3    H167705   2.246   3.955   4.668  2.4795 -0.4055  0.5645
15430TIP3    H267706   2.279   4.017   4.534 -0.2186 -0.5674 -0.2050
15431TIP3   OH267707   3.345   4.409   2.370 -0.0191  0.2864 -0.8435
15431TIP3    H167708   3.424   4.402   2.424 -1.5536  0.6334  1.5223
15431TIP3    H267709   3.352   4.495   2.329  0.7081  0.4289 -0.4448
15432TIP3   OH267710   2.883   2.672   4.240  0.3666 -0.3654 -0.3086
15432TIP3    H167711   2.934   2.612   4.294 -0.5797 -0.4780  0.4699
15432TIP3    H267712   2.915   2.759   4.265  0.7784 -0.4741 -0.4497
15433TIP3   OH267713   1.729   1.912   3.847 -0.2014  0.1717 -0.2077
15433TIP3    H167714   1.682   1.894   3.928  0.2774 -0.2854 -0.0274
15433TIP3    H267715   1.766   1.827   3.822 -0.3906  0.2970 -0.9270
15434TIP3   OH267716   4.649   5.300   4.226 -0.3502  0.2217 -0.4051
15434TIP3    H167717   4.629   5.373   4.283  0.6796 -0.0758  0.3628
15434TIP3    H267718   4.602   5.226   4.263  0.2412  0.0500  0.0144
15435TIP3   OH267719   1.745   3.462   2.653  0.0664 -0.5872 -0.3471
15435TIP3    H167720   1.719   3.469   2.745  1.6579 -1.5343  0.1999
15435TIP3    H267721   1.726   3.371   2.630 -0.1724 -0.3986 -0.9045
15436TIP3   OH267722   2.926   6.565  13.745 -0.4993 -0.4591  0.0218
15436TIP3    H167723   2.983   6.521  13.681 -1.3832 -0.9760 -0.4198
15436TIP3    H267724   2.932   6.658  13.722  0.2668 -0.4975  0.0592
15437TIP3   OH267725   2.472   6.895   2.767 -0.1816 -0.3528  0.2271
15437TIP3    H167726   2.447   6.802   2.761 -1.1818 -0.1531  1.0783
15437TIP3    H267727   2.402   6.935   2.818  1.2885  0.4788  1.6548
15438TIP3   OH267728   1.761   5.085   2.308  0.0416 -0.2520  0.3231
15438TIP3    H167729   1.674   5.047   2.300 -1.8099  3.5090  1.1878
15438TIP3    H267730   1.806   5.060   2.228 -0.7332 -4.7681  1.1695
15439TIP3   OH267731   6.295   3.594   3.592 -0.2621 -0.0258 -0.2885
15439TIP3    H167732   6.241   3.536   3.538 -0.5625 -1.1866  1.2417
15439TIP3    H267733   6.383   3.583   3.557  0.1134 -3.2865  1.5075
15440TIP3   OH267734   3.491   3.276   3.870  0.4309 -0.0551  0.1764
15440TIP3    H167735   3.535   3.312   3.793  0.6987  0.5588  0.6123
15440TIP3    H267736   3.463   3.353   3.919  0.3869 -0.4498  0.7669
15441TIP3   OH267737   5.899   4.721   1.272 -0.0755  0.3508  0.2542
15441TIP3    H167738   5.816   4.683   1.243  0.2389 -1.1654  1.2770
15441TIP3    H267739   5.874   4.803   1.314 -1.1048 -0.2804  0.9081
15442TIP3   OH267740   0.119   4.752   2.129  0.3600  0.4647  0.3582
15442TIP3    H167741   0.151   4.739   2.219  0.9421  0.4994  0.1613
15442TIP3    H267742   0.124   4.665   2.090 -0.1213  0.4055  0.4321
15443TIP3   OH267743   3.051   5.664   4.546  0.0720 -0.2631  0.4273
15443TIP3    H167744   3.064   5.579   4.505  1.3156  0.4475 -0.7007
15443TIP3    H267745   3.005   5.716   4.480  0.7403  0.4156  0.4788
15444TIP3   OH267746   4.582   6.437   2.453  0.3615 -0.0432  0.0960
15444TIP3    H167747   4.491   6.412   2.468  0.1679 -0.2398 -1.3071
15444TIP3    H267748   4.630   6.355   2.448  0.3564 -0.0089 -0.6621
15445TIP3   OH267749   4.545   6.335   4.401 -0.0804  0.3628  0.2509
15445TIP3    H167750   4.486   6.278   4.449 -2.4800  2.9010  0.4696
15445TIP3    H267751   4.586   6.279   4.336 -3.4557 -1.3205 -0.5095
15446TIP3   OH267752   4.909   2.327   1.941 -0.4243  0.2947 -0.3833
15446TIP3    H167753   4.956   2.256   1.897  0.8312  0.1418  1.1213
15446TIP3    H267754   4.821   2.325   1.905  0.1645 -0.7443 -1.7967
15447TIP3   OH267755   6.443   2.790   1.920  0.1261  0.1422 -0.1067
15447TIP3    H167756   6.359   2.815   1.959 -0.4567 -0.0137 -1.2548
15447TIP3    H267757   6.419   2.745   1.839  1.2886 -0.8233  0.0824
15448TIP3   OH267758   3.831   0.993   0.865  0.9541 -0.1439  0.3166
15448TIP3    H167759   3.819   1.084   0.838 -3.4066  0.1076  2.6218
15448TIP3    H267760   3.820   0.942   0.785 -0.2221  1.1842 -0.3900
15449TIP3   OH267761   0.037   5.135   5.031 -0.3153  0.1978 -0.0034
15449TIP3    H167762   0.089   5.091   5.098  1.5876  1.0502 -0.8747
15449TIP3    H267763   0.080   5.219   5.019 -2.0528  1.0168 -0.6067
15450TIP3   OH267764   2.209   3.671   2.267 -1.1216  0.4552  0.0867
15450TIP3    H167765   2.263   3.596   2.292  1.0351  1.4940 -1.2724
15450TIP3    H267766   2.175   3.705   2.350 -0.5335 -0.8646  0.8808
15451TIP3   OH267767   3.131   4.943   3.222 -0.2379 -0.2436  0.2359
15451TIP3    H167768   3.173   4.874   3.273  0.2049  0.1897  0.4582
15451TIP3    H267769   3.196   4.968   3.156 -1.4949 -2.1234 -1.7945
15452TIP3   OH267770   2.189   6.890   3.694 -0.5453  0.0276  0.4460
15452TIP3    H167771   2.101   6.928   3.702 -0.1389  0.8148  1.3737
15452TIP3    H267772   2.175   6.796   3.697 -1.3872  0.1377  0.2378
15453TIP3   OH267773   2.161   0.550   1.265  0.1938 -0.1413 -0.0012
15453TIP3    H167774   2.093   0.543   1.198  0.7119 -0.8439 -0.4713
15453TIP3    H267775   2.209   0.630   1.242  0.7018 -0.6666 -0.7969
15454TIP3   OH267776   1.935   4.991   3.594 -0.4447 -0.5146 -0.3210
15454TIP3    H167777   1.864   4.968   3.534 -0.8570 -0.7854  0.2622
15454TIP3    H267778   1.936   4.919   3.658 -0.2767 -0.0242  0.2308
15455TIP3   OH267779   5.223   5.250   5.568  0.6114  0.0637 -0.0367
15455TIP3    H167780   5.159   5.315   5.537  1.0389 -0.2900 -1.7404
15455TIP3    H267781   5.267   5.220   5.488  1.5046 -1.1818  0.9000
15456TIP3   OH267782   5.659   4.171   3.523  0.5537 -0.3056 -0.2810
15456TIP3    H167783   5.752   4.156   3.540  0.9339  1.6613 -0.5870
15456TIP3    H267784   5.624   4.204   3.606  0.8689  2.2590 -1.1378
15457TIP3   OH267785   5.011   3.388   4.472 -0.7280 -0.4955  0.4828
15457TIP3    H167786   5.015   3.469   4.522  0.4666 -0.4165  0.2747
15457TIP3    H267787   4.921   3.357   4.484 -1.1783  0.8236  0.6010
15458TIP3   OH267788   5.939   6.887   0.867 -0.6385  0.2017 -0.3520
15458TIP3    H167789   6.020   6.938   0.862  0.1523 -0.9322  0.5589
15458TIP3    H267790   5.908   6.881   0.777 -0.6282  2.0918 -0.5025
15459TIP3   OH267791   3.671   2.978   3.516 -0.3166  0.1321  0.0079
15459TIP3    H167792   3.659   2.987   3.610  0.1533 -0.5364  0.1396
15459TIP3    H267793   3.656   2.885   3.498 -2.6209  0.6607 -0.9170
15460TIP3   OH267794   2.460   3.067   4.154  0.5176 -0.3606 -0.1612
15460TIP3    H167795   2.432   3.090   4.243  0.5437 -0.1755 -0.2010
15460TIP3    H267796   2.511   3.143   4.125  0.6661 -0.5002 -0.2648
15461TIP3   OH267797   6.647   5.298   3.575  0.2973  0.0104 -0.1991
15461TIP3    H167798   6.602   5.355   3.637  0.0123 -0.4493  0.0202
15461TIP3    H267799   6.671   5.356   3.502  0.8202  0.6001  0.4299
15462TIP3   OH267800   4.572   3.075   4.083  0.3193  0.7693 -0.1760
15462TIP3    H167801   4.483   3.078   4.119  0.1362 -0.1515 -0.5321
15462TIP3    H267802   4.570   3.001   4.022  1.8571 -0.4662  1.2186
15463TIP3   OH267803   0.413   0.041   5.278  0.7380 -0.1870  0.1004
15463TIP3    H167804   0.318   0.036   5.289  0.7801  2.1665  2.0761
15463TIP3    H267805   0.438  -0.045   5.244 -2.1870 -0.5572 -1.3043
15464TIP3   OH267806   5.244   2.797   3.386 -0.3299 -0.2660 -0.4119
15464TIP3    H167807   5.185   2.859   3.344 -0.3113 -0.7158 -1.1105
15464TIP3    H267808   5.204   2.711   3.372 -1.1685 -0.2847  1.9220
15465TIP3   OH267809   2.795   5.789   2.069 -0.2913  0.1073  0.4724
15465TIP3    H167810   2.759   5.806   2.156  0.4801 -0.3123  0.8835
15465TIP3    H267811   2.769   5.699   2.050 -0.8167  0.3388  0.0845
15466TIP3   OH267812   5.627   4.186   5.046 -0.2849  0.2753  0.2224
15466TIP3    H167813   5.588   4.194   5.134 -2.0981 -1.7723 -0.3281
15466TIP3    H267814   5.667   4.098   5.046 -0.3121  0.2538 -0.9934
15467TIP3   OH267815   3.990   4.471   3.919 -0.0870  0.5378  0.4341
15467TIP3    H167816   4.070   4.457   3.867  0.2057 -0.3266  1.1055
15467TIP3    H267817   4.020   4.514   3.998 -0.1464 -0.6365  1.1078
15468TIP3   OH267818   3.085   3.510   3.038 -0.0112  0.2979 -0.1125
15468TIP3    H167819   2.991   3.494   3.051 -0.0173  0.0894 -0.4027
15468TIP3    H267820   3.115   3.544   3.123 -0.2132 -0.2696  0.1934
15469TIP3   OH267821   0.987   5.870   2.969  0.2974 -0.4833 -0.4427
15469TIP3    H167822   1.063   5.816   2.987  2.1807  1.3420 -2.5853
15469TIP3    H267823   0.932   5.817   2.911  0.9588 -1.0052 -0.5889
15470TIP3   OH267824   1.866   5.967   5.172 -0.0836 -0.0318  0.4812
15470TIP3    H167825   1.957   5.986   5.194 -0.1389 -0.3994  1.0243
15470TIP3    H267826   1.846   5.886   5.218 -0.3767 -0.5036 -0.4556
15471TIP3   OH267827   3.679   3.971   3.796 -1.2725  0.7929  0.4172
15471TIP3    H167828   3.622   3.998   3.868 -1.0325 -0.1893  0.9811
15471TIP3    H267829   3.695   4.052   3.747 -2.0403  1.3303  1.0323
15472TIP3   OH267830   0.082   2.026   4.456 -0.1180  0.7461 -0.1851
15472TIP3    H167831   0.018   2.067   4.399 -1.0796  0.0764  0.3960
15472TIP3    H267832   0.070   1.932   4.442  0.4981  0.6039  0.1839
15473TIP3   OH267833   3.662   4.792   3.299  0.3849 -0.0148 -0.3745
15473TIP3    H167834   3.636   4.839   3.379 -2.4873 -0.9331 -0.7183
15473TIP3    H267835   3.632   4.702   3.314  0.7715 -0.4333 -2.0545
15474TIP3   OH267836   4.055   0.386   4.401 -0.3394  0.2637  0.3886
15474TIP3    H167837   4.142   0.348   4.407 -0.7823 -0.8505 -0.1758
15474TIP3    H267838   4.070   0.477   4.376  0.5595 -0.4790 -1.8827
15475TIP3   OH267839   4.560   6.696   2.906  0.4315 -0.4114 -0.1717
15475TIP3    H167840   4.523   6.774   2.948  1.5426  0.9787 -1.6951
15475TIP3    H267841   4.496   6.627   2.924 -0.5812  0.8506  1.2030
15476TIP3   OH267842   2.629   5.836   5.590  0.3446  0.3403  0.4867
15476TIP3    H167843   2.708   5.802   5.632 -0.3238 -0.0669  1.4324
15476TIP3    H267844   2.557   5.807   5.646 -0.2790  3.0622  1.1765
15477TIP3   OH267845   0.535   6.063   3.441 -0.5078 -0.0147  0.0665
15477TIP3    H167846   0.487   6.140   3.472 -1.2039 -0.9779  1.4095
15477TIP3    H267847   0.473   6.020   3.382 -0.1398  0.4030 -0.6370
15478TIP3   OH267848   0.558   0.367   2.795 -0.1670  0.1597  0.0045
15478TIP3    H167849   0.642   0.411   2.785  0.2737 -0.8943 -1.1088
15478TIP3    H267850   0.493   0.434   2.777  0.4498  0.8278  0.2641
15479TIP3   OH267851   1.823   4.744   1.760  0.2587 -0.2961 -0.2801
15479TIP3    H167852   1.742   4.789   1.783  1.6647  2.1718  0.0857
15479TIP3    H267853   1.803   4.698   1.679 -1.1562  1.3032 -0.8692
15480TIP3   OH267854   4.525   2.592   4.271  0.6184  0.1569  0.7838
15480TIP3    H167855   4.493   2.682   4.260  1.4699  0.6062  1.9054
15480TIP3    H267856   4.598   2.600   4.332  1.7305 -1.0915 -0.3552
15481TIP3   OH267857   0.442   2.743   4.278  0.4488 -0.1456 -0.2151
15481TIP3    H167858   0.453   2.834   4.307  0.2403 -0.2414  0.1540
15481TIP3    H267859   0.515   2.729   4.218  0.9063  0.0342  0.2945
15482TIP3   OH267860   6.491   5.082   3.583  0.0208 -0.5575  0.2159
15482TIP3    H167861   6.405   5.104   3.548  1.0445 -0.5371 -2.4139
15482TIP3    H267862   6.534   5.167   3.597 -0.4009 -0.5629  1.6404
15483TIP3   OH267863   3.319   3.946   1.279 -0.3966 -0.2479 -0.0671
15483TIP3    H167864   3.291   3.977   1.365  2.1203  0.8047  0.4173
15483TIP3    H267865   3.395   3.891   1.297 -0.8518 -1.3829 -1.5007
15484TIP3   OH267866   2.266   1.574   0.827  0.5754 -0.1594  0.1122
15484TIP3    H167867   2.272   1.482   0.853  1.1931 -0.5421 -1.3472
15484TIP3    H267868   2.351   1.611   0.852  0.7696 -0.2704 -0.3839
15485TIP3   OH267869   0.845   2.361   1.300 -0.0227  0.5647  0.0160
15485TIP3    H167870   0.809   2.305   1.231 -0.3446  0.4919  0.2405
15485TIP3    H267871   0.940   2.355   1.289 -0.0691  0.4048 -0.3029
15486TIP3   OH267872   2.412   5.858   1.955  1.1201  0.0698 -0.1844
15486TIP3    H167873   2.459   5.941   1.961 -0.3521  0.9644 -0.7840
15486TIP3    H267874   2.327   5.881   1.919  1.0181 -1.8323 -1.2343
15487TIP3   OH267875   3.270   0.885   2.245 -0.8777  0.0512 -0.0325
15487TIP3    H167876   3.336   0.816   2.252  0.0368  1.0940  1.8630
15487TIP3    H267877   3.278   0.915   2.154  0.0282 -1.0248 -0.3340
15488TIP3   OH267878   2.629   0.660   3.339  0.1353 -0.5141  0.0790
15488TIP3    H167879   2.578   0.618   3.270  1.4723  0.2493 -1.4320
15488TIP3    H267880   2.713   0.681   3.296 -0.9957  5.0677  0.2591
15489TIP3   OH267881   3.991   4.634   2.833 -0.5265  0.4428 -0.4049
15489TIP3    H167882   4.013   4.725   2.853  0.7762  0.0446 -0.0206
15489TIP3    H267883   3.954   4.600   2.915  3.1140 -0.6525  0.8650
15490TIP3   OH267884   3.475   5.068  15.379 -0.1406  0.2168  0.1869
15490TIP3    H167885   3.444   5.156  15.403 -0.8036 -0.3615  1.5030
15490TIP3    H267886   3.411   5.036  15.315  0.6634  1.0836 -1.0647
15491TIP3   OH267887   1.915   6.580   2.819 -0.1917  0.3924  0.0569
15491TIP3    H167888   1.846   6.602   2.757  2.1544  1.4648 -2.2363
15491TIP3    H267889   1.953   6.500   2.784  1.2117  1.0586  0.0610
15492TIP3   OH267890   2.334   5.671   2.696 -0.3009 -0.2271 -0.1354
15492TIP3    H167891   2.305   5.758   2.726  0.0927 -0.6402  1.5133
15492TIP3    H267892   2.313   5.669   2.603  0.9939  2.1786 -0.5052
15493TIP3   OH267893   1.995   3.056   2.444 -0.2728 -0.1676  0.0402
15493TIP3    H167894   1.974   2.974   2.398  0.2245 -0.1814 -0.1654
15493TIP3    H267895   2.059   3.099   2.388 -0.8532  0.5736 -0.0647
15494TIP3   OH267896   3.757   1.299   5.033 -0.1108 -0.2303 -0.1477
15494TIP3    H167897   3.829   1.362   5.033 -0.0016 -0.3436 -1.6727
15494TIP3    H267898   3.679   1.352   5.023 -0.0327 -0.3232 -1.2486
15495TIP3   OH267899   1.747   3.394   1.220  0.7670  0.3256  0.1407
15495TIP3    H167900   1.666   3.379   1.270  1.5067  0.1462  1.3063
15495TIP3    H267901   1.725   3.467   1.161  0.4886  1.9603  2.1849
15496TIP3   OH267902   1.219   1.730   4.743  0.2093 -0.8962 -0.1108
15496TIP3    H167903   1.169   1.803   4.781  0.5344 -1.2248  0.9813
15496TIP3    H267904   1.289   1.715   4.806 -0.2331 -2.5792 -0.0068
15497TIP3   OH267905   2.301   0.006   0.331  0.2261 -0.6702  0.3510
15497TIP3    H167906   2.328  -0.019   0.419 -0.2265  0.0682  0.7010
15497TIP3    H267907   2.222  -0.044   0.315  1.8996 -3.0576 -0.7852
15498TIP3   OH267908   3.518   5.867   2.983 -0.5647 -0.0087 -0.2183
15498TIP3    H167909   3.604   5.885   3.022  0.5789 -2.6414 -1.3598
15498TIP3    H267910   3.530   5.886   2.890 -0.6296 -2.0766 -0.6862
15499TIP3   OH267911   5.468   6.053   1.301  0.3375  0.1727  0.5353
15499TIP3    H167912   5.524   5.977   1.286 -0.2541 -0.4761  1.5691
15499TIP3    H267913   5.483   6.109   1.224  3.0061  0.3980  1.1567
15500TIP3   OH267914   6.249   4.407   3.669  0.0721 -0.1753 -0.4861
15500TIP3    H167915   6.218   4.437   3.755  0.1521 -0.6698 -0.2863
15500TIP3    H267916   6.334   4.367   3.688  0.0255 -0.4081 -0.7793
15501TIP3   OH267917   4.792   5.415   1.449 -0.2948  0.3651 -0.2847
15501TIP3    H167918   4.722   5.389   1.391 -0.3030 -0.9926  0.3017
15501TIP3    H267919   4.862   5.446   1.391  0.0537 -1.8391 -1.0787
15502TIP3   OH267920   2.985   5.802   1.491 -0.4195 -0.0001 -0.1268
15502TIP3    H167921   2.967   5.890   1.524 -0.3439 -0.4031  1.0050
15502TIP3    H267922   2.928   5.792   1.415 -1.3713  0.5520  0.5168
15503TIP3   OH267923   4.453   5.130   2.477  0.2349  0.5830 -0.3596
15503TIP3    H167924   4.475   5.092   2.392  2.3551  1.3833 -0.2015
15503TIP3    H267925   4.534   5.121   2.528 -0.5739  1.4314  1.0796
15504TIP3   OH267926   3.262   4.955   3.618  0.7128  0.1473  0.2663
15504TIP3    H167927   3.208   4.887   3.659  1.2458 -0.9112 -0.7714
15504TIP3    H267928   3.243   5.034   3.669 -0.7580 -0.5176  0.7869
15505TIP3   OH267929   1.692   0.092   2.826  0.3016 -0.1294  0.1911
15505TIP3    H167930   1.726   0.103   2.738 -1.7813 -0.5229 -0.6989
15505TIP3    H267931   1.606   0.052   2.814  0.2045 -0.6925  2.4286
15506TIP3   OH267932   3.929   0.114   4.966 -0.1260 -0.1089 -0.7156
15506TIP3    H167933   3.893   0.087   4.882 -1.2790  0.1229 -0.3103
15506TIP3    H267934   4.003   0.055   4.981  0.2208 -0.0051 -1.9807
15507TIP3   OH267935   6.654   0.523   3.083 -0.4464  0.3459 -0.1616
15507TIP3    H167936   6.686   0.434   3.098 -1.1343  0.2003  0.4751
15507TIP3    H267937   6.640   0.559   3.170 -0.0102  1.1436 -0.4123
15508TIP3   OH267938   7.260   6.578   3.112 -0.4244  0.1984  0.4373
15508TIP3    H167939   7.234   6.542   3.027  2.5237 -0.6324 -0.1497
15508TIP3    H267940   7.189   6.553   3.171 -2.0337 -0.0806 -1.5526
15509TIP3   OH267941   2.969   2.428   2.745  0.2270  0.2057  0.0905
15509TIP3    H167942   3.057   2.405   2.715  0.7769 -1.1115  2.5865
15509TIP3    H267943   2.911   2.389   2.679  1.4387 -1.1451 -0.2048
15510TIP3   OH267944   1.849   6.450   3.929  0.0067 -0.0833  0.3068
15510TIP3    H167945   1.871   6.381   3.867 -0.2845 -2.5720  2.8841
15510TIP3    H267946   1.857   6.531   3.879 -2.2490 -2.1204 -3.5288
15511TIP3   OH267947   3.565   3.510   4.908  0.7002 -0.2760 -0.7004
15511TIP3    H167948   3.654   3.539   4.929 -0.1857  1.4333  0.9683
15511TIP3    H267949   3.526   3.585   4.863  0.1333 -1.0593 -1.5306
15512TIP3   OH267950   3.174   3.857   5.234 -0.5652  0.0984  0.0494
15512TIP3    H167951   3.125   3.785   5.273  0.6323 -0.4219  0.5966
15512TIP3    H267952   3.107   3.923   5.215 -1.6990 -1.2513 -0.6974
15513TIP3   OH267953   0.168   4.060   4.699  0.4395  0.8220 -0.6369
15513TIP3    H167954   0.212   3.975   4.713  2.2575  1.6552 -1.1261
15513TIP3    H267955   0.090   4.056   4.754 -0.0570 -1.5949 -1.4561
15514TIP3   OH267956   4.634   5.813   2.576  0.0089 -0.5620 -0.1361
15514TIP3    H167957   4.546   5.815   2.536 -0.9603  0.5541  1.9914
15514TIP3    H267958   4.674   5.734   2.540 -3.4110 -3.4180  2.0403
15515TIP3   OH267959   3.534   5.445   1.884 -0.0781  0.6461 -0.4922
15515TIP3    H167960   3.555   5.531   1.922 -0.4019 -0.3982  2.1490
15515TIP3    H267961   3.439   5.444   1.877 -0.1688 -0.0128  0.7685
15516TIP3   OH267962   2.235   6.471   3.073 -0.1452  0.1199  0.3968
15516TIP3    H167963   2.266   6.477   3.164  0.9017  0.2212  0.0388
15516TIP3    H267964   2.168   6.403   3.076  0.3871 -0.3892  1.1191
15517TIP3   OH267965   6.579   6.264   3.968 -0.5971 -0.3444 -0.2555
15517TIP3    H167966   6.571   6.356   3.991  1.2972 -0.0770 -0.5842
15517TIP3    H267967   6.660   6.258   3.918 -2.3177 -1.6826 -2.9779
15518TIP3   OH267968   0.052   3.854   3.801  0.1833  0.1064 -0.7244
15518TIP3    H167969   0.084   3.787   3.862 -1.1693 -0.0528 -0.1836
15518TIP3    H267970   0.064   3.814   3.714 -1.1525 -1.1011 -0.3809
15519TIP3   OH267971   5.991   0.365   3.163  0.1450  0.0846 -0.2279
15519TIP3    H167972   6.012   0.427   3.233 -1.5110  0.3469  0.0486
15519TIP3    H267973   5.927   0.411   3.109 -2.3648 -1.9373  0.9049
15520TIP3   OH267974   1.611   0.911   3.844 -0.0919  0.0686  0.2176
15520TIP3    H167975   1.614   0.865   3.760  1.7789  1.0320 -0.2871
15520TIP3    H267976   1.667   0.858   3.901  0.7540  0.8266  0.0963
15521TIP3   OH267977   6.561   5.835   3.017 -0.2509  0.5001  0.4339
15521TIP3    H167978   6.633   5.829   2.954 -1.1702  2.9998 -0.9122
15521TIP3    H267979   6.569   5.922   3.055 -1.2521 -0.0315  1.9116
15522TIP3   OH267980   1.814   5.461   5.585  0.4894 -1.0939 -0.2779
15522TIP3    H167981   1.829   5.372   5.555 -2.1962 -1.7041  0.0667
15522TIP3    H267982   1.786   5.508   5.507 -2.0857 -1.5887  0.2923
15523TIP3   OH267983   5.256   0.371   1.366 -0.1595 -0.2073 -0.4265
15523TIP3    H167984   5.227   0.370   1.457 -1.3285  1.2608 -0.7604
15523TIP3    H267985   5.267   0.279   1.343 -0.4701 -0.6109  0.9962
15524TIP3   OH267986   6.447   3.609   2.982  0.3722  0.0490  0.0383
15524TIP3    H167987   6.416   3.601   2.892 -0.4373 -0.8510  0.3907
15524TIP3    H267988   6.373   3.647   3.030  0.1265 -1.2443  0.6987
15525TIP3   OH267989   7.281   4.019   5.860 -0.2704 -0.2123  0.7158
15525TIP3    H167990   7.279   3.974   5.944  1.4299  0.3804  1.0833
15525TIP3    H267991   7.340   4.094   5.873  2.5162 -1.8245 -1.7953
15526TIP3   OH267992   7.301   4.330   3.247  0.0631  0.4275 -0.1237
15526TIP3    H167993   7.307   4.356   3.155 -1.9842  0.2374 -0.3345
15526TIP3    H267994   7.377   4.275   3.261  1.7484  2.4755 -1.0231
15527TIP3   OH267995   1.867   3.477   0.029  0.0273 -0.8280  0.2711
15527TIP3    H167996   1.857   3.560   0.076 -2.6231 -0.9941  0.0885
15527TIP3    H267997   1.804   3.482  -0.042  0.3786 -2.6966 -0.2006
15528TIP3   OH267998   3.901   5.235   2.211  0.0685  0.3948  0.7346
15528TIP3    H167999   3.851   5.176   2.267  1.5003 -0.4140  1.1915
15528TIP3    H268000   3.905   5.190   2.127 -0.1592  0.5609  0.6348
15529TIP3   OH268001   5.473   3.893   5.332 -0.2351 -0.0795  0.0091
15529TIP3    H168002   5.567   3.874   5.330  0.1798  1.7487  0.9937
15529TIP3    H268003   5.468   3.988   5.345 -2.1967 -0.4276  2.1807
15530TIP3   OH268004   1.282   4.762   1.726 -0.1218 -0.4411  0.2646
15530TIP3    H168005   1.334   4.683   1.713  0.8930  0.2554  0.0330
15530TIP3    H268006   1.316   4.800   1.807  0.7878  0.8115 -0.6703
15531TIP3   OH268007   4.311   4.705   3.731 -0.0134 -0.4324 -0.3243
15531TIP3    H168008   4.264   4.758   3.666 -0.5625  0.5679  0.8770
15531TIP3    H268009   4.267   4.620   3.730 -0.8264 -0.0122 -0.3408
15532TIP3   OH268010   4.475   1.390   4.837  0.5861  0.7599 -0.2069
15532TIP3    H168011   4.440   1.404   4.749  1.3740 -1.9700 -0.9982
15532TIP3    H268012   4.481   1.478   4.875  0.2415  1.9812 -2.8815
15533TIP3   OH268013   0.782   3.037   4.361  0.5843 -0.1705 -0.6006
15533TIP3    H168014   0.839   3.104   4.323 -0.1108  0.5674 -0.3622
15533TIP3    H268015   0.816   3.025   4.450  1.6580 -1.2501 -1.1551
15534TIP3   OH268016   2.183   5.087   2.584 -1.0827 -1.1500  0.1915
15534TIP3    H168017   2.098   5.130   2.585 -1.1565 -1.2663 -0.7342
15534TIP3    H268018   2.235   5.138   2.522  0.1196  0.0431  2.1174
15535TIP3   OH268019   0.198   0.963   3.576  0.3229  0.1075 -0.1327
15535TIP3    H168020   0.255   0.901   3.622  0.8360 -0.0311 -0.9367
15535TIP3    H268021   0.113   0.954   3.619  0.7927 -0.0218  0.7787
15536TIP3   OH268022   6.911   5.200   4.828 -0.0856  0.2926 -0.0187
15536TIP3    H168023   6.837   5.227   4.881 -1.7355 -1.2226 -1.4877
15536TIP3    H268024   6.907   5.257   4.751 -0.2943 -0.4131 -0.5363
15537TIP3   OH268025   5.191   1.173   3.121  0.0820 -0.7131  0.5439
15537TIP3    H168026   5.285   1.163   3.134  0.4195 -0.1064 -1.4048
15537TIP3    H268027   5.164   1.234   3.190  2.0336  3.3419 -2.1236
15538TIP3   OH268028   4.954   5.979   3.231 -0.4965  0.2662  0.4714
15538TIP3    H168029   4.994   6.049   3.180 -1.9497  0.2257 -0.7242
15538TIP3    H268030   4.870   6.015   3.260 -0.3608 -0.2649  1.5600
15539TIP3   OH268031   4.454   6.208   1.473  0.5154  0.3606  0.1680
15539TIP3    H168032   4.359   6.208   1.460  0.4576  2.1618  0.4685
15539TIP3    H268033   4.467   6.173   1.561  0.0519  1.4136  0.6507
15540TIP3   OH268034   6.135   6.406   4.721  0.5273 -0.1620  0.5813
15540TIP3    H168035   6.111   6.465   4.793  1.1617 -0.5145  1.0819
15540TIP3    H268036   6.170   6.465   4.653 -0.4346  0.2100  0.3907
15541TIP3   OH268037   2.452   3.943   0.250  0.9959 -0.1651  0.5013
15541TIP3    H168038   2.489   3.858   0.275 -2.4673 -1.1691  2.5701
15541TIP3    H268039   2.400   3.925   0.172  3.5434  0.9518 -1.5299
15542TIP3   OH268040   5.801   4.402   3.403 -0.0835 -0.2767  0.2389
15542TIP3    H168041   5.760   4.316   3.419 -0.9120 -0.2999 -1.7580
15542TIP3    H268042   5.858   4.416   3.478  1.4740 -3.4316 -0.2614
15543TIP3   OH268043   4.507   2.009   3.931  0.3285 -0.3703 -0.4788
15543TIP3    H168044   4.597   1.974   3.933 -0.4678 -2.5091 -0.6029
15543TIP3    H268045   4.509   2.076   3.863  1.7696 -0.5531 -0.6443
15544TIP3   OH268046   0.815   5.393   2.831 -0.3031 -0.4075 -0.1525
15544TIP3    H168047   0.810   5.308   2.787  2.2164 -1.5241  1.6669
15544TIP3    H268048   0.870   5.446   2.774 -1.9824  0.0976 -1.3562
15545TIP3   OH268049   4.430   2.399   4.844 -0.0211  0.1274 -0.2754
15545TIP3    H168050   4.525   2.401   4.829  0.0662  0.1438  0.2402
15545TIP3    H268051   4.391   2.397   4.757  0.4950 -1.4638 -0.4820
15546TIP3   OH268052   7.261   0.166   3.368  1.0345 -0.2403  0.0456
15546TIP3    H168053   7.203   0.139   3.440  0.2643  1.4073  0.0615
15546TIP3    H268054   7.333   0.103   3.371  1.5674  0.4360  2.9505
15547TIP3   OH268055   3.645   6.989   5.133  0.1624  0.1189 -0.2758
15547TIP3    H168056   3.684   6.905   5.107  0.6315 -0.5943  2.5006
15547TIP3    H268057   3.706   7.023   5.199  0.3014  2.9792 -1.8039
15548TIP3   OH268058   1.717   5.384   0.232  0.0482  0.3954  0.2875
15548TIP3    H168059   1.627   5.416   0.226 -0.4341 -1.1759 -1.6763
15548TIP3    H268060   1.770   5.463   0.242 -1.5424  1.3295  1.7809
15549TIP3   OH268061   2.539   3.471   3.016 -0.6531  0.5517  0.0132
15549TIP3    H168062   2.575   3.536   3.076 -0.8046 -0.3506  1.1079
15549TIP3    H268063   2.492   3.410   3.073  0.2975 -1.0475 -0.8859
15550TIP3   OH268064   6.079   5.609   2.715 -0.4928  0.5302 -0.1075
15550TIP3    H168065   6.051   5.530   2.761  0.2973  0.3263  0.0166
15550TIP3    H268066   6.162   5.586   2.674  0.1336  1.5247  0.5597
15551TIP3   OH268067   6.248   3.364   1.380  0.1917 -0.1695 -0.7209
15551TIP3    H168068   6.197   3.381   1.301 -1.5888 -1.4421  0.0968
15551TIP3    H268069   6.317   3.430   1.379 -1.1058  1.2220 -2.2058
15552TIP3   OH268070   4.544   7.132   3.547  0.2625 -0.4971 -0.1545
15552TIP3    H168071   4.586   7.055   3.586 -0.3845 -1.1350 -0.7137
15552TIP3    H268072   4.451   7.113   3.550  0.0598  0.4762  0.1318
15553TIP3   OH268073   0.181   4.346   6.068 -0.6323 -0.1063 -0.1652
15553TIP3    H168074   0.266   4.310   6.095 -1.2004 -0.7410  0.7650
15553TIP3    H268075   0.182   4.436   6.101 -0.8525 -0.5211  0.9804
15554TIP3   OH268076   2.589   7.034   3.860  0.0548  0.2911 -0.7907
15554TIP3    H168077   2.663   6.984   3.826  0.4500  0.5585 -0.3388
15554TIP3    H268078   2.519   7.021   3.796 -0.1436 -1.5667 -0.2416
15555TIP3   OH268079   4.974   4.942   3.453 -0.0314  0.1430  0.2107
15555TIP3    H168080   4.884   4.962   3.477  0.2812  0.5605  1.0568
15555TIP3    H268081   4.995   5.006   3.385  0.3210  1.4720  1.5374
15556TIP3   OH268082   5.697   3.768   3.377  0.1957 -0.3856 -0.0304
15556TIP3    H168083   5.655   3.839   3.330 -0.9435 -0.1949  1.2562
15556TIP3    H268084   5.700   3.696   3.314 -0.4854  0.1539 -0.6866
15557TIP3   OH268085   6.200   0.813   0.225 -0.2607 -0.1477  0.0731
15557TIP3    H168086   6.181   0.881   0.290  0.6085  0.7158 -0.5586
15557TIP3    H268087   6.295   0.820   0.211 -0.1479 -1.5541  0.0685
15558TIP3   OH268088   4.010   6.974   3.997  0.0002 -0.1334  0.3512
15558TIP3    H168089   4.062   6.914   4.050  1.9654 -1.1907 -2.6514
15558TIP3    H268090   3.951   7.016   4.059  0.7684 -2.8399  3.0191
15559TIP3   OH268091   6.486   4.474   0.928 -0.0586  0.4671 -0.0184
15559TIP3    H168092   6.548   4.402   0.917 -1.3982 -0.8334  0.7958
15559TIP3    H268093   6.509   4.536   0.859 -0.1268 -1.6314 -1.9525
15560TIP3   OH268094   0.289   5.586  15.360 -0.4129 -0.0651  0.2359
15560TIP3    H168095   0.337   5.517  15.314 -1.1771 -2.4322  2.8421
15560TIP3    H268096   0.315   5.576  15.452 -3.5239  0.5882  1.2291
15561TIP3   OH268097   3.873   1.585   3.071 -0.0662  0.1010 -0.4248
15561TIP3    H168098   3.870   1.603   2.977 -3.1039 -0.0430 -0.4210
15561TIP3    H268099   3.861   1.490   3.078  0.3132  0.0872  0.1083
15562TIP3   OH268100   7.067   4.158   3.761 -0.0099  0.3173 -0.4593
15562TIP3    H168101   7.070   4.181   3.668  2.1584  0.5459 -0.3610
15562TIP3    H268102   7.092   4.238   3.806 -0.6857  0.0961  0.3181
15563TIP3   OH268103   5.283   4.897   3.346  0.3987 -0.2924  0.3772
15563TIP3    H168104   5.258   4.951   3.421  1.8120 -0.1169  0.7374
15563TIP3    H268105   5.325   4.958   3.286  1.2438 -0.8318  0.4122
15564TIP3   OH268106   6.459   4.210  15.520 -0.2628  0.3061 -0.2687
15564TIP3    H168107   6.456   4.136  15.581  1.0747 -0.4146 -1.0370
15564TIP3    H268108   6.454   4.170  15.434 -1.4584  1.2687 -0.6537
15565TIP3   OH268109   2.960   5.676  14.405  0.8430 -0.2296  0.2471
15565TIP3    H168110   2.916   5.741  14.350 -0.1117  0.8366  2.2125
15565TIP3    H268111   3.006   5.620  14.343 -0.0337  1.0484 -1.6251
15566TIP3   OH268112   5.711   7.210   2.796  0.1238 -0.2450 -0.7945
15566TIP3    H168113   5.787   7.156   2.774  1.6291  0.7679  1.6653
15566TIP3    H268114   5.644   7.147   2.823  1.5857 -1.0048  1.2314
15567TIP3   OH268115   4.054   4.506   1.689  0.2592 -0.4084  0.1229
15567TIP3    H168116   4.103   4.520   1.770 -1.7348  0.4227  1.2345
15567TIP3    H268117   4.058   4.589   1.643 -1.1800  0.0780  0.8449
15568TIP3   OH268118   2.785   3.339   3.183 -0.0543 -0.5630  0.0540
15568TIP3    H168119   2.699   3.372   3.156  0.0312 -0.8984 -0.6493
15568TIP3    H268120   2.789   3.357   3.277 -0.4590  0.4092 -0.1126
15569TIP3   OH268121   5.202   4.989   1.483  0.6497  0.1824  0.4356
15569TIP3    H168122   5.126   4.973   1.539  1.6697  0.2230  1.8600
15569TIP3    H268123   5.196   5.082   1.462 -0.1783 -0.0045 -0.2074
15570TIP3   OH268124   5.941   4.356   4.216  0.4668 -0.0114 -0.0797
15570TIP3    H168125   5.934   4.441   4.174  1.2056 -0.1270 -0.4521
15570TIP3    H268126   6.028   4.324   4.191  1.7897  0.8427  3.2043
15571TIP3   OH268127   1.033   4.960   1.651 -0.4658 -0.2381 -0.3997
15571TIP3    H168128   0.983   4.922   1.578 -0.8760 -0.7788  0.1580
15571TIP3    H268129   1.044   4.887   1.713 -1.6705  0.6779  0.9034
15572TIP3   OH268130   4.779   3.214   0.993  0.3493  0.9461  0.1112
15572TIP3    H168131   4.743   3.218   1.082  0.3722 -2.2936  0.3034
15572TIP3    H268132   4.859   3.163   1.001  0.8468  1.4237 -1.6254
15573TIP3   OH268133   4.042   5.002  15.614  0.3340 -0.1188  0.0598
15573TIP3    H168134   3.964   5.056  15.627  1.3371  1.7359 -1.4928
15573TIP3    H268135   4.099   5.023  15.688  0.5539  0.6613 -0.3279
15574TIP3   OH268136   4.974   4.530   1.627  0.5223  0.3870 -0.3157
15574TIP3    H168137   4.932   4.605   1.669 -0.4166 -1.6815  2.5645
15574TIP3    H268138   4.902   4.481   1.588  1.0944  0.7269 -1.8602
15575TIP3   OH268139   5.652   6.816   2.552  0.4996  0.4409  0.1940
15575TIP3    H168140   5.600   6.896   2.558 -0.1225  0.1969 -1.6021
15575TIP3    H268141   5.597   6.756   2.502  1.4016 -0.7537  0.6194
15576TIP3   OH268142   2.755   3.816   0.351 -0.3893  0.0673 -0.4641
15576TIP3    H168143   2.794   3.729   0.357  0.9859  0.7620  0.8438
15576TIP3    H268144   2.663   3.802   0.376 -0.1517 -0.9778 -0.1264
15577TIP3   OH268145   1.907   5.603   0.244 -0.0089  0.7494 -0.2128
15577TIP3    H168146   2.000   5.608   0.269  0.1278  1.9223 -0.9433
15577TIP3    H268147   1.877   5.694   0.245 -0.4501  0.6586 -2.6473
15578TIP3   OH268148   6.117   5.312   3.122 -0.2963 -0.1862  0.8475
15578TIP3    H168149   6.178   5.238   3.118 -0.9609 -0.7673  1.3484
15578TIP3    H268150   6.151   5.369   3.190  0.6292  0.3408 -0.0491
15579TIP3   OH268151   4.130   1.101   2.075  0.2444  0.1340 -0.4229
15579TIP3    H168152   4.088   1.111   1.990 -0.2603  2.3284  0.0516
15579TIP3    H268153   4.135   1.007   2.089 -3.6939 -0.2264 -0.9111
15580TIP3   OH268154   2.470   0.496  15.251 -0.7638 -0.0233 -0.0724
15580TIP3    H168155   2.413   0.434  15.296  0.4013 -0.7422  0.4170
15580TIP3    H268156   2.528   0.441  15.198  0.6481  0.6199  0.7994
15581TIP3   OH268157   4.400   2.797   2.665  0.8512  0.4903 -0.5982
15581TIP3    H168158   4.344   2.870   2.692  1.5880  1.4585 -1.6747
15581TIP3    H268159   4.369   2.774   2.577  0.2524 -0.8768 -0.0475
15582TIP3   OH268160   6.617   4.600   0.629 -0.2209 -0.1437  0.4779
15582TIP3    H168161   6.690   4.646   0.588 -0.7923  0.2210 -0.1266
15582TIP3    H268162   6.613   4.516   0.583 -1.0165  0.3616 -0.3868
15583TIP3   OH268163   1.761   6.499   4.218  0.3340 -0.1291 -0.0896
15583TIP3    H168164   1.743   6.489   4.124 -3.9195 -0.2236  0.6256
15583TIP3    H268165   1.792   6.589   4.227 -1.9421  0.8370 -1.3006
15584TIP3   OH268166   0.873   7.126   2.230  0.0029 -0.0025 -0.2148
15584TIP3    H168167   0.919   7.142   2.148  0.8387  0.4787  0.3420
15584TIP3    H268168   0.863   7.213   2.270 -0.5379 -0.2123  0.1221
15585TIP3   OH268169   1.023   7.173  15.902  0.0429  0.0500  0.2331
15585TIP3    H168170   1.099   7.230  15.902 -1.4942  2.1311  0.1512
15585TIP3    H268171   1.022   7.134  15.814  1.4712 -0.6248  0.5134
15586TIP3   OH268172   2.023   7.245   4.690 -0.0159 -0.0835 -0.1970
15586TIP3    H168173   1.988   7.305   4.755  1.3402 -0.3742  0.8242
15586TIP3    H268174   1.973   7.164   4.702  0.8836 -0.4556  1.1653
15587TIP3   OH268175   1.993   3.272   0.676 -0.0757 -0.5859  0.2188
15587TIP3    H168176   2.064   3.215   0.705  0.3775 -0.0369  0.1895
15587TIP3    H268177   2.036   3.345   0.633 -0.7103 -0.8675 -0.9154
15588TIP3   OH268178   3.933   7.146   3.603  0.2620 -0.0106  0.1701
15588TIP3    H168179   3.846   7.177   3.575  0.5586  0.8448  0.1746
15588TIP3    H268180   3.939   7.170   3.695 -0.2855 -1.8774  0.7091
15589TIP3   OH268181   3.689   6.986   2.573  0.0478  0.0876  0.1138
15589TIP3    H168182   3.599   6.961   2.552 -0.5007  1.8544  0.2376
15589TIP3    H268183   3.709   7.058   2.512  1.4298 -0.3877 -0.0163
15590TIP3   OH268184   0.966   6.101   3.120  0.7072  0.4138  0.0285
15590TIP3    H168185   1.011   6.087   3.204 -0.2283  0.2066  0.5040
15590TIP3    H268186   0.981   6.020   3.072  1.9018  0.8273 -0.3256
15591TIP3   OH268187   4.396   6.433   5.627  0.1920 -0.1833  0.0487
15591TIP3    H168188   4.470   6.392   5.673  0.6899 -2.5435 -2.7281
15591TIP3    H268189   4.437   6.480   5.555 -0.9044 -0.2294 -0.6035
15592TIP3   OH268190   0.445   2.685   3.075  0.2942 -0.2795  0.0335
15592TIP3    H168191   0.395   2.758   3.112 -1.3151 -0.8075 -1.0723
15592TIP3    H268192   0.384   2.611   3.074  0.7188 -0.6521 -2.3000
15593TIP3   OH268193   4.745   7.193   4.764 -0.0713 -0.2350  0.1728
15593TIP3    H168194   4.765   7.104   4.734  1.2221 -0.0675  0.5207
15593TIP3    H268195   4.651   7.191   4.782  0.2298 -2.0251  1.7791
15594TIP3   OH268196   0.540   4.824  15.364 -0.3105 -0.1448 -0.3744
15594TIP3    H168197   0.609   4.839  15.429  0.0824 -1.0470 -0.5773
15594TIP3    H268198   0.526   4.910  15.323  2.7361 -0.5460 -2.3821
15595TIP3   OH268199   0.607   5.499   2.269  0.4568 -0.6538 -0.3867
15595TIP3    H168200   0.523   5.546   2.274  2.3062  2.8584 -0.4825
15595TIP3    H268201   0.624   5.491   2.176  0.7699 -0.3259 -0.3578
15596TIP3   OH268202   5.125   4.445   5.387  0.4815 -0.0384 -0.2062
15596TIP3    H168203   5.132   4.400   5.303  2.8072 -1.2336  0.5946
15596TIP3    H268204   5.194   4.511   5.385  1.3052 -0.8515  1.2316
15597TIP3   OH268205   6.545   0.525   2.271  0.4234  0.5804  0.1914
15597TIP3    H168206   6.516   0.607   2.229  1.0382  0.3200 -0.7565
15597TIP3    H268207   6.640   0.535   2.278  0.4235  0.2291  0.7132
15598TIP3   OH268208   4.174   5.307   4.017  0.1639 -0.2426 -0.3077
15598TIP3    H168209   4.259   5.351   4.016 -0.4182  0.9968  2.0757
15598TIP3    H268210   4.183   5.240   4.086  0.2219 -2.2432 -2.2069
15599TIP3   OH268211   3.983   3.736   3.511  0.5743  0.6535 -0.0006
15599TIP3    H168212   3.998   3.760   3.420 -0.0139 -2.8353 -1.0812
15599TIP3    H268213   4.069   3.708   3.543  0.4915  0.5003  0.0907
15600TIP3   OH268214   5.889   6.204   4.372 -0.3963  0.1836  0.1332
15600TIP3    H168215   5.933   6.287   4.389  0.8423 -0.3868 -0.2323
15600TIP3    H268216   5.899   6.190   4.278 -1.3958  0.0650  0.0411
15601TIP3   OH268217   3.069   4.412   2.267  0.1766  0.2466 -0.1229
15601TIP3    H168218   3.029   4.484   2.317  0.4701  0.3931 -0.1020
15601TIP3    H268219   3.163   4.424   2.278  0.2271 -0.1138 -0.1584
15602TIP3   OH268220   7.069   4.080   4.579  0.0222  0.0882 -0.2269
15602TIP3    H168221   7.054   4.115   4.491 -0.3486 -1.1022 -0.6435
15602TIP3    H268222   7.134   4.010   4.568 -0.6259 -0.6155  0.3165
15603TIP3   OH268223   4.424   6.586   1.490  0.4702  0.4535 -0.4411
15603TIP3    H168224   4.473   6.538   1.423  0.9056  1.0557 -0.5579
15603TIP3    H268225   4.489   6.603   1.558  0.2920  0.7958 -0.3573
15604TIP3   OH268226   5.186   0.108   5.720  0.4855  0.0863  0.4390
15604TIP3    H168227   5.111   0.166   5.724  1.0273  0.8008  0.2323
15604TIP3    H268228   5.246   0.149   5.657  1.7926  0.4199  1.8644
15605TIP3   OH268229   6.077   1.187   5.616  0.3763 -0.0802  0.1698
15605TIP3    H168230   6.080   1.193   5.712  0.2720 -1.3080  0.2470
15605TIP3    H268231   5.987   1.209   5.593 -0.1626 -1.9156  0.5017
15606TIP3   OH268232   4.043   3.498   3.810  0.4481 -0.3986  0.3045
15606TIP3    H168233   4.114   3.555   3.780 -0.2844 -0.2882 -1.2284
15606TIP3    H268234   4.080   3.453   3.886  0.5615  3.2012  2.5155
15607TIP3   OH268235   5.515   6.348   2.894  0.1662 -0.3321  0.0114
15607TIP3    H168236   5.552   6.414   2.835 -0.0771 -0.8400 -0.7124
15607TIP3    H268237   5.513   6.391   2.980 -1.4366  1.1483 -0.7434
15608TIP3   OH268238   6.959   4.313   1.205 -0.8714 -0.5191  0.9585
15608TIP3    H168239   7.011   4.391   1.219 -0.9704 -0.2994  0.1438
15608TIP3    H268240   6.870   4.346   1.189 -0.6920 -0.7148 -0.5534
15609TIP3   OH268241   1.774   3.562   4.411  0.4822 -0.1957 -0.4333
15609TIP3    H168242   1.857   3.540   4.453 -0.1509 -0.9031  0.4548
15609TIP3    H268243   1.768   3.501   4.337  0.8583  0.0050 -0.6281
15610TIP3   OH268244   2.813   4.295   5.217 -0.1604 -0.1380 -0.3955
15610TIP3    H168245   2.763   4.373   5.243  0.1107 -0.1132  0.0719
15610TIP3    H268246   2.862   4.322   5.140  2.0214  1.0093  1.3403
15611TIP3   OH268247   4.242   0.429   4.037 -0.0316  0.2014  0.1715
15611TIP3    H168248   4.172   0.364   4.047  0.3342  0.0047  1.5563
15611TIP3    H268249   4.322   0.382   4.061  0.1458  1.3622  1.9368
15612TIP3   OH268250   0.653   4.644   3.076  0.2161  0.2808 -0.2766
15612TIP3    H168251   0.651   4.678   3.165  0.2963 -0.0175 -0.1586
15612TIP3    H268252   0.592   4.700   3.028  0.3527  0.5918 -0.0886
15613TIP3   OH268253   5.174   3.339   3.986 -0.0580 -0.2100 -0.0207
15613TIP3    H168254   5.126   3.343   4.069  1.0496  0.1490  0.6057
15613TIP3    H268255   5.149   3.420   3.941 -0.4136 -0.2508  0.1023
15614TIP3   OH268256   4.729   1.655   3.891 -0.6460 -0.0877 -0.4483
15614TIP3    H168257   4.762   1.745   3.891  2.8498 -1.2628 -1.2912
15614TIP3    H268258   4.684   1.645   3.974 -0.5587  2.2792 -0.0994
15615TIP3   OH268259   4.690   5.205   3.921  0.3402 -0.0609  0.8203
15615TIP3    H168260   4.673   5.247   4.006  0.8501 -0.9542  1.3734
15615TIP3    H268261   4.618   5.233   3.865  0.6064  1.4414  1.2226
15616TIP3   OH268262   0.714   4.978  15.616 -0.6596  0.4324 -0.3515
15616TIP3    H168263   0.788   4.965  15.557  0.2265  1.7192  0.4553
15616TIP3    H268264   0.706   4.895  15.663  0.5194  0.4172 -0.1711
15617TIP3   OH268265   7.030   3.921  15.278 -0.4938 -0.1834  0.4411
15617TIP3    H168266   7.117   3.907  15.241 -1.2430 -1.2413 -0.9810
15617TIP3    H268267   6.975   3.857  15.233 -1.4862 -1.4478  3.3066
15618TIP3   OH268268   1.745   4.230   1.139  0.4957  0.3808 -0.4804
15618TIP3    H168269   1.765   4.319   1.109 -3.6087  1.6840  0.2812
15618TIP3    H268270   1.789   4.222   1.223 -1.4570  2.8328  0.8367
15619TIP3   OH268271   2.926   5.823   0.499 -0.0236  0.2159 -0.3877
15619TIP3    H168272   2.884   5.842   0.583 -0.7387  0.0991 -0.7189
15619TIP3    H268273   2.968   5.738   0.512  0.6379  0.6098  0.1360
15620TIP3   OH268274   0.156   5.148   4.699  0.3959  0.1861  0.1743
15620TIP3    H168275   0.197   5.108   4.776  1.1292  0.2654 -0.1668
15620TIP3    H268276   0.206   5.228   4.685  0.5897 -0.0776 -0.6832
15621TIP3   OH268277   1.983   6.088   0.340  0.3515 -0.0549 -0.6580
15621TIP3    H168278   2.070   6.049   0.349  2.0521  3.2127 -1.9306
15621TIP3    H268279   1.972   6.142   0.419 -0.0001  0.4344 -1.0359
15622TIP3   OH268280   4.220   5.934   3.406 -0.5990 -0.0726 -0.0792
15622TIP3    H168281   4.251   5.950   3.495 -3.1225 -0.0311  0.8182
15622TIP3    H268282   4.231   5.840   3.393 -1.4606 -0.2989  0.7781
15623TIP3   OH268283   2.693   1.397   4.226  0.1060 -0.6202  0.3249
15623TIP3    H168284   2.741   1.368   4.148 -1.0553  1.7409 -1.3346
15623TIP3    H268285   2.637   1.322   4.249  0.5901 -1.4027 -1.0079
15624TIP3   OH268286   4.474   6.527   4.592  0.1208  0.1420  0.0512
15624TIP3    H168287   4.529   6.477   4.652 -0.8261 -0.8064  0.1477
15624TIP3    H268288   4.449   6.464   4.524 -0.9414  0.5253  0.0731
15625TIP3   OH268289   5.216   7.166   0.152  0.3018  0.0457  0.0157
15625TIP3    H168290   5.273   7.243   0.145  0.0722  0.1780 -0.4485
15625TIP3    H268291   5.150   7.180   0.084  1.6077 -1.6638 -1.6679
15626TIP3   OH268292   2.429   3.391   4.567  0.0309  0.1753  0.4138
15626TIP3    H168293   2.443   3.328   4.638  1.4563 -1.0003 -0.8637
15626TIP3    H268294   2.376   3.460   4.606  0.4332 -0.6599  2.5002
15627TIP3   OH268295   2.945   4.498   2.593 -0.0861  0.4167 -0.1635
15627TIP3    H168296   3.032   4.518   2.628 -0.0099  0.2856 -0.2738
15627TIP3    H268297   2.898   4.457   2.666 -0.2366  0.9799  0.0558
15628TIP3   OH268298   3.849   0.762   2.086 -0.0018 -0.1833 -0.3919
15628TIP3    H168299   3.925   0.733   2.137  0.3017 -0.7439 -1.1542
15628TIP3    H268300   3.842   0.855   2.106  1.0773 -0.0546 -0.5468
15629TIP3   OH268301   3.183   5.462   0.642  0.4338 -0.1717 -0.1048
15629TIP3    H168302   3.173   5.367   0.634  0.3560 -0.2562  0.8797
15629TIP3    H268303   3.114   5.498   0.586  0.0371 -0.7053  0.0335
15630TIP3   OH268304   4.636   5.663   3.671 -0.1250  0.0698  0.6683
15630TIP3    H168305   4.546   5.629   3.668 -0.6800  1.5036  0.9213
15630TIP3    H268306   4.681   5.607   3.734 -0.5723 -1.2773 -0.1817
15631TIP3   OH268307   2.116   3.224   3.395  0.0502 -0.4270  0.4192
15631TIP3    H168308   2.049   3.219   3.328  1.2250  0.3154 -0.8458
15631TIP3    H268309   2.179   3.156   3.372 -0.4342 -1.3879  1.8236
15632TIP3   OH268310   5.278   3.944   2.182 -0.2081 -0.7445  0.4199
15632TIP3    H168311   5.303   4.028   2.143 -1.0269  0.6323  2.7316
15632TIP3    H268312   5.189   3.929   2.151 -0.6971  0.1285  1.3559
15633TIP3   OH268313   2.932   0.459   3.704 -0.3807  0.2939 -0.0412
15633TIP3    H168314   2.846   0.485   3.673 -0.4417  0.7450  0.5137
15633TIP3    H268315   2.979   0.432   3.624 -0.1812  2.4820 -0.6946
15634TIP3   OH268316   1.093   3.860  15.920  0.4206 -0.3404  0.2730
15634TIP3    H168317   1.021   3.799  15.934  1.9769 -3.3299 -3.7646
15634TIP3    H268318   1.166   3.823  15.970  1.2020 -1.5789 -1.7159
15635TIP3   OH268319   3.916   4.934   3.170  0.2980 -0.1722 -0.1818
15635TIP3    H168320   3.822   4.947   3.181  0.1994 -0.7886 -0.3165
15635TIP3    H268321   3.951   5.023   3.166 -0.3427  0.0601 -0.7354
15636TIP3   OH268322   6.017   5.874   4.477 -0.2405 -0.0207  0.1478
15636TIP3    H168323   5.936   5.900   4.519 -0.6292 -0.0487 -0.5664
15636TIP3    H268324   5.989   5.828   4.398  0.4649  0.8331 -0.6209
15637TIP3   OH268325   5.747   3.322   1.275 -0.1810 -0.2364 -0.1898
15637TIP3    H168326   5.752   3.299   1.182 -1.0514 -1.6093  0.0826
15637TIP3    H268327   5.796   3.404   1.282  2.6454 -1.7470 -1.3171
15638TIP3   OH268328   2.419   5.545  14.255 -0.1661  0.2058  0.2042
15638TIP3    H168329   2.372   5.472  14.297  0.6188 -0.6005 -0.3057
15638TIP3    H268330   2.400   5.620  14.311 -1.8830 -0.1486  0.1369
15639TIP3   OH268331   4.330   6.557   3.915  0.1062 -0.0643  0.0424
15639TIP3    H168332   4.333   6.645   3.953 -1.1097  0.0031  0.0327
15639TIP3    H268333   4.419   6.540   3.886  0.1558  1.5786 -0.8580
15640TIP3   OH268334   5.393   2.500   2.523  0.1424  0.6247 -0.1491
15640TIP3    H168335   5.373   2.518   2.431 -0.5118  0.4127 -0.0488
15640TIP3    H268336   5.396   2.405   2.529 -2.2172  0.5575  0.5419
15641TIP3   OH268337   0.193   1.877   5.024  0.2232 -0.1392  1.0633
15641TIP3    H168338   0.179   1.895   4.931 -0.0298 -0.6383  1.0008
15641TIP3    H268339   0.105   1.860   5.059  0.1755  1.3579  1.6778
15642TIP3   OH268340   0.126   5.450   1.815 -0.5724  0.8283 -0.2800
15642TIP3    H168341   0.196   5.516   1.809 -0.5817  0.8887  0.2581
15642TIP3    H268342   0.070   5.469   1.739 -0.2834  1.0987 -0.4320
15643TIP3   OH268343   5.620   6.677   1.124  0.3395 -0.1343 -0.0768
15643TIP3    H168344   5.589   6.767   1.115  2.1039  0.6624  1.3552
15643TIP3    H268345   5.690   6.669   1.059  1.5273  0.1882  1.1341
15644TIP3   OH268346   3.168   3.298   3.405  0.1256 -0.0480 -0.0982
15644TIP3    H168347   3.087   3.255   3.430 -0.5730  1.0932 -0.3522
15644TIP3    H268348   3.189   3.355   3.480  1.6468 -1.6429  0.7243
15645TIP3   OH268349   6.883   6.824   3.835  0.6250 -0.4695 -0.1128
15645TIP3    H168350   6.886   6.791   3.924 -1.5564 -3.2364 -0.9907
15645TIP3    H268351   6.896   6.746   3.780 -0.8246  0.7243 -2.2168
15646TIP3   OH268352   5.443   3.438   4.041 -0.1453 -0.2299  0.1914
15646TIP3    H168353   5.371   3.380   4.016  2.8624 -3.0683 -2.3659
15646TIP3    H268354   5.444   3.506   3.973 -0.1868 -0.3697  0.0523
15647TIP3   OH268355   6.319   6.032   4.544  0.3595 -0.3040 -0.1614
15647TIP3    H168356   6.230   6.035   4.508  0.2349  0.4493  0.2130
15647TIP3    H268357   6.371   5.991   4.475 -0.0909  0.1222 -0.7577
15648TIP3   OH268358   1.166   3.508   3.008 -0.2490  0.2289  0.0648
15648TIP3    H168359   1.118   3.427   3.029 -0.3452 -0.0270 -1.0780
15648TIP3    H268360   1.154   3.518   2.914  3.5804 -0.9131 -0.6356
15649TIP3   OH268361   0.045   4.676  15.619  0.4896  0.0390  0.1400
15649TIP3    H168362   0.061   4.637  15.533 -0.2990 -0.1463  0.0709
15649TIP3    H268363   0.059   4.604  15.680 -1.0832 -0.4036  0.0023
15650TIP3   OH268364   3.975   3.147   5.653  0.2633 -0.1166 -0.0089
15650TIP3    H168365   3.977   3.118   5.744  0.8914 -1.7303 -0.5284
15650TIP3    H268366   3.914   3.221   5.653  1.6418  1.1014  2.0605
15651TIP3   OH268367   2.331   5.692   2.960 -0.2726 -0.1550  0.2678
15651TIP3    H168368   2.286   5.608   2.962 -1.6817  0.5850  0.3376
15651TIP3    H268369   2.336   5.714   2.866 -0.0123 -0.2618  0.2569
15652TIP3   OH268370   6.048   5.513  14.634 -0.0420 -0.4629  0.2153
15652TIP3    H168371   6.044   5.561  14.552 -0.1060  0.0069  0.4970
15652TIP3    H268372   6.096   5.570  14.694 -0.5089 -0.5524  0.6815
15653TIP3   OH268373   4.510   5.754   1.210 -0.8186  0.0035  0.0868
15653TIP3    H168374   4.491   5.742   1.303  0.8032 -0.9137  0.3196
15653TIP3    H268375   4.603   5.732   1.202 -0.2286  2.8138 -1.2687
15654TIP3   OH268376   4.201   5.564   2.545 -0.0076 -0.4166 -0.1546
15654TIP3    H168377   4.279   5.526   2.505  0.8851  0.8635  0.3138
15654TIP3    H268378   4.212   5.549   2.639  1.3299  2.6445  0.2326
15655TIP3   OH268379   3.973   6.185   2.793 -0.0048  0.0105  0.3176
15655TIP3    H168380   3.903   6.242   2.828  0.4213 -0.3113  1.7507
15655TIP3    H268381   4.042   6.191   2.859  1.4258  0.5144 -1.2118
15656TIP3   OH268382   6.340   4.880   2.906 -0.0855  0.0149 -0.0840
15656TIP3    H168383   6.277   4.922   2.964 -0.3392 -0.4609 -0.0181
15656TIP3    H268384   6.305   4.893   2.818 -1.2907 -1.9799  0.0909
15657TIP3   OH268385   1.450   3.773   2.779  0.1204 -0.6533  0.2112
15657TIP3    H168386   1.386   3.844   2.767  1.6766  0.8726  0.7004
15657TIP3    H268387   1.461   3.766   2.873  1.2900 -0.3146  0.1110
15658TIP3   OH268388   4.768   3.686   2.583  0.0361  0.2887  0.1664
15658TIP3    H168389   4.680   3.681   2.619  0.1550 -0.1587  0.4024
15658TIP3    H268390   4.820   3.628   2.639  0.6120  1.0381  0.4191
15659TIP3   OH268391   3.446   6.537   5.494 -0.6072 -0.6686  0.0674
15659TIP3    H168392   3.542   6.528   5.494 -0.6964 -1.7692 -0.1203
15659TIP3    H268393   3.416   6.469   5.554 -1.2928 -0.6454 -0.2411
15660TIP3   OH268394   0.867   4.945   4.560  0.0729 -0.1528  0.1636
15660TIP3    H168395   0.941   4.943   4.621 -0.4646 -0.6133  0.8082
15660TIP3    H268396   0.794   4.909   4.610 -0.6007  0.3454 -0.4593
15661TIP3   OH268397   4.787   6.667   3.149  0.3214 -0.2540 -0.1333
15661TIP3    H168398   4.743   6.746   3.181  1.0218  0.1129 -0.0739
15661TIP3    H268399   4.718   6.618   3.104  0.1754  1.0087 -1.3016
15662TIP3   OH268400   3.479   0.102   1.355 -0.0311 -0.4493 -0.3707
15662TIP3    H168401   3.536   0.116   1.431  0.0597 -0.3886 -0.4498
15662TIP3    H268402   3.517   0.156   1.286 -0.1514 -0.4539 -0.4409
15663TIP3   OH268403   2.240   3.150   5.412  0.3669 -0.0942 -0.2378
15663TIP3    H168404   2.217   3.171   5.503  0.7085 -1.4143  0.1623
15663TIP3    H268405   2.333   3.130   5.415  0.1715 -1.0878 -0.7052
15664TIP3   OH268406   3.715   2.174   0.598 -0.4610  0.4719  0.0649
15664TIP3    H168407   3.751   2.092   0.632 -0.8488  0.1427 -0.3202
15664TIP3    H268408   3.790   2.233   0.595 -0.2924  0.3036  0.8726
15665TIP3   OH268409   0.400   2.756   2.045 -0.4222 -0.0156  0.0208
15665TIP3    H168410   0.373   2.848   2.040 -1.3761 -0.3041 -0.1010
15665TIP3    H268411   0.495   2.759   2.034 -0.2400  1.1121  1.7538
15666TIP3   OH268412   3.721   6.378   4.822  0.0379 -0.5071 -0.3777
15666TIP3    H168413   3.753   6.291   4.846  0.9540 -0.1088 -0.1523
15666TIP3    H268414   3.637   6.385   4.868  1.8630  0.3418  3.0156
15667TIP3   OH268415   0.440   4.155   5.946  0.4928 -0.1073 -0.6341
15667TIP3    H168416   0.520   4.107   5.926  0.4113 -0.5658  0.1216
15667TIP3    H268417   0.465   4.214   6.017 -0.2118 -1.3491  0.6767
15668TIP3   OH268418   0.449   4.748   4.107  0.7593  0.0850 -0.2873
15668TIP3    H168419   0.380   4.798   4.151  0.1289 -0.1334 -1.0103
15668TIP3    H268420   0.410   4.724   4.023  0.6318 -2.6029  0.5141
15669TIP3   OH268421   5.970   5.094  15.734  0.4097 -0.1910  0.0791
15669TIP3    H168422   5.952   5.180  15.696  0.5743  0.1132  0.6827
15669TIP3    H268423   5.888   5.069  15.777 -0.1455 -1.0568 -1.4649
15670TIP3   OH268424   5.288   4.161   3.595 -0.2443  0.6932 -0.0768
15670TIP3    H168425   5.365   4.167   3.652 -1.1834  1.3138  1.1597
15670TIP3    H268426   5.215   4.145   3.655 -0.9139 -1.1304 -1.3465
15671TIP3   OH268427   4.584   5.440   4.643 -0.2331  0.0003  0.3947
15671TIP3    H168428   4.628   5.520   4.673 -1.8445  0.4953  1.5382
15671TIP3    H268429   4.635   5.368   4.680 -0.7461  0.5709  2.2363
15672TIP3   OH268430   2.853   3.395   2.437  0.5814  0.2825 -0.0880
15672TIP3    H168431   2.814   3.370   2.521 -0.0384  0.7669 -0.2247
15672TIP3    H268432   2.875   3.312   2.394 -0.3070 -0.0030 -0.0088
15673TIP3   OH268433   3.018   2.667   2.317  0.0384 -0.2447  0.1290
15673TIP3    H168434   3.043   2.656   2.225  2.7982 -1.0142  0.9144
15673TIP3    H268435   2.937   2.617   2.326  1.0273 -2.2305 -1.3664
15674TIP3   OH268436   2.631   3.166   4.979  0.1424  0.1823 -0.8473
15674TIP3    H168437   2.609   3.259   4.987 -1.6184 -0.0578 -2.5188
15674TIP3    H268438   2.570   3.122   5.038 -0.6134 -0.0832 -1.8084
15675TIP3   OH268439   0.525   1.723   1.984  0.3649 -0.2547  0.1031
15675TIP3    H168440   0.617   1.702   1.969  0.7683  0.2853  1.6802
15675TIP3    H268441   0.516   1.815   1.958 -0.3751 -1.0522 -2.6021
15676TIP3   OH268442   3.544   1.959   4.992 -0.8527 -0.3576  0.3078
15676TIP3    H168443   3.582   1.884   5.038  1.5554  0.5398 -0.1540
15676TIP3    H268444   3.542   2.029   5.058 -0.9640 -0.1859  0.1222
15677TIP3   OH268445   2.665   2.738   2.564  0.0608  0.4279  0.1445
15677TIP3    H168446   2.719   2.799   2.515 -0.1401 -0.6626 -1.4667
15677TIP3    H268447   2.590   2.721   2.508 -0.2799 -0.6875  0.9068
15678TIP3   OH268448   5.312   4.118   4.659 -0.5140  0.5775 -0.0298
15678TIP3    H168449   5.282   4.203   4.692 -2.0404 -0.0830  0.3491
15678TIP3    H268450   5.369   4.140   4.585 -0.7258  1.9415  0.1888
15679TIP3   OH268451   3.877   5.162   2.617  0.0967  0.2653  0.2274
15679TIP3    H168452   3.972   5.153   2.613 -0.0392 -1.4469  0.6685
15679TIP3    H268453   3.861   5.212   2.697  0.6791  1.5589 -0.4517
15680TIP3   OH268454   4.695   4.160   3.946 -0.2819 -0.0016  0.0307
15680TIP3    H168455   4.756   4.228   3.919  0.2762 -0.9068 -1.0405
15680TIP3    H268456   4.628   4.206   3.996  1.1148  1.0501  0.9832
15681TIP3   OH268457   1.338   0.775   0.734  0.0778  0.0086 -0.1999
15681TIP3    H168458   1.426   0.809   0.721  0.2654 -0.0179  0.9802
15681TIP3    H268459   1.334   0.753   0.827 -1.6841  1.4861  0.1015
15682TIP3   OH268460   4.838   4.394   3.970 -0.5442  0.2880 -0.3921
15682TIP3    H168461   4.915   4.376   4.025 -1.1631  3.7544  1.7366
15682TIP3    H268462   4.856   4.479   3.930 -3.7608  1.7848  1.1507
15683TIP3   OH268463   3.564   4.233   3.666  0.1294 -0.3955  0.5334
15683TIP3    H168464   3.499   4.169   3.637 -1.7238  0.6873  2.1028
15683TIP3    H268465   3.515   4.291   3.725  2.6130  0.2613  2.0329
15684TIP3   OH268466   5.176   6.275   2.266 -0.5213 -0.5514 -0.1922
15684TIP3    H168467   5.194   6.184   2.242 -1.2659 -0.5008 -0.9680
15684TIP3    H268468   5.142   6.314   2.185  1.9103  1.0094 -0.5092
15685TIP3   OH268469   7.041   5.701   0.762  0.5524  0.0572  0.3954
15685TIP3    H168470   6.995   5.650   0.828 -1.1246 -0.3747 -1.0563
15685TIP3    H268471   7.061   5.638   0.693 -1.2809  1.2590 -1.2837
15686TIP3   OH268472   7.155   5.948  15.260  0.2053  0.3924 -0.1582
15686TIP3    H168473   7.193   5.991  15.336  1.2324  2.5270 -1.8189
15686TIP3    H268474   7.226   5.946  15.195 -0.1151 -2.9830 -0.4808
15687TIP3   OH268475   4.638   1.984   0.462 -0.0853 -0.0484 -0.1966
15687TIP3    H168476   4.727   2.013   0.442 -0.3756 -0.2578 -1.8312
15687TIP3    H268477   4.583   2.060   0.441 -0.5323 -0.7325 -1.5470
15688TIP3   OH268478   3.414   3.035   4.514  0.1134  0.2292 -0.8648
15688TIP3    H168479   3.369   3.120   4.509 -0.4543 -0.0863 -1.1778
15688TIP3    H268480   3.430   3.023   4.608 -0.0639  0.5472 -0.7909
15689TIP3   OH268481   3.615   5.000   0.869  0.5191 -0.1140  0.1488
15689TIP3    H168482   3.637   4.964   0.783 -2.6071  0.1832 -0.8564
15689TIP3    H268483   3.587   4.924   0.920 -0.3008  0.0577 -0.0303
15690TIP3   OH268484   3.504   6.497   2.977 -0.2661 -0.6316  0.3129
15690TIP3    H168485   3.475   6.423   2.923 -0.9758  0.0453 -0.2503
15690TIP3    H268486   3.578   6.534   2.930 -0.7855 -0.1385 -0.1371
15691TIP3   OH268487   0.332   7.075   5.238  0.4942 -0.1015 -0.2163
15691TIP3    H168488   0.289   7.081   5.323 -1.3647  0.8322 -1.1963
15691TIP3    H268489   0.291   6.999   5.196 -1.9013  2.0975 -2.0397
15692TIP3   OH268490   4.533   6.895   3.705  0.2330  0.7160 -0.1908
15692TIP3    H168491   4.464   6.895   3.771 -1.1443  1.1212 -1.5916
15692TIP3    H268492   4.525   6.810   3.662  2.7313 -0.5654  1.7507
15693TIP3   OH268493   2.891   2.117   3.191  0.1083  0.1993 -0.1486
15693TIP3    H168494   2.802   2.131   3.225  0.6738 -0.0378  1.4712
15693TIP3    H268495   2.934   2.202   3.200  0.1830  0.1999 -0.5099
15694TIP3   OH268496   1.131   2.714   0.749 -0.5287 -0.7876 -0.4626
15694TIP3    H168497   1.215   2.690   0.789 -0.4822 -0.8510 -0.5959
15694TIP3    H268498   1.148   2.798   0.706 -0.4112 -1.0151 -0.8675
15695TIP3   OH268499   5.567   2.906   1.545 -0.3242 -0.0247  0.2100
15695TIP3    H168500   5.497   2.968   1.522 -1.9232 -1.6229  0.6345
15695TIP3    H268501   5.561   2.837   1.478  0.4662 -0.4603  0.5860
15696TIP3   OH268502   2.375   5.952   4.966 -0.0222  0.4950 -0.8790
15696TIP3    H168503   2.294   6.002   4.960  0.0183  0.3444 -2.9006
15696TIP3    H268504   2.348   5.861   4.954  0.1365  0.1533  1.0668
15697TIP3   OH268505   3.064   1.684   2.807  0.7082  0.1236  0.3403
15697TIP3    H168506   3.067   1.628   2.729  1.5414  0.0853  0.3955
15697TIP3    H268507   3.110   1.764   2.781 -1.3203  1.1984 -0.0535
15698TIP3   OH268508   5.107   4.171   1.877  0.3774  0.0733  0.7318
15698TIP3    H168509   5.013   4.187   1.874  0.1589 -1.1772  0.8893
15698TIP3    H268510   5.134   4.207   1.962  0.2008  1.2014  0.3247
15699TIP3   OH268511   3.334   5.276   2.521  0.0510 -0.1359 -0.4087
15699TIP3    H168512   3.347   5.224   2.442 -1.7319 -0.2940 -0.6181
15699TIP3    H268513   3.324   5.366   2.489 -1.4299 -0.3031 -0.4413
15700TIP3   OH268514   2.941   6.154   1.003 -0.8785 -0.3121 -0.4675
15700TIP3    H168515   3.010   6.177   1.065 -0.8000 -0.6147 -0.4412
15700TIP3    H268516   2.941   6.058   1.001 -1.0149 -0.3073 -0.7838
15701TIP3   OH268517   3.440   3.203   0.959 -0.2961 -0.0100 -0.1491
15701TIP3    H168518   3.438   3.239   1.047 -2.4379 -1.2017  0.3134
15701TIP3    H268519   3.373   3.252   0.911 -1.4703 -1.6060 -0.1814
15702TIP3   OH268520   2.251   5.782   3.512 -0.5380 -0.2513 -0.4584
15702TIP3    H168521   2.251   5.754   3.421  0.2970  1.3195 -0.9577
15702TIP3    H268522   2.232   5.876   3.509  0.7172  0.0821  0.8808
15703TIP3   OH268523   1.504   6.451   2.865  0.3399 -0.3267  0.6236
15703TIP3    H168524   1.530   6.477   2.953  0.5500 -0.3238  0.5599
15703TIP3    H268525   1.585   6.454   2.814  0.1118  0.2602  0.2882
15704TIP3   OH268526   3.629   6.954   3.052 -0.2748 -0.1238  0.5031
15704TIP3    H168527   3.621   7.042   3.017  0.3237 -0.0541  0.5295
15704TIP3    H268528   3.545   6.912   3.033 -0.4925  0.3911  0.3275
15705TIP3   OH268529   1.379   1.116   0.764 -0.2707 -0.7221 -0.0797
15705TIP3    H168530   1.459   1.118   0.712 -1.3838  3.0114 -1.8603
15705TIP3    H268531   1.400   1.165   0.843 -0.1198 -1.7503  0.5145
15706TIP3   OH268532   2.867   4.891   3.318  0.0849 -0.2258 -0.1273
15706TIP3    H168533   2.812   4.969   3.307 -0.7562 -0.7880  0.0139
15706TIP3    H268534   2.949   4.914   3.274 -0.4446  0.4362 -0.8118
15707TIP3   OH268535   6.586   0.388   2.021  0.3263 -0.2715  0.0913
15707TIP3    H168536   6.586   0.427   2.108  1.8308 -0.1164  0.0299
15707TIP3    H268537   6.508   0.333   2.019  0.6803 -0.8564  1.8142
15708TIP3   OH268538   3.609   5.954   2.462 -0.4293 -0.0541  0.3209
15708TIP3    H168539   3.651   6.028   2.417 -0.2370  0.4014  1.2401
15708TIP3    H268540   3.650   5.877   2.423  0.6964  0.3682  0.6438
15709TIP3   OH268541   5.832   1.782   3.713 -0.3754 -0.0937 -0.2446
15709TIP3    H168542   5.849   1.827   3.796  0.8426  0.0282 -0.5521
15709TIP3    H268543   5.895   1.820   3.652 -1.0234 -0.4439 -1.1451
15710TIP3   OH268544   5.524   4.017   0.925  0.0350 -0.2456  0.1942
15710TIP3    H168545   5.543   4.088   0.986 -1.0029 -0.6577  1.0142
15710TIP3    H268546   5.468   3.958   0.974  2.6611 -2.7807  0.2754
15711TIP3   OH268547   1.907   4.573   2.673 -0.1805 -0.0552  0.5767
15711TIP3    H168548   1.869   4.613   2.595 -0.1938 -0.1234  0.5493
15711TIP3    H268549   2.001   4.582   2.661 -0.1690 -0.5163  0.3216
15712TIP3   OH268550   6.121   4.195   3.318 -0.0480 -0.2596 -0.5625
15712TIP3    H168551   6.175   4.201   3.397 -0.1496 -0.2743 -0.4911
15712TIP3    H268552   6.094   4.286   3.301 -1.8487 -0.5079  0.7015
15713TIP3   OH268553   6.612   5.685   3.511  0.5694  0.1746  0.0569
15713TIP3    H168554   6.664   5.763   3.530  0.1194  0.2880  0.8203
15713TIP3    H268555   6.533   5.719   3.468 -0.7659  0.3654  2.6115
15714TIP3   OH268556   5.309   2.320   2.002 -0.1284  0.0971  0.3234
15714TIP3    H168557   5.230   2.347   2.050 -1.4476 -0.5694 -1.4241
15714TIP3    H268558   5.361   2.401   1.995 -1.3573  0.8892  0.1556
15715TIP3   OH268559   5.404   3.749   3.146  0.5524 -0.6832 -0.1650
15715TIP3    H168560   5.315   3.772   3.172  0.3937 -0.9392 -0.4670
15715TIP3    H268561   5.446   3.832   3.125  0.8569 -0.4217  1.4217
15716TIP3   OH268562   0.214   3.158   3.341 -0.4861 -0.1947 -0.0891
15716TIP3    H168563   0.289   3.113   3.302  0.8524  1.9493 -0.0981
15716TIP3    H268564   0.192   3.227   3.277 -1.7921 -0.1426  0.4086
15717TIP3   OH268565   3.600   4.687  15.258  0.3606  0.4440  0.1303
15717TIP3    H168566   3.684   4.660  15.294  0.3597 -0.2820 -0.3946
15717TIP3    H268567   3.544   4.702  15.335  0.2702 -1.3590  0.4407
15718TIP3   OH268568   6.428   5.825   3.328 -0.1185 -0.3093 -0.6002
15718TIP3    H168569   6.422   5.833   3.233  0.9394 -1.3681 -0.7638
15718TIP3    H268570   6.338   5.832   3.359 -0.6560 -1.6994 -1.8203
15719TIP3   OH268571   6.250   4.830   2.646 -0.3176  0.1342 -0.2158
15719TIP3    H168572   6.312   4.761   2.625 -1.1795 -1.4247  2.1804
15719TIP3    H268573   6.188   4.829   2.573  0.5149 -0.6195 -0.9206
15720TIP3   OH268574   6.432   5.745   1.794  0.2731  0.4856  0.6213
15720TIP3    H168575   6.389   5.735   1.879  1.3728  0.8404  1.2280
15720TIP3    H268576   6.495   5.815   1.807  1.8987 -0.8364  0.0917
15721TIP3   OH268577   5.722   5.639   5.063 -0.3957  0.2279 -0.3305
15721TIP3    H168578   5.654   5.576   5.087  0.2885 -0.2065  0.4820
15721TIP3    H268579   5.775   5.650   5.142 -0.4759  1.7965 -0.4664
15722TIP3   OH268580   0.829   4.539   1.567 -0.4262  0.1041 -0.1278
15722TIP3    H168581   0.915   4.536   1.526 -0.7053 -0.6065 -0.6816
15722TIP3    H268582   0.844   4.504   1.655 -0.3173 -0.9009 -0.5400
15723TIP3   OH268583   0.989   3.384   0.940 -0.4914  0.0464 -0.4572
15723TIP3    H168584   0.912   3.354   0.988 -0.2593 -1.6904 -1.1441
15723TIP3    H268585   1.063   3.357   0.995 -0.2144 -2.1544 -1.8370
15724TIP3   OH268586   6.980   2.362   1.821  0.5393  0.1119  0.5053
15724TIP3    H168587   6.911   2.427   1.835  0.5616  0.5381 -1.2735
15724TIP3    H268588   6.942   2.301   1.758  1.9852  0.6525 -0.8978
15725TIP3   OH268589   7.162   3.739   5.486  0.4372 -0.5854 -0.3066
15725TIP3    H168590   7.257   3.735   5.497  0.6680 -0.0151 -1.8600
15725TIP3    H268591   7.138   3.829   5.507  0.1457 -0.9051  0.7325
15726TIP3   OH268592   6.157   5.627   0.728 -0.0735  0.1108 -0.3458
15726TIP3    H168593   6.236   5.680   0.720 -0.0654  0.1235 -0.1826
15726TIP3    H268594   6.157   5.597   0.818  0.3355 -0.8078 -0.6434
15727TIP3   OH268595   0.286   1.686   1.425  0.6013  0.2103 -0.0222
15727TIP3    H168596   0.356   1.744   1.457  1.8619 -1.0877 -0.3869
15727TIP3    H268597   0.219   1.746   1.392  1.7781  1.4752 -0.1716
15728TIP3   OH268598   6.256   4.481   2.417 -0.1113  0.1809  0.5433
15728TIP3    H168599   6.254   4.445   2.329 -1.0136  2.3255 -0.3282
15728TIP3    H268600   6.237   4.406   2.474  2.4481 -1.6364 -0.9004
15729TIP3   OH268601   2.472   3.408  14.521 -0.7532 -0.4201 -0.3435
15729TIP3    H168602   2.416   3.342  14.478  1.3482 -3.0951  0.9093
15729TIP3    H268603   2.539   3.357  14.566  0.6693  2.6027  1.0791
15730TIP3   OH268604   5.674   3.957   1.463  0.1964  0.7765  0.7922
15730TIP3    H168605   5.734   3.971   1.535  0.7861 -0.9789  0.6659
15730TIP3    H268606   5.604   3.903   1.500  0.4346 -0.0181  0.1174
15731TIP3   OH268607   6.223   4.214   1.778  0.0032 -0.3531  0.4250
15731TIP3    H168608   6.150   4.246   1.724 -0.9896  0.3261  2.1080
15731TIP3    H268609   6.284   4.176   1.716 -0.8185  0.9521 -1.2325
15732TIP3   OH268610   6.300   5.103   3.206 -0.7832 -0.0589  0.4135
15732TIP3    H168611   6.396   5.107   3.204 -0.6656 -2.3919 -1.2780
15732TIP3    H268612   6.280   5.061   3.290 -0.4385  2.1899  1.6410
15733TIP3   OH268613   6.657   5.456   1.999 -0.6092  0.2505 -0.1181
15733TIP3    H168614   6.573   5.450   2.044 -0.2582  1.3335  0.6806
15733TIP3    H268615   6.679   5.549   2.000  0.8128 -0.0730  0.0682
15734TIP3   OH268616   5.158   2.034   4.581 -0.0917  0.3827 -0.1507
15734TIP3    H168617   5.209   2.078   4.513  0.4622  0.7941  0.5262
15734TIP3    H268618   5.216   2.033   4.657 -1.1080  0.8700  0.6308
15735TIP3   OH268619   6.996   4.565   3.952  0.0404 -0.0555 -0.5109
15735TIP3    H168620   7.062   4.545   3.886 -1.1952  1.8269 -2.3789
15735TIP3    H268621   7.046   4.598   4.027  1.3698 -1.1857 -0.8838
15736TIP3   OH268622   7.297   6.163   2.131  0.5405 -0.1810  0.0076
15736TIP3    H168623   7.229   6.230   2.142  0.1789 -0.6038  0.3980
15736TIP3    H268624   7.252   6.092   2.086  1.4102  0.5928 -2.1552
15737TIP3   OH268625   1.601   5.535  15.297  0.5895 -0.0141 -0.0993
15737TIP3    H168626   1.634   5.613  15.340  0.0109  0.0244  0.2840
15737TIP3    H268627   1.540   5.496  15.360  0.1063 -0.2182 -0.6800
15738TIP3   OH268628   6.785   6.172   0.526  0.1289 -0.0450  0.1474
15738TIP3    H168629   6.847   6.206   0.461 -0.4312  1.5304  0.4168
15738TIP3    H268630   6.717   6.129   0.475  0.8715 -0.8044 -0.2033
15739TIP3   OH268631   2.634   1.461   1.138 -0.2015  0.0024  1.3288
15739TIP3    H168632   2.656   1.381   1.187 -0.5332 -0.4217  0.7976
15739TIP3    H268633   2.617   1.430   1.049  1.1818  0.8611  0.7556
15740TIP3   OH268634   0.279   4.515   5.146 -0.2333 -0.3101 -0.5759
15740TIP3    H168635   0.277   4.422   5.170 -0.4643 -0.5416 -1.4372
15740TIP3    H268636   0.236   4.518   5.060  0.2670  0.5136 -0.8095
15741TIP3   OH268637   1.104   5.513   3.936  0.0989 -0.2314  0.1626
15741TIP3    H168638   1.097   5.542   3.845  2.3440  0.7297  0.2657
15741TIP3    H268639   1.078   5.421   3.933  0.1632 -0.2196 -1.4608
15742TIP3   OH268640   2.357   5.519   0.571  0.4541  0.0092  0.5227
15742TIP3    H168641   2.389   5.538   0.659  0.9970  1.8200 -0.0380
15742TIP3    H268642   2.416   5.451   0.539  0.5108 -0.3650  1.4144
15743TIP3   OH268643   3.386   1.940   1.618 -0.1260 -0.1353  0.4901
15743TIP3    H168644   3.454   2.003   1.593 -0.7129  0.4131  0.2382
15743TIP3    H268645   3.434   1.867   1.657  0.6413  0.0422 -0.0902
15744TIP3   OH268646   1.240   5.306   3.699 -0.4549  0.4042  0.9116
15744TIP3    H168647   1.242   5.317   3.794  1.7304  0.7954  0.8479
15744TIP3    H268648   1.323   5.262   3.679 -2.2685 -2.5178 -0.4788
15745TIP3   OH268649   3.956   3.772   2.058  0.8220  0.0051  0.2282
15745TIP3    H168650   3.879   3.819   2.026  0.0223 -1.9416 -0.7877
15745TIP3    H268651   4.029   3.812   2.011  0.4245  1.6462  0.9535
15746TIP3   OH268652   1.439   5.093   1.670  0.0173  0.3481 -0.0794
15746TIP3    H168653   1.368   5.133   1.721  0.8767 -0.2573  1.6102
15746TIP3    H268654   1.394   5.052   1.596 -1.4040  0.0382  0.9239
15747TIP3   OH268655   6.740   4.447   5.618 -0.9943 -0.1976 -0.0810
15747TIP3    H168656   6.767   4.444   5.710  1.1714  0.6359 -0.6612
15747TIP3    H268657   6.805   4.392   5.573 -0.6923  1.2282 -1.4104
15748TIP3   OH268658   1.732   2.841   3.815  0.2889  0.2384 -0.0389
15748TIP3    H168659   1.753   2.879   3.730  0.0662  0.2593 -0.0862
15748TIP3    H268660   1.767   2.904   3.879 -0.7396  0.9005 -0.1181
15749TIP3   OH268661   0.682   3.919   3.629  0.2519 -0.0598 -0.4935
15749TIP3    H168662   0.608   3.967   3.667 -0.1082 -0.7199 -0.3486
15749TIP3    H268663   0.759   3.962   3.664 -0.0726  0.3311 -0.2591
15750TIP3   OH268664   1.478   6.757  15.283 -0.0639  0.0050  0.3046
15750TIP3    H168665   1.455   6.844  15.318  1.1992 -0.2363  1.7993
15750TIP3    H268666   1.545   6.725  15.343  2.2614 -0.4019 -2.4413
15751TIP3   OH268667   0.358   3.741   2.621  1.0080  0.4378 -0.0378
15751TIP3    H168668   0.432   3.761   2.679  0.9470 -1.3780  0.7051
15751TIP3    H268669   0.392   3.675   2.560 -0.0906 -0.7013  0.5573
15752TIP3   OH268670   5.820   3.975   1.062  0.2578 -0.2116  0.0531
15752TIP3    H168671   5.803   3.918   1.137 -0.1095  0.9956  0.8957
15752TIP3    H268672   5.775   3.933   0.989 -0.2069 -0.8742  0.7163
15753TIP3   OH268673   5.816   0.587   3.652  0.3801  0.1295  0.0503
15753TIP3    H168674   5.865   0.629   3.722 -0.0939  0.1859  0.3436
15753TIP3    H268675   5.878   0.523   3.615  0.8077  0.4746  0.1604
15754TIP3   OH268676   6.174   4.521  14.916 -0.3468  0.1123 -0.6594
15754TIP3    H168677   6.093   4.564  14.945 -0.1858 -1.3658  2.1646
15754TIP3    H268678   6.149   4.429  14.905  0.3799  0.0983 -2.1489
15755TIP3   OH268679   6.301   2.435   2.895  0.0674 -0.0725 -0.0301
15755TIP3    H168680   6.272   2.525   2.881  3.0916  1.2424  1.7339
15755TIP3    H268681   6.237   2.398   2.956 -0.0306  1.5433  0.8542
15756TIP3   OH268682   7.229   6.206   0.676  0.2229 -0.4760 -0.1860
15756TIP3    H168683   7.257   6.217   0.767  0.0760  1.5928 -0.3667
15756TIP3    H268684   7.162   6.138   0.680  1.8474 -2.0676  0.9175
15757TIP3   OH268685   5.039   5.294   3.940  0.2491  0.0831 -1.1434
15757TIP3    H168686   4.999   5.321   4.023 -0.2194 -1.4750 -0.8458
15757TIP3    H268687   5.133   5.299   3.956  0.2243  3.3345 -1.7064
15758TIP3   OH268688   1.543   4.636   5.184  0.8432  0.1685 -0.0019
15758TIP3    H168689   1.517   4.572   5.117 -1.3552 -0.0207  0.9967
15758TIP3    H268690   1.573   4.583   5.258  0.1234  0.2918  0.3879
15759TIP3   OH268691   0.642   6.186   3.909  0.6467  0.4294  0.1655
15759TIP3    H168692   0.548   6.194   3.924  0.2165  2.5641 -3.0425
15759TIP3    H268693   0.677   6.273   3.931  1.5775  0.2167 -0.4406
15760TIP3   OH268694   4.591   4.753   1.598 -0.5423 -0.7267  0.4456
15760TIP3    H168695   4.575   4.664   1.629 -3.0176 -0.1718  0.8855
15760TIP3    H268696   4.633   4.797   1.672  0.8395 -1.5426  0.1699
15761TIP3   OH268697   2.921   2.222   2.065  0.0857 -0.2064  0.5940
15761TIP3    H168698   2.953   2.225   1.975  2.3222  1.4497  1.4239
15761TIP3    H268699   2.903   2.129   2.080 -2.5438 -0.2476 -2.2801
15762TIP3   OH268700   1.174   5.488   2.013 -0.0756 -0.4865 -0.0753
15762TIP3    H168701   1.082   5.470   2.034 -0.6712  0.9168 -1.3428
15762TIP3    H268702   1.192   5.435   1.935  0.1380 -0.6651  0.0974
15763TIP3   OH268703   0.530   0.009   3.345 -0.6696 -0.0913  0.0088
15763TIP3    H168704   0.572   0.009   3.431  0.5500  0.8232 -0.5624
15763TIP3    H268705   0.589  -0.041   3.289 -0.9995  0.0793 -0.5022
15764TIP3   OH268706   2.054   3.521   2.079 -0.2588  0.4524  0.1113
15764TIP3    H168707   2.109   3.584   2.125  1.1642  0.6190 -1.7527
15764TIP3    H268708   1.986   3.498   2.142  0.9292  1.5791  1.8582
15765TIP3   OH268709   0.455   6.335   3.478 -0.5861 -0.0540 -0.5001
15765TIP3    H168710   0.403   6.412   3.503 -0.8261  0.0882 -1.4360
15765TIP3    H268711   0.480   6.352   3.387  2.7677  0.8408  0.5047
15766TIP3   OH268712   6.630   2.463   3.149 -0.0908 -0.1259  0.0467
15766TIP3    H168713   6.646   2.457   3.055 -0.3615 -1.1845  0.0556
15766TIP3    H268714   6.537   2.439   3.159 -0.0930  0.0970  0.5650
15767TIP3   OH268715   4.276   6.426   3.500  0.2988  0.3200  0.8036
15767TIP3    H168716   4.298   6.369   3.573 -2.1700 -0.0532  1.2927
15767TIP3    H268717   4.264   6.367   3.426  0.2588  0.4608  0.6984
15768TIP3   OH268718   3.680   6.245   2.834  0.1718 -0.0347 -0.0630
15768TIP3    H168719   3.680   6.209   2.922 -1.2885 -1.0473 -0.4486
15768TIP3    H268720   3.699   6.338   2.845  0.5533 -0.2668  1.2569
15769TIP3   OH268721   6.558   3.855   3.039  0.8278 -0.1330 -0.0330
15769TIP3    H168722   6.629   3.857   3.103  2.6956 -0.1764 -2.0298
15769TIP3    H268723   6.551   3.763   3.014  0.6913  0.0097 -0.5236
15770TIP3   OH268724   3.843   5.944   3.561 -0.5030  0.1656  0.0479
15770TIP3    H168725   3.752   5.924   3.585 -0.5784 -0.2443 -0.5774
15770TIP3    H268726   3.853   5.909   3.473  0.2019  0.4052  0.0295
15771TIP3   OH268727   6.667   7.170  15.079 -0.5696 -0.3471 -0.0490
15771TIP3    H168728   6.689   7.101  15.017 -0.1470  0.8135 -1.2237
15771TIP3    H268729   6.585   7.208  15.045 -0.5261  0.0606  0.2935
15772TIP3   OH268730   6.589   1.521   4.394 -0.1869  0.6301 -0.2535
15772TIP3    H168731   6.623   1.576   4.465  2.2277 -0.9618 -0.1326
15772TIP3    H268732   6.524   1.465   4.436 -0.9054  1.7232  0.1031
15773TIP3   OH268733   7.089   5.201   1.240 -0.5093  0.0865 -0.4483
15773TIP3    H168734   7.041   5.169   1.163 -0.6582  0.8010 -0.6579
15773TIP3    H268735   7.077   5.132   1.306 -0.6752 -0.3697 -0.9458
15774TIP3   OH268736   2.616   4.631   2.835  0.0978  0.6856  0.3159
15774TIP3    H168737   2.617   4.709   2.779 -3.3056  0.6500  0.0841
15774TIP3    H268738   2.606   4.665   2.924 -0.7679  0.5432  0.2753
15775TIP3   OH268739   5.973   5.572   3.528  0.4681 -0.0288 -0.1130
15775TIP3    H168740   5.985   5.570   3.623  1.2116 -1.2908 -0.2086
15775TIP3    H268741   5.882   5.546   3.515  0.0598  1.1747  0.2911
15776TIP3   OH268742   2.040   2.674   1.558  0.7392  0.1842  0.0226
15776TIP3    H168743   1.949   2.701   1.542  0.3376 -0.8971  0.4701
15776TIP3    H268744   2.068   2.637   1.474 -0.0364 -1.7168  0.5791
15777TIP3   OH268745   5.341   4.957   3.760 -0.0591 -0.7547  0.0620
15777TIP3    H168746   5.418   5.012   3.774 -1.1008  0.8785 -0.5571
15777TIP3    H268747   5.342   4.896   3.834  0.4610  0.8380  1.3999
15778TIP3   OH268748   2.591   0.757   1.203  0.1781  0.1804  0.2799
15778TIP3    H168749   2.594   0.715   1.289  1.2559 -0.0717  0.1179
15778TIP3    H268750   2.628   0.693   1.143  0.5045  0.8093 -0.1966
15779TIP3   OH268751   0.275   4.059   2.102  0.1827  0.3482  0.4426
15779TIP3    H168752   0.305   4.018   2.184  0.4723 -1.2115 -0.4198
15779TIP3    H268753   0.356   4.085   2.057  0.0800  0.0395  0.0756
15780TIP3   OH268754   0.076   5.121   0.619  0.4915 -0.2698 -0.4981
15780TIP3    H168755   0.092   5.211   0.591 -1.2364  0.4783  0.8308
15780TIP3    H268756   0.128   5.111   0.699 -0.1072 -0.1275 -0.0909
15781TIP3   OH268757   2.828   1.565   3.515  0.3596 -0.8940  0.3846
15781TIP3    H168758   2.897   1.581   3.451 -1.3531 -0.1207 -1.3424
15781TIP3    H268759   2.808   1.652   3.551 -1.6066 -0.6659 -1.1825
15782TIP3   OH268760   6.771   3.798   1.410 -0.9667  0.9220 -0.0386
15782TIP3    H168761   6.690   3.832   1.448 -0.5766  3.0172 -1.0155
15782TIP3    H268762   6.821   3.877   1.386  2.9883 -0.1503  3.9251
15783TIP3   OH268763   0.534   4.353   2.947 -0.3133 -0.0593  0.1071
15783TIP3    H168764   0.491   4.392   2.871 -1.3870 -1.5742 -0.0927
15783TIP3    H268765   0.470   4.290   2.981  1.1952 -1.3130  0.6757
15784TIP3   OH268766   6.911   3.643   2.547  0.1491  0.0430  0.7829
15784TIP3    H168767   6.888   3.730   2.513 -0.2069  0.1800  1.3698
15784TIP3    H268768   7.005   3.647   2.561  0.5535 -0.4752 -1.5151
15785TIP3   OH268769   7.023   4.840   2.018  0.5351  0.3155 -0.3996
15785TIP3    H168770   7.007   4.815   2.110 -0.5117  1.2577 -0.3251
15785TIP3    H268771   7.039   4.757   1.974 -0.7131 -0.3029  0.2928
15786TIP3   OH268772   5.508   5.201   1.500 -0.4880  0.2081  0.6532
15786TIP3    H168773   5.594   5.226   1.534  0.6103  1.8514 -3.0234
15786TIP3    H268774   5.500   5.108   1.519  1.5214  0.3233  2.2182
15787TIP3   OH268775   5.010   5.384   0.209  0.2894  0.0596  0.2063
15787TIP3    H168776   4.975   5.346   0.290  0.5103 -1.0405 -0.2151
15787TIP3    H268777   5.103   5.396   0.227  0.0674  1.2469  0.6529
15788TIP3   OH268778   1.013   2.208   2.664  0.7038  0.4943 -0.5493
15788TIP3    H168779   0.948   2.271   2.631 -0.7575 -0.9387 -0.4435
15788TIP3    H268780   1.048   2.250   2.742 -1.4361  0.5010  0.4391
15789TIP3   OH268781   4.479   4.493   4.718  0.1224  0.4335  0.1629
15789TIP3    H168782   4.408   4.442   4.758 -0.9500  0.3697 -1.7617
15789TIP3    H268783   4.548   4.429   4.699 -0.3664  0.0481 -0.3232
15790TIP3   OH268784   4.172   5.606   2.836  0.4555  0.0917 -0.0437
15790TIP3    H168785   4.087   5.585   2.874  1.4372 -1.3794  1.4036
15790TIP3    H268786   4.183   5.700   2.852 -0.0111 -0.1158  1.5346
15791TIP3   OH268787   6.320   1.992  13.621 -1.1422  0.5218  0.7594
15791TIP3    H168788   6.331   2.075  13.668 -2.0483 -0.0635  2.0320
15791TIP3    H268789   6.272   1.936  13.682  0.8383 -1.4849  0.5141
15792TIP3   OH268790   0.133   4.975   2.831  0.2010  0.1207 -0.5277
15792TIP3    H168791   0.099   4.927   2.906 -1.1191 -1.2506 -1.9782
15792TIP3    H268792   0.060   5.030   2.801  0.5989  0.3820 -1.0346
15793TIP3   OH268793   5.188   4.997   1.098  0.2431 -0.1696 -0.8363
15793TIP3    H168794   5.274   5.038   1.088  0.2141  0.2697  0.5309
15793TIP3    H268795   5.198   4.940   1.175  0.1389 -2.3639 -2.3971
15794TIP3   OH268796   6.017   2.395   2.669 -0.3422 -0.2781 -0.4539
15794TIP3    H168797   6.073   2.468   2.640 -1.4869  0.5715 -0.5348
15794TIP3    H268798   6.071   2.317   2.654  1.1306  0.5749  0.1731
15795TIP3   OH268799   4.992   4.211   0.270  0.5527  0.3668 -0.7369
15795TIP3    H168800   4.929   4.254   0.212 -0.8667  1.6571  1.6711
15795TIP3    H268801   5.043   4.283   0.307  0.7468 -0.3207  0.3682
15796TIP3   OH268802   6.447   1.282   3.891  0.0302 -0.5228 -0.4401
15796TIP3    H168803   6.507   1.208   3.904 -1.1139 -1.6207 -1.1896
15796TIP3    H268804   6.386   1.277   3.964  0.3659  0.1021 -0.1159
15797TIP3   OH268805   4.963   1.447   3.144 -0.4770  0.4345 -0.1780
15797TIP3    H168806   4.919   1.362   3.150  0.2644  0.1141  0.8624
15797TIP3    H268807   4.932   1.496   3.220  0.3713  0.4893  0.1402
15798TIP3   OH268808   0.953   6.886   4.380 -0.4552  0.1857  0.0286
15798TIP3    H168809   0.986   6.976   4.374 -1.2698  0.3871 -1.9880
15798TIP3    H268810   0.953   6.866   4.473  2.2580  1.3317  0.3400
15799TIP3   OH268811   1.304   5.662   4.043  0.0377  0.1261  0.1865
15799TIP3    H168812   1.349   5.611   4.110 -0.0302 -0.1789  0.0028
15799TIP3    H268813   1.229   5.608   4.018 -0.4553  0.6488  0.5225
15800TIP3   OH268814   3.427   6.474   3.244 -0.3986 -0.6808 -0.4932
15800TIP3    H168815   3.462   6.474   3.155  0.5505  2.0861 -0.1656
15800TIP3    H268816   3.415   6.566   3.265 -2.1907 -1.3756  1.6533
15801TIP3   OH268817   0.771   5.780   5.074  0.0875 -0.2481 -0.4882
15801TIP3    H168818   0.819   5.800   5.155  0.0573 -0.9014 -0.3012
15801TIP3    H268819   0.693   5.732   5.104  0.2297 -0.7533 -0.9277
15802TIP3   OH268820   6.494   6.906   4.346  0.4066 -0.1833 -0.2351
15802TIP3    H168821   6.505   6.996   4.315 -0.6909  0.1016  0.1550
15802TIP3    H268822   6.512   6.911   4.440  0.6733 -0.4360 -0.2736
15803TIP3   OH268823   0.743   4.071   0.829  0.4223  0.4135  0.4308
15803TIP3    H168824   0.738   4.108   0.917  1.3341 -0.4182  0.8385
15803TIP3    H268825   0.769   4.145   0.774 -1.4866  1.2653  0.6228
15804TIP3   OH268826   4.208   0.560   0.990  0.2512  0.4173  0.3527
15804TIP3    H168827   4.205   0.554   0.894 -0.1353 -0.4404  0.4174
15804TIP3    H268828   4.122   0.594   1.014 -0.5532 -1.6671  0.5511
15805TIP3   OH268829   7.073   3.806   2.278 -0.0872  0.0472  0.9104
15805TIP3    H168830   7.047   3.716   2.255  1.8516 -0.5834  1.1523
15805TIP3    H268831   7.166   3.809   2.260 -0.6990  3.0153 -2.1931
15806TIP3   OH268832   1.935   6.417   1.701 -0.5529 -0.1099  0.3563
15806TIP3    H168833   1.907   6.435   1.611 -0.4021 -2.4566 -0.1796
15806TIP3    H268834   2.019   6.372   1.692  0.4573  1.4362  1.7643
15807TIP3   OH268835   0.460   4.402   1.318 -0.3335 -0.0660 -0.0245
15807TIP3    H168836   0.450   4.336   1.386 -1.3088  0.9093  0.8030
15807TIP3    H268837   0.411   4.366   1.244  0.9997 -1.2779 -0.3453
15808TIP3   OH268838   5.377   5.320   3.197 -0.0059  0.0381 -0.1637
15808TIP3    H168839   5.308   5.300   3.133 -1.2452 -1.2256  1.5255
15808TIP3    H268840   5.341   5.391   3.250  0.5672  0.3190 -0.1439
15809TIP3   OH268841   6.955   5.628   4.593 -0.2573  0.6169  0.3926
15809TIP3    H168842   6.879   5.627   4.535 -1.2026  0.6970  1.6106
15809TIP3    H268843   7.024   5.584   4.543 -1.3104 -0.1266 -0.4360
15810TIP3   OH268844   6.681   1.884   3.114 -0.1746  0.3778 -0.7658
15810TIP3    H168845   6.645   1.972   3.127 -0.0367  0.3755 -0.3359
15810TIP3    H268846   6.606   1.829   3.095 -0.3526  0.4432 -0.2559
15811TIP3   OH268847   1.117   4.243   2.350 -0.2098 -0.0086  0.5466
15811TIP3    H168848   1.113   4.185   2.274 -0.8489  1.0976 -0.2762
15811TIP3    H268849   1.182   4.203   2.407  1.1179 -0.2773 -1.0937
15812TIP3   OH268850   5.405   6.695   1.324  0.2107  0.3808 -0.0950
15812TIP3    H168851   5.458   6.664   1.251  0.8445  0.3291  0.3824
15812TIP3    H268852   5.460   6.682   1.401  0.2104  1.9827  0.2040
15813TIP3   OH268853   5.647   6.953   3.182 -0.5624 -0.1945 -0.4598
15813TIP3    H168854   5.715   6.977   3.244 -0.8502 -0.2537 -0.1226
15813TIP3    H268855   5.677   6.870   3.144 -0.7450 -0.5350  0.1360
15814TIP3   OH268856   1.845   0.838   2.110 -0.1159 -0.4824 -0.3433
15814TIP3    H168857   1.904   0.912   2.121 -0.5987  0.1364 -1.7425
15814TIP3    H268858   1.901   0.761   2.117  0.8792  0.1008 -1.6837
15815TIP3   OH268859   1.917   3.662   2.609 -0.1180  0.0859 -0.2203
15815TIP3    H168860   1.857   3.717   2.659  1.2428  0.2015  1.3304
15815TIP3    H268861   1.882   3.573   2.618 -1.0573  0.3917 -0.8337
15816TIP3   OH268862   1.194   4.840   1.148  0.6484  0.3919  0.2634
15816TIP3    H168863   1.222   4.815   1.060 -1.7000  0.0590 -0.4349
15816TIP3    H268864   1.206   4.761   1.200  2.2053  0.6395  0.2992
15817TIP3   OH268865   5.638   4.557   1.124  0.2287 -0.4552 -0.5539
15817TIP3    H168866   5.591   4.510   1.055 -3.5615  1.4088  0.5791
15817TIP3    H268867   5.589   4.536   1.204  1.2225  1.7324  0.6880
15818TIP3   OH268868   0.644   4.032   3.328 -0.1727 -0.1524  0.4338
15818TIP3    H168869   0.560   3.991   3.352 -0.3376  0.2755  0.5881
15818TIP3    H268870   0.703   4.008   3.400  0.0584 -1.1196 -0.0607
15819TIP3   OH268871   4.780   4.594   0.786  0.2051 -0.2707 -0.6408
15819TIP3    H168872   4.834   4.516   0.793  1.0711  0.1833 -1.9583
15819TIP3    H268873   4.723   4.577   0.711 -0.5223 -0.1737 -0.1170
15820TIP3   OH268874   6.588   6.205   0.288  0.2052  0.2916 -0.1718
15820TIP3    H168875   6.577   6.278   0.227 -2.1035 -0.6404 -0.9331
15820TIP3    H268876   6.655   6.150   0.248 -0.4702  0.2792 -1.3157
15821TIP3   OH268877   2.331   5.840   0.662  0.0669  0.3376 -0.2496
15821TIP3    H168878   2.380   5.768   0.624  0.8919 -0.0577  1.5002
15821TIP3    H268879   2.283   5.801   0.736 -3.0479  0.6810 -2.0026
15822TIP3   OH268880   0.285   2.695   2.604  0.2088  0.6265 -0.0547
15822TIP3    H168881   0.304   2.782   2.571  1.0689  0.6775  0.5376
15822TIP3    H268882   0.196   2.701   2.640  0.3592  1.3257  0.2068
15823TIP3   OH268883   0.479   2.253   3.266 -0.0292  0.3223 -0.2176
15823TIP3    H168884   0.385   2.259   3.282 -0.3028 -0.4665 -1.4067
15823TIP3    H268885   0.487   2.185   3.198  1.3346  0.8196 -0.5697
15824TIP3   OH268886   3.864   5.856   1.864 -0.1879  0.0796  0.1335
15824TIP3    H168887   3.837   5.924   1.926  0.3996  1.1292 -0.7530
15824TIP3    H268888   3.798   5.858   1.796  0.6695  0.8277 -0.6832
15825TIP3   OH268889   0.449   0.307   1.917  0.6744  0.2662  0.5396
15825TIP3    H168890   0.447   0.314   1.822  1.0555  2.1069  0.6389
15825TIP3    H268891   0.501   0.229   1.934  0.7054 -0.0137 -0.7663
15826TIP3   OH268892   2.998   3.303   2.010  0.4054  0.1243  0.6579
15826TIP3    H168893   3.072   3.246   2.034  0.3980 -1.0074 -1.8348
15826TIP3    H268894   2.921   3.251   2.030  0.4001 -0.8196 -1.7230
15827TIP3   OH268895   6.515   2.655   4.946  0.0573  0.5796 -0.3334
15827TIP3    H168896   6.511   2.607   4.864  0.3264 -0.5349  0.2908
15827TIP3    H268897   6.432   2.702   4.951 -0.3975 -0.1827 -0.7455
15828TIP3   OH268898   5.691   4.338   1.773 -0.7184  0.3233 -0.1627
15828TIP3    H168899   5.732   4.304   1.852  0.8773  0.5454 -0.8677
15828TIP3    H268900   5.630   4.270   1.745  1.6314 -1.5333 -0.9592
15829TIP3   OH268901   6.030   5.375   2.061 -0.0747 -0.3669 -0.1712
15829TIP3    H168902   5.960   5.311   2.051  0.1514 -0.7387  0.6218
15829TIP3    H268903   6.021   5.407   2.151  0.2089  0.2478 -0.3580
15830TIP3   OH268904   4.157   3.657   4.798  0.1459  0.1431 -0.1554
15830TIP3    H168905   4.079   3.603   4.786  0.3205 -0.3949  1.0599
15830TIP3    H268906   4.128   3.728   4.855  0.2498  0.6080 -0.6775
15831TIP3   OH268907   6.779   0.472  14.191 -0.2576 -0.0290 -0.2904
15831TIP3    H168908   6.823   0.478  14.106 -0.6320 -0.0020 -0.4857
15831TIP3    H268909   6.697   0.427  14.172 -0.7829  0.8380 -0.1083
15832TIP3   OH268910   0.054   3.772   0.862 -0.5740 -0.5860  0.0723
15832TIP3    H168911  -0.033   3.772   0.824 -0.8841  0.3793  0.7689
15832TIP3    H268912   0.090   3.686   0.840  0.1269  0.7010 -4.3313
15833TIP3   OH268913   5.574   4.673   3.817 -0.0714  0.4690 -0.1472
15833TIP3    H168914   5.538   4.680   3.729  1.1795  0.6467 -0.6622
15833TIP3    H268915   5.649   4.613   3.808  0.4564  0.9863  0.6581
15834TIP3   OH268916   0.611   3.203   6.329 -0.1562  0.0163 -0.3306
15834TIP3    H168917   0.659   3.253   6.395  0.5346 -0.1355 -0.7210
15834TIP3    H268918   0.520   3.208   6.358  0.0689  0.4349  0.3234
15835TIP3   OH268919   1.222   3.507   4.841  0.6685 -0.5832 -0.0668
15835TIP3    H168920   1.155   3.534   4.905  1.6586  1.3064  0.2248
15835TIP3    H268921   1.172   3.483   4.763 -0.3024  4.1956 -1.0907
15836TIP3   OH268922   6.557   4.173   4.904  0.2336 -0.3322 -0.2481
15836TIP3    H168923   6.477   4.225   4.896  0.7146  0.6000  0.7971
15836TIP3    H268924   6.545   4.100   4.843 -1.5962 -0.4499  0.2309
15837TIP3   OH268925   3.005   5.739   2.603 -0.1846  0.0257 -1.2895
15837TIP3    H168926   3.036   5.802   2.669  1.7544 -0.7322 -1.4479
15837TIP3    H268927   3.006   5.655   2.648 -2.3462  0.0090 -1.2167
15838TIP3   OH268928   1.830   2.890   3.315 -0.6593 -0.1088 -0.4107
15838TIP3    H168929   1.737   2.896   3.291 -1.2624 -2.2493  1.2789
15838TIP3    H268930   1.873   2.956   3.259 -2.8146 -0.8867 -3.1005
15839TIP3   OH268931   4.177   5.172   2.638 -0.5303  0.5850 -0.7372
15839TIP3    H168932   4.194   5.234   2.567  0.3818 -0.4640 -1.4423
15839TIP3    H268933   4.219   5.212   2.714  0.3899  0.6588 -1.2773
15840TIP3   OH268934   4.631   6.179   4.202 -0.3373 -0.2202  0.3028
15840TIP3    H168935   4.553   6.214   4.159  0.0977  1.8014  1.1007
15840TIP3    H268936   4.684   6.145   4.130 -1.1377  0.0667 -0.4395
15841TIP3   OH268937   0.895   4.055   6.098  0.2963  0.3108 -0.1926
15841TIP3    H168938   0.972   4.087   6.145 -0.0838  1.7712 -0.5377
15841TIP3    H268939   0.928   3.986   6.041  1.0791 -0.1716  0.8230
15842TIP3   OH268940   2.596   5.346   0.497 -0.4675  0.5513  0.2633
15842TIP3    H168941   2.646   5.427   0.496  0.4230  0.0379  1.7258
15842TIP3    H268942   2.627   5.297   0.421  1.1918  0.2801  1.0978
15843TIP3   OH268943   1.009   6.226   3.781 -0.1316 -0.0789 -0.5813
15843TIP3    H168944   1.055   6.267   3.854  0.2197  0.9427 -1.3649
15843TIP3    H268945   1.058   6.146   3.764 -0.6792 -0.7237  0.8051
15844TIP3   OH268946   1.165   5.499   5.508 -0.4448 -0.0837  0.2363
15844TIP3    H168947   1.175   5.410   5.474 -0.8611 -0.1959  0.4045
15844TIP3    H268948   1.246   5.544   5.482 -0.8286 -0.1146 -1.0874
15845TIP3   OH268949   1.187   7.186   4.854 -0.6516  0.2810  0.2172
15845TIP3    H168950   1.176   7.154   4.765  1.1507  0.0546  0.0575
15845TIP3    H268951   1.267   7.238   4.851  0.1121 -0.7607  1.9911
15846TIP3   OH268952   3.329   6.233   4.234  0.2436 -0.2017  0.0610
15846TIP3    H168953   3.284   6.235   4.318  1.3206  0.7671  0.6293
15846TIP3    H268954   3.297   6.310   4.188 -1.8150 -1.7749 -1.2224
15847TIP3   OH268955   6.831   4.012   2.881 -0.0916 -0.2823  0.7165
15847TIP3    H168956   6.892   3.938   2.880  0.4055  0.1341 -0.4121
15847TIP3    H268957   6.754   3.980   2.833 -0.0734 -0.2191  0.6466
15848TIP3   OH268958   3.603   1.173   5.502  0.1143 -0.0118 -0.3660
15848TIP3    H168959   3.533   1.133   5.450 -0.5735  1.5564 -0.6750
15848TIP3    H268960   3.566   1.178   5.591 -0.5120  1.5824 -0.6973
15849TIP3   OH268961   6.679   5.800   4.592 -0.6598  0.1608 -0.3449
15849TIP3    H168962   6.764   5.758   4.603 -0.8404 -0.0774  0.2134
15849TIP3    H268963   6.689   5.886   4.632 -1.3044 -0.6873  1.7199
15850TIP3   OH268964   5.492   2.935   4.399  0.6699  0.1704 -0.3501
15850TIP3    H168965   5.443   2.900   4.474  2.1908  2.3184  1.7259
15850TIP3    H268966   5.425   2.952   4.333 -0.6262 -2.4803  0.1903
15851TIP3   OH268967   6.866   4.868   5.868 -0.4503  0.1420  0.6213
15851TIP3    H168968   6.883   4.962   5.863  0.6310 -0.0615  0.2684
15851TIP3    H268969   6.877   4.846   5.961  0.3615  0.1774  0.5377
15852TIP3   OH268970   6.123   5.742   2.469  0.4261  0.5957 -1.2340
15852TIP3    H168971   6.078   5.697   2.540  1.7637 -1.7504 -1.8320
15852TIP3    H268972   6.062   5.811   2.442 -1.6259 -0.7814 -0.2488
15853TIP3   OH268973   1.387   2.327   2.458  0.6939  0.2136  0.3168
15853TIP3    H168974   1.466   2.358   2.503  1.4354 -0.8097 -0.2400
15853TIP3    H268975   1.365   2.245   2.503  1.2173 -0.6173 -0.9002
15854TIP3   OH268976   3.376   4.058   2.288 -0.3768  0.3339  0.2889
15854TIP3    H168977   3.419   4.083   2.370  0.9177  0.0571 -0.2879
15854TIP3    H268978   3.354   3.966   2.299 -1.0983  0.5489  0.6959
15855TIP3   OH268979   5.365   3.096   4.124  0.0741 -0.0403 -0.3332
15855TIP3    H168980   5.278   3.058   4.110  0.2706 -1.9254  2.9423
15855TIP3    H268981   5.352   3.157   4.197  1.3998  0.0844 -0.1973
15856TIP3   OH268982   6.028   0.567   2.314 -0.0378 -0.3352  0.1650
15856TIP3    H168983   5.980   0.597   2.236 -1.9011 -0.4443  1.2375
15856TIP3    H268984   6.058   0.479   2.291 -0.7754 -0.4587 -0.3686
15857TIP3   OH268985   5.818   3.408   3.756 -0.3730 -0.5033  0.2466
15857TIP3    H168986   5.752   3.407   3.687 -0.1792 -0.1036  0.0537
15857TIP3    H268987   5.876   3.335   3.735  0.0666  0.0184 -0.3886
15858TIP3   OH268988   4.973   4.582   0.189  0.5705 -0.5777  0.4588
15858TIP3    H168989   4.925   4.606   0.269 -0.4542 -0.7204 -0.1027
15858TIP3    H268990   4.964   4.659   0.132  2.4295  0.0487  0.9798
15859TIP3   OH268991   6.813   7.297   4.776  0.2796  0.2642  0.2234
15859TIP3    H168992   6.718   7.296   4.765  0.4534  2.0152 -1.6323
15859TIP3    H268993   6.839   7.206   4.764 -0.8887  0.1953 -2.0005
15860TIP3   OH268994   5.472   3.779   2.084  0.0329  0.2828  0.4601
15860TIP3    H168995   5.437   3.838   2.150  0.9891  1.7115 -0.2928
15860TIP3    H268996   5.395   3.742   2.041 -0.5727  0.8807  1.0177
15861TIP3   OH268997   6.200   3.235  15.870 -0.1637  0.3212  0.5046
15861TIP3    H168998   6.174   3.144  15.857  0.5964  0.0305  1.0179
15861TIP3    H268999   6.239   3.237  15.958 -0.4005  1.1879  0.6017
15862TIP3   OH269000   6.834   4.444   3.111 -0.4894  0.5276  0.2640
15862TIP3    H169001   6.745   4.413   3.096 -0.1314 -0.7253  0.6635
15862TIP3    H269002   6.831   4.538   3.092 -1.5895  0.2429 -0.9873
15863TIP3   OH269003   5.185   0.829   4.421 -0.8028 -0.3195  0.5033
15863TIP3    H169004   5.251   0.878   4.471  0.0448 -0.1056 -0.8037
15863TIP3    H269005   5.222   0.740   4.415 -0.2967 -0.0331 -0.8069
15864TIP3   OH269006   7.069   1.231   0.574  0.1667  0.3759 -0.3214
15864TIP3    H169007   7.074   1.135   0.583  1.3683  0.3612 -1.0139
15864TIP3    H269008   6.986   1.254   0.616 -0.3241 -1.0087 -0.4765
15865TIP3   OH269009   6.663   3.330   4.447 -0.0523  0.4729  0.5491
15865TIP3    H169010   6.661   3.255   4.507 -1.4779 -0.2591 -0.3983
15865TIP3    H269011   6.714   3.299   4.372 -0.0080  0.7066  0.4810
15866TIP3   OH269012   0.406   6.578   4.352 -0.5539 -0.0056 -0.4040
15866TIP3    H169013   0.352   6.528   4.291  0.8884  0.4294 -2.0393
15866TIP3    H269014   0.342   6.623   4.408 -1.8694 -1.8211 -0.4020
15867TIP3   OH269015   0.976   0.070   4.924 -0.6732  0.2769 -0.0304
15867TIP3    H169016   1.050   0.014   4.901  0.9685  1.8825  1.1823
15867TIP3    H269017   0.903   0.010   4.933  1.2418 -1.8184  2.1909
15868TIP3   OH269018   5.824   4.894   3.371  0.1161 -0.2799  0.6471
15868TIP3    H169019   5.760   4.824   3.386 -0.2074  0.0845  0.9863
15868TIP3    H269020   5.863   4.873   3.286 -1.8412  0.5460 -0.5142
15869TIP3   OH269021   6.450   5.563   1.271 -0.2624 -0.1076 -0.2227
15869TIP3    H169022   6.524   5.621   1.287 -1.5469  1.2323  0.9675
15869TIP3    H269023   6.388   5.616   1.221  0.2580 -1.7560 -2.7430
15870TIP3   OH269024   5.452   5.588   5.023 -0.1393 -0.0377 -0.1488
15870TIP3    H169025   5.416   5.672   5.051  1.8804  0.7544  0.2138
15870TIP3    H269026   5.456   5.595   4.928  1.8471  1.1027 -0.0165
15871TIP3   OH269027   3.361   3.766   4.335  0.1261 -0.2062 -0.0662
15871TIP3    H169028   3.419   3.785   4.261 -1.0684 -0.1614 -0.9937
15871TIP3    H269029   3.350   3.850   4.379  1.2124 -0.3232  0.4429
15872TIP3   OH269030   6.786   5.149  15.843  0.4422  0.3165  0.1930
15872TIP3    H169031   6.837   5.072  15.818 -1.1082  0.3448 -3.4905
15872TIP3    H269032   6.702   5.114  15.871  0.9085  0.5178  1.8977
15873TIP3   OH269033   2.813   6.981  14.656  0.1103  0.7420  0.2653
15873TIP3    H169034   2.877   6.958  14.723 -0.3837  2.0981  1.2080
15873TIP3    H269035   2.729   6.986  14.703 -0.4171  0.6867 -0.6477
15874TIP3   OH269036   5.782   3.495   4.546  0.3403  0.7743  0.1972
15874TIP3    H169037   5.740   3.465   4.466 -1.1418  1.2715  0.7544
15874TIP3    H269038   5.845   3.561   4.518 -0.4433  1.2150 -0.5205
15875TIP3   OH269039   0.088   3.683   3.588 -0.0423  0.7215  0.5155
15875TIP3    H169040   0.048   3.686   3.501 -0.3003  0.0370  0.6073
15875TIP3    H269041   0.037   3.618   3.635 -0.0852  1.3035  1.2773
15876TIP3   OH269042   1.349   6.753   5.065  0.2073  0.0710  0.3370
15876TIP3    H169043   1.432   6.749   5.114  0.8274 -1.7773 -0.8251
15876TIP3    H269044   1.319   6.663   5.062 -0.5946  0.3900 -1.4044
15877TIP3   OH269045   2.769   6.255   4.552 -0.6144  0.1424 -0.1966
15877TIP3    H169046   2.685   6.299   4.537 -0.4144  0.4569 -0.4033
15877TIP3    H269047   2.830   6.299   4.493 -0.4034 -0.3984 -0.3878
15878TIP3   OH269048   1.346   3.387   3.581 -0.0156  0.0386 -0.0623
15878TIP3    H169049   1.326   3.304   3.539 -0.1430  0.0539 -0.0327
15878TIP3    H269050   1.389   3.439   3.513 -0.0640  0.0004 -0.1219
15879TIP3   OH269051   5.480   1.472   4.096  0.3285 -0.3458  0.2904
15879TIP3    H169052   5.487   1.564   4.123 -1.2055 -0.0924 -0.1650
15879TIP3    H269053   5.391   1.446   4.121 -0.0570 -1.0159 -1.7304
15880TIP3   OH269054   0.379   0.917   2.488  0.5754 -0.2884  0.4535
15880TIP3    H169055   0.375   0.907   2.583 -0.1520 -1.6247  0.2898
15880TIP3    H269056   0.320   0.990   2.470  0.9264  0.1525  1.0401
15881TIP3   OH269057   5.613   6.317   2.326 -0.5497 -0.4024 -0.2631
15881TIP3    H169058   5.678   6.348   2.389  0.1205 -2.2230 -0.0350
15881TIP3    H269059   5.533   6.307   2.377 -0.4782 -0.1428 -0.0969
15882TIP3   OH269060   3.783   5.026   4.985 -0.2518  0.2403 -0.5449
15882TIP3    H169061   3.708   5.023   5.045 -0.4510  2.5834 -0.6465
15882TIP3    H269062   3.847   5.082   5.028  0.3241  0.4990 -1.7146
15883TIP3   OH269063   1.667   3.149   3.629  0.3606  0.1355  0.1978
15883TIP3    H169064   1.589   3.115   3.672 -0.5083  1.3817 -0.3993
15883TIP3    H269065   1.723   3.071   3.618 -1.7104 -1.1835 -1.3942
15884TIP3   OH269066   2.085   6.894   4.173  0.5353  0.2192  0.5245
15884TIP3    H169067   2.024   6.834   4.130  0.5738 -0.1129  0.9285
15884TIP3    H269068   2.114   6.953   4.103  0.3631 -0.1207  0.1641
15885TIP3   OH269069   5.807   0.721   0.741 -0.5344  0.5868  0.3146
15885TIP3    H169070   5.830   0.649   0.683  1.3909  1.0326  0.4934
15885TIP3    H269071   5.803   0.683   0.828 -1.1943  0.3711  0.1941
15886TIP3   OH269072   1.172   3.931   1.956  0.4019 -0.1145  0.2525
15886TIP3    H169073   1.166   3.990   2.031 -0.1019 -0.6585  0.6533
15886TIP3    H269074   1.249   3.876   1.974 -0.0150 -0.5831  0.6279
15887TIP3   OH269075   0.891   5.020   3.704  0.4228  0.6873  0.0264
15887TIP3    H169076   0.866   4.977   3.786  0.5083 -1.8913 -1.2448
15887TIP3    H269077   0.983   5.043   3.716  1.4589 -2.7797 -0.5131
15888TIP3   OH269078   4.522   1.697   2.921  0.6556 -0.3734  0.1825
15888TIP3    H169079   4.509   1.733   3.008  0.4010  1.3938 -0.5612
15888TIP3    H269080   4.439   1.712   2.875  0.6319 -1.6766 -0.2515
15889TIP3   OH269081   1.915   2.029   4.511  0.2743 -0.2505 -0.4956
15889TIP3    H169082   1.966   2.017   4.591 -1.5962 -2.3816  0.4547
15889TIP3    H269083   1.976   2.008   4.440  1.1865 -1.1018  0.5191
15890TIP3   OH269084   6.686   7.180   0.540 -0.2341 -0.3035 -0.1212
15890TIP3    H169085   6.668   7.157   0.449  0.3611 -1.8051  0.1242
15890TIP3    H269086   6.763   7.128   0.563  0.1542  0.7391  0.9685
15891TIP3   OH269087   4.263   3.055   2.805  0.7433  0.2117 -0.4384
15891TIP3    H169088   4.206   3.087   2.734 -1.2869 -0.6902  0.7664
15891TIP3    H269089   4.280   3.132   2.859  0.9123  0.5332 -0.9417
15892TIP3   OH269090   1.099   2.987   3.439 -0.2999  0.2543  0.2724
15892TIP3    H169091   1.091   2.949   3.352  0.4660  0.3126  0.1661
15892TIP3    H269092   1.029   2.947   3.490 -0.9583  0.4642 -0.4547
15893TIP3   OH269093   0.373   2.983   2.963 -0.2064 -0.1928 -0.2312
15893TIP3    H169094   0.311   2.938   3.020 -0.9861  2.3290  1.0092
15893TIP3    H269095   0.450   2.998   3.018 -0.2053  0.5501 -0.4240
15894TIP3   OH269096   5.410   3.359  15.987  0.0173  0.2367  0.4002
15894TIP3    H169097   5.325   3.353  16.032  0.0137  1.6873  0.6317
15894TIP3    H269098   5.473   3.376  16.057  0.2459  0.8561  0.0506
15895TIP3   OH269099   6.592   4.547   2.782  0.6933 -0.0289 -0.0441
15895TIP3    H169100   6.527   4.488   2.822  0.4280  0.3225  0.0538
15895TIP3    H269101   6.545   4.630   2.774  1.7549  0.7839  1.8725
15896TIP3   OH269102   5.799   3.189   2.648  0.2116  0.4346 -0.0776
15896TIP3    H169103   5.805   3.282   2.671  0.4244 -0.2554  2.7773
15896TIP3    H269104   5.712   3.163   2.678  0.5365 -0.5217  0.0565
15897TIP3   OH269105   1.269   6.661   1.480  0.2588 -0.4302  0.1216
15897TIP3    H169106   1.191   6.613   1.451  1.6624 -1.8355 -1.4177
15897TIP3    H269107   1.258   6.669   1.575 -0.9237 -2.1272  0.1533
15898TIP3   OH269108   1.112   4.364   4.517 -0.1613  0.7171  0.3802
15898TIP3    H169109   1.203   4.382   4.493  0.2442  0.9751  2.0852
15898TIP3    H269110   1.117   4.319   4.601 -1.6791  2.3130  1.3746
15899TIP3   OH269111   1.985   2.462   4.559  0.1054 -0.5205  0.1381
15899TIP3    H169112   1.985   2.513   4.478 -5.0961  1.3101  1.1099
15899TIP3    H269113   2.043   2.510   4.618  0.2036  0.7464 -0.9796
15900TIP3   OH269114   6.172   5.933   3.049 -0.3025  0.1978  0.2315
15900TIP3    H169115   6.211   5.863   2.997 -2.6755 -0.6233 -0.4986
15900TIP3    H269116   6.078   5.919   3.042 -0.7737  2.4572  1.4937
15901TIP3   OH269117   6.420   1.897   4.641  0.1776 -0.4270 -0.2339
15901TIP3    H169118   6.400   1.876   4.550  3.3763  0.1398 -1.1409
15901TIP3    H269119   6.347   1.951   4.669 -2.0707 -2.6126 -1.6744
15902TIP3   OH269120   0.165   5.376   5.565  0.0346 -0.0965 -0.0344
15902TIP3    H169121   0.151   5.370   5.660 -1.4461  0.9373 -0.1797
15902TIP3    H269122   0.256   5.349   5.553  0.7648  1.3454  1.8863
15903TIP3   OH269123   2.255   0.135   1.166 -0.7297  0.2942 -0.3410
15903TIP3    H169124   2.348   0.117   1.183 -0.8950 -0.8713 -0.6203
15903TIP3    H269125   2.234   0.210   1.221 -0.5612 -1.7126  2.5587
15904TIP3   OH269126   1.301   6.322   1.493 -0.0428  0.5943  0.1229
15904TIP3    H169127   1.307   6.334   1.588 -0.0003  0.9841  0.0695
15904TIP3    H269128   1.314   6.228   1.481  0.3924  0.6065  0.4685
15905TIP3   OH269129   0.909   6.510   5.249 -0.7064 -0.0478  0.2308
15905TIP3    H169130   0.841   6.448   5.275  0.0526 -0.9141  0.1435
15905TIP3    H269131   0.900   6.582   5.311 -2.1191  0.1371 -0.1653
15906TIP3   OH269132   1.149   2.439   1.595  0.3664 -0.5809  0.1143
15906TIP3    H169133   1.204   2.369   1.630  0.0411 -1.1939 -0.5837
15906TIP3    H269134   1.163   2.435   1.500 -0.6520 -0.5567 -0.0405
15907TIP3   OH269135   4.266   6.211   3.278 -0.2234 -0.0028 -0.5918
15907TIP3    H169136   4.362   6.212   3.279 -0.2229  1.4843  0.1703
15907TIP3    H269137   4.243   6.135   3.331  0.5427 -0.6492 -1.1770
15908TIP3   OH269138   1.868   7.013   3.285  0.3039 -0.0631  0.1168
15908TIP3    H169139   1.927   7.088   3.290 -0.5804  0.5568  1.7496
15908TIP3    H269140   1.923   6.938   3.307  0.3209  0.6336  2.7143
15909TIP3   OH269141   0.509   5.873   1.354 -0.3557 -0.1468  0.1408
15909TIP3    H169142   0.498   5.792   1.403  0.6990 -0.4195 -0.0666
15909TIP3    H269143   0.420   5.899   1.330 -0.6525 -1.5562 -0.2961
15910TIP3   OH269144   6.601   0.398   5.276 -0.2982  0.4459 -0.6812
15910TIP3    H169145   6.533   0.433   5.219 -1.6350 -1.2284 -0.1594
15910TIP3    H269146   6.581   0.304   5.284  2.9867 -0.4382 -1.7905
15911TIP3   OH269147   2.945   6.973   2.213 -0.0463  0.1869  0.6339
15911TIP3    H169148   3.025   7.005   2.255  0.2013  0.5680 -0.1315
15911TIP3    H269149   2.900   7.051   2.184 -2.2459  0.1935  3.7749
15912TIP3   OH269150   1.651   3.938   1.822  0.0975  0.3123 -0.1035
15912TIP3    H169151   1.690   4.004   1.765  1.0971 -0.2676 -0.1089
15912TIP3    H269152   1.559   3.963   1.829  0.2761  1.1879 -0.8322
15913TIP3   OH269153   0.362   4.315   4.705  0.2682 -0.0428 -0.0322
15913TIP3    H169154   0.309   4.240   4.731 -0.2084 -0.0056 -0.8971
15913TIP3    H269155   0.338   4.332   4.614  1.3129  0.3547 -0.2494
15914TIP3   OH269156   1.474   5.253   2.001 -0.7673 -0.2238  0.0869
15914TIP3    H169157   1.453   5.314   1.931 -0.0620  1.2056  1.0779
15914TIP3    H269158   1.491   5.309   2.077  4.1519 -1.3309 -0.0170
15915TIP3   OH269159   5.498   6.306   1.493  0.0037  0.1140 -0.0385
15915TIP3    H169160   5.418   6.343   1.456 -0.5590 -0.6427  0.4069
15915TIP3    H269161   5.509   6.222   1.448  1.3436  0.8664 -1.1468
15916TIP3   OH269162   5.466   1.944   0.356  0.4144  0.0897  0.3059
15916TIP3    H169163   5.483   1.869   0.300 -0.5673  1.7868 -2.3614
15916TIP3    H269164   5.385   1.982   0.322 -0.7122  0.6854  3.4516
15917TIP3   OH269165   5.238   0.105   3.507 -0.3133 -0.3370 -0.2966
15917TIP3    H169166   5.223   0.010   3.512  2.6968 -0.9335 -1.5079
15917TIP3    H269167   5.252   0.131   3.598  1.2474 -1.5523 -0.1437
15918TIP3   OH269168   1.570   2.144   4.161  0.0538  0.4791  0.2539
15918TIP3    H169169   1.533   2.140   4.250 -1.2100  1.0418 -0.2267
15918TIP3    H269170   1.573   2.053   4.132  0.1431  0.3236  0.7502
15919TIP3   OH269171   1.133   4.589  14.634  0.3790 -0.0912 -0.0772
15919TIP3    H169172   1.182   4.513  14.665  2.9660  0.4402 -2.5891
15919TIP3    H269173   1.130   4.648  14.709 -0.8692 -2.2503  1.6187
15920TIP3   OH269174   1.414   5.378   1.766 -0.2792  0.3433  0.2174
15920TIP3    H169175   1.450   5.333   1.689  0.8268  0.9762  0.3541
15920TIP3    H269176   1.326   5.403   1.740 -0.9291 -1.9113  0.1381
15921TIP3   OH269177   0.220   0.488   2.582 -0.1746 -0.8600 -0.3678
15921TIP3    H169178   0.300   0.437   2.566  0.7343  0.5371 -0.3409
15921TIP3    H269179   0.187   0.508   2.494 -0.0737 -0.7641 -0.3833
15922TIP3   OH269180   6.903   0.013   1.782 -0.0377  0.1940 -0.6408
15922TIP3    H169181   6.940  -0.067   1.746  0.7051  0.8805 -1.4402
15922TIP3    H269182   6.976   0.058   1.823 -0.9400 -0.7155  2.0358
15923TIP3   OH269183   0.675   6.424   5.407  0.0640  0.3886 -0.1391
15923TIP3    H169184   0.757   6.385   5.436 -0.4426 -0.1887  0.5520
15923TIP3    H269185   0.607   6.377   5.457 -0.7498  0.1648 -1.4250
15924TIP3   OH269186   3.828   3.780   1.469 -0.9315  0.4357  0.5889
15924TIP3    H169187   3.893   3.849   1.481 -0.2869 -0.0483 -0.1342
15924TIP3    H269188   3.807   3.782   1.376  0.5521 -1.6453  0.1965
15925TIP3   OH269189   1.053   3.040   2.777 -0.2432 -0.0319  0.0657
15925TIP3    H169190   1.036   2.965   2.833 -2.2737  1.1295  1.0803
15925TIP3    H269191   1.036   3.116   2.833 -1.2695  1.1610 -1.8175
15926TIP3   OH269192   1.106   1.177   4.883  0.0610 -0.2590  0.3379
15926TIP3    H169193   1.090   1.233   4.959  3.0633 -0.8623  1.4950
15926TIP3    H269194   1.120   1.089   4.920 -4.2960 -1.8579 -1.4182
15927TIP3   OH269195   2.361   5.373   1.331 -0.1485  0.5037 -0.9308
15927TIP3    H169196   2.293   5.372   1.264 -0.1963  0.4290 -0.8800
15927TIP3    H269197   2.359   5.463   1.365 -1.0223  0.1780 -0.1055
15928TIP3   OH269198   1.768   1.810   0.882  0.4151 -0.5507 -0.4261
15928TIP3    H169199   1.804   1.722   0.882 -1.7255 -1.4777 -1.8177
15928TIP3    H269200   1.809   1.853   0.808  1.5149 -0.3309  0.2959
15929TIP3   OH269201   4.161   0.162   2.496  0.0869  0.4768 -0.1043
15929TIP3    H169202   4.162   0.253   2.467 -0.5849 -0.4664 -3.3015
15929TIP3    H269203   4.091   0.158   2.560 -0.2077  2.1027 -0.2995
15930TIP3   OH269204   3.786   1.532   4.386 -0.0642 -0.3107 -0.4464
15930TIP3    H169205   3.877   1.535   4.413 -0.6850 -0.0627  1.6537
15930TIP3    H269206   3.767   1.439   4.374  0.2556 -0.4037 -0.2151
15931TIP3   OH269207   6.835   0.792   0.532  0.0931 -0.6089 -0.2756
15931TIP3    H169208   6.752   0.799   0.579 -0.6754  0.8563 -1.7941
15931TIP3    H269209   6.810   0.778   0.441  1.5526 -2.6310 -0.3913
15932TIP3   OH269210   0.707   0.646   2.774  0.2724 -0.6948  1.1251
15932TIP3    H169211   0.706   0.737   2.743  0.5634 -0.6171  1.3430
15932TIP3    H269212   0.667   0.649   2.860 -0.3061 -0.8744  0.8648
15933TIP3   OH269213   1.265   1.200   3.730  0.4179 -0.1590 -0.3263
15933TIP3    H169214   1.282   1.138   3.801  1.5547 -0.4055 -0.8127
15933TIP3    H269215   1.240   1.146   3.656 -1.0632  0.1168 -0.0502
15934TIP3   OH269216   1.597   5.690   2.225  0.1228  0.1229 -0.5579
15934TIP3    H169217   1.565   5.778   2.205  1.7368  0.7171 -0.6046
15934TIP3    H269218   1.663   5.702   2.293 -0.0331 -1.1120 -0.1626
15935TIP3   OH269219   1.465   1.851   2.511 -0.4322 -0.4094  0.6987
15935TIP3    H169220   1.392   1.810   2.558  1.1078 -2.1925  1.6002
15935TIP3    H269221   1.540   1.794   2.530  0.9787  0.8543 -1.0096
15936TIP3   OH269222   0.854   6.838   1.644  0.1333  0.2453  0.3288
15936TIP3    H169223   0.866   6.784   1.566  0.5339 -0.2519  0.7389
15936TIP3    H269224   0.926   6.901   1.642 -1.4572  2.1198 -1.2497
15937TIP3   OH269225   0.570   4.447   3.461 -0.4154 -0.0764 -0.4291
15937TIP3    H169226   0.640   4.434   3.524  1.5706 -2.4636 -3.0031
15937TIP3    H269227   0.601   4.518   3.405 -0.6826 -0.2160 -0.7547
15938TIP3   OH269228   1.465   4.887   3.326  0.6235  0.1563 -0.1165
15938TIP3    H169229   1.487   4.871   3.234  0.6652  1.9562 -0.4339
15938TIP3    H269230   1.373   4.861   3.334 -0.1548  2.4326 -1.3160
15939TIP3   OH269231   3.532   0.395   2.542 -0.0579 -0.2518 -0.0740
15939TIP3    H169232   3.459   0.456   2.528 -0.0404  0.1429  1.4364
15939TIP3    H269233   3.565   0.376   2.454 -1.1270  0.6152 -0.6761
15940TIP3   OH269234   2.402   5.643   1.450  0.0460  0.0841  0.4790
15940TIP3    H169235   2.465   5.580   1.486  0.4494 -0.2013 -0.6815
15940TIP3    H269236   2.343   5.663   1.523  0.4720 -0.9326  1.1158
15941TIP3   OH269237   2.042   4.160   1.914  0.0762 -0.1699  0.4517
15941TIP3    H169238   2.053   4.254   1.927 -1.5667  0.0770  0.2152
15941TIP3    H269239   2.095   4.140   1.837 -0.1545  0.7008  0.0620
15942TIP3   OH269240   6.531   5.025   2.454  0.3222 -0.4278 -0.4644
15942TIP3    H169241   6.455   4.969   2.440  0.6833 -0.6478 -1.6032
15942TIP3    H269242   6.600   4.965   2.484  0.3577 -0.4020 -0.4950
15943TIP3   OH269243   2.540   4.802   3.185 -0.6449 -0.0354  0.5263
15943TIP3    H169244   2.464   4.778   3.132 -1.0285  0.3822  0.8827
15943TIP3    H269245   2.507   4.808   3.274 -0.1149 -0.1984  0.7365
15944TIP3   OH269246   1.364   1.114   2.892 -0.6889  0.5915 -0.2533
15944TIP3    H169247   1.399   1.098   2.980  0.0056  0.0751 -0.6227
15944TIP3    H269248   1.294   1.177   2.906 -0.0069  1.1828  0.5767
15945TIP3   OH269249   1.314   4.086   2.428  0.3547  0.8305 -0.2820
15945TIP3    H169250   1.360   4.040   2.358  1.0879  0.5786  0.3651
15945TIP3    H269251   1.372   4.158   2.453  0.3243  0.6201  0.4084
15946TIP3   OH269252   5.846   6.387   2.454  0.5099  0.4403  0.2138
15946TIP3    H169253   5.900   6.357   2.380 -0.4014 -0.4493 -0.0991
15946TIP3    H269254   5.841   6.482   2.443 -0.2943  0.2275 -1.3357
15947TIP3   OH269255   0.177   0.239  15.253 -0.6708 -0.1768  0.2363
15947TIP3    H169256   0.124   0.307  15.211  0.0443  0.5730  0.5462
15947TIP3    H269257   0.133   0.157  15.230 -1.5114  0.3865 -0.1721
15948TIP3   OH269258   7.042   2.957   1.787  0.1410 -0.6844 -0.3968
15948TIP3    H169259   7.085   2.922   1.708  0.1895 -0.3287 -0.5294
15948TIP3    H269260   7.063   2.894   1.856 -1.7193 -2.1674 -1.1309
15949TIP3   OH269261   0.495   5.060   3.998  0.2491 -0.2398 -0.2445
15949TIP3    H169262   0.423   5.029   3.944 -0.2626 -1.0735  0.9208
15949TIP3    H269263   0.453   5.099   4.075  1.0332 -0.7256  0.4395
15950TIP3   OH269264   1.374   1.008   3.909 -0.3614 -0.5661  0.4217
15950TIP3    H169265   1.397   0.975   3.996  1.6198  0.5583  0.3392
15950TIP3    H269266   1.454   1.001   3.859 -1.3579 -0.6919 -1.1768
15951TIP3   OH269267   2.490   7.105   1.427 -0.0913 -0.5637  0.2655
15951TIP3    H169268   2.502   7.043   1.498 -0.7719  0.7240  1.5503
15951TIP3    H269269   2.538   7.183   1.454 -1.1989  0.3050 -0.2019
15952TIP3   OH269270   2.147   2.144   2.901  0.1212  0.1442 -0.0386
15952TIP3    H169271   2.092   2.142   2.980  0.4293 -1.8082  0.1388
15952TIP3    H269272   2.188   2.058   2.898  0.0619  0.1746 -2.3881
15953TIP3   OH269273   0.663   1.392   3.090  0.0497  0.1801  0.1917
15953TIP3    H169274   0.575   1.430   3.097 -0.8484 -0.9498 -3.8569
15953TIP3    H269275   0.688   1.405   2.999  3.2952 -1.2981  0.7972
15954TIP3   OH269276   0.361   5.807   1.883  0.4342  0.2165  0.0500
15954TIP3    H169277   0.381   5.720   1.849 -3.0484  0.1001 -1.9466
15954TIP3    H269278   0.306   5.792   1.959  2.4446  0.6602  1.6385
15955TIP3   OH269279   1.705   1.697   2.610  0.2218  0.0215 -0.0754
15955TIP3    H169280   1.758   1.732   2.682 -0.8212  0.5172  0.4642
15955TIP3    H269281   1.768   1.677   2.541  1.1168  0.5325  0.5844
15956TIP3   OH269282   3.700   4.780   0.682 -0.3684 -0.4861  0.7741
15956TIP3    H169283   3.654   4.698   0.701  0.1243 -0.6391  1.3188
15956TIP3    H269284   3.661   4.811   0.600 -0.8935 -1.0144  0.8204
15957TIP3   OH269285   0.729   6.083   1.761  0.1574  0.1033  0.1260
15957TIP3    H169286   0.663   6.016   1.741 -0.5964  1.1069 -0.7592
15957TIP3    H269287   0.753   6.120   1.676 -0.1139  1.6007  0.6877
15958TIP3   OH269288   2.941   6.594   1.026  0.3692  0.2253 -0.8078
15958TIP3    H169289   2.903   6.671   0.985 -2.3134  0.0151  1.1424
15958TIP3    H269290   2.931   6.609   1.120  0.9077 -1.9572 -0.3633
15959TIP3   OH269291   6.807   5.112   2.984  0.2256  0.0117 -0.0729
15959TIP3    H169292   6.897   5.121   2.954  0.2820  1.5913  0.5276
15959TIP3    H269293   6.772   5.201   2.982 -1.3467 -0.5903 -0.3617
15960TIP3   OH269294   2.274   0.952   4.168 -0.6945 -0.0723 -0.3636
15960TIP3    H169295   2.313   0.947   4.255 -0.4226 -0.6950 -0.5123
15960TIP3    H269296   2.309   0.875   4.122 -2.4084 -0.8725 -0.3724
15961TIP3   OH269297   2.083   0.805   3.505  0.6887  0.5848  0.0164
15961TIP3    H169298   1.987   0.800   3.502  0.7506 -0.1055 -1.1083
15961TIP3    H269299   2.106   0.779   3.595 -0.0998 -0.6636 -0.1350
15962TIP3   OH269300   0.431   0.663   3.326 -0.0485 -0.2928  0.4753
15962TIP3    H169301   0.470   0.746   3.301  0.3762  0.2750  2.9174
15962TIP3    H269302   0.345   0.663   3.283 -0.0397  1.3924  0.4356
15963TIP3   OH269303   2.225   1.570   2.338 -0.2375 -0.2607  0.2313
15963TIP3    H169304   2.282   1.520   2.397  0.1119  0.3696  0.4438
15963TIP3    H269305   2.256   1.549   2.250  2.5441  2.6042  0.4288
15964TIP3   OH269306   0.184   5.517   2.607 -0.6151 -0.5150  0.2817
15964TIP3    H169307   0.175   5.604   2.568 -1.6234 -0.7042  0.0915
15964TIP3    H269308   0.223   5.534   2.693  1.1452 -0.0625 -0.5729
15965TIP3   OH269309   0.434   5.143   0.334 -0.3583  0.2826 -0.4448
15965TIP3    H169310   0.426   5.081   0.262  2.9843 -0.1956 -0.4746
15965TIP3    H269311   0.435   5.089   0.413 -0.9040  0.5773 -0.2323
15966TIP3   OH269312   0.173   7.033   2.910  0.4121 -0.1500  0.5998
15966TIP3    H169313   0.156   7.059   2.819  0.1884  0.7696  0.8932
15966TIP3    H269314   0.171   6.938   2.909 -0.2269 -0.1319 -0.2451
15967TIP3   OH269315   3.423   1.966  14.994  0.1950  0.1574 -0.3964
15967TIP3    H169316   3.430   1.874  15.018  0.0110  0.3315  0.3346
15967TIP3    H269317   3.512   2.001  15.004  0.5126 -0.2008 -1.7950
15968TIP3   OH269318   2.744   0.336   3.337 -0.1951  0.3290  0.0651
15968TIP3    H169319   2.744   0.389   3.258  1.1019 -0.9886 -0.8402
15968TIP3    H269320   2.681   0.266   3.319  2.6058 -1.9794 -1.2423
15969TIP3   OH269321   7.038   0.164   3.205  0.0700 -0.4747 -0.2438
15969TIP3    H169322   7.067   0.107   3.134 -0.5149  1.3982 -2.0436
15969TIP3    H269323   7.116   0.175   3.261  1.1390 -0.3500 -1.7208
15970TIP3   OH269324   7.017   6.139   2.936 -0.1957  0.0516 -0.9351
15970TIP3    H169325   7.105   6.115   2.965 -0.8154  0.5421  1.4253
15970TIP3    H269326   7.005   6.090   2.854  0.8285 -3.0780  0.6909
15971TIP3   OH269327   1.420   4.288   5.323 -0.2804  0.2087  0.3908
15971TIP3    H169328   1.487   4.230   5.358 -2.7326 -3.0396 -0.1274
15971TIP3    H269329   1.415   4.266   5.230 -1.8182  0.6641  0.3549
15972TIP3   OH269330   2.878   6.541   5.583  0.4918  0.3331  0.2731
15972TIP3    H169331   2.806   6.490   5.545 -1.3958  3.6797 -0.8807
15972TIP3    H269332   2.913   6.485   5.653 -2.1690 -2.0483 -0.2101
15973TIP3   OH269333   2.305   7.155   3.137  0.5599  0.4401  0.1331
15973TIP3    H169334   2.251   7.218   3.089 -0.2381 -2.1426 -2.5155
15973TIP3    H269335   2.248   7.123   3.206 -0.4954 -0.4563 -1.1331
15974TIP3   OH269336   3.198   2.459   2.555 -0.1492  0.1214  0.5116
15974TIP3    H169337   3.211   2.428   2.465 -0.3027 -0.1484  0.5801
15974TIP3    H269338   3.286   2.458   2.593 -0.2420 -0.8732  0.7150
15975TIP3   OH269339   0.101   0.227   1.985  0.0026 -0.3591  0.5790
15975TIP3    H169340   0.157   0.301   1.963  0.3892 -0.8257 -0.0499
15975TIP3    H269341   0.149   0.179   2.052 -0.0298 -0.2905  0.6502
15976TIP3   OH269342   5.982   4.077   3.109  0.1960 -0.3604 -0.3722
15976TIP3    H169343   6.037   4.101   3.184  1.1265 -0.7941 -0.9096
15976TIP3    H269344   6.043   4.041   3.045 -0.6653 -0.4599 -1.1448
15977TIP3   OH269345   1.962   4.797   2.515 -0.3017  0.4931  1.0401
15977TIP3    H169346   1.883   4.845   2.536 -1.6016 -1.4141  0.6335
15977TIP3    H269347   2.021   4.863   2.478 -3.1946  1.2450 -2.5317
15978TIP3   OH269348   1.360   7.131   2.085 -0.4554  0.4189  0.2907
15978TIP3    H169349   1.427   7.199   2.082  0.8397 -0.8683 -0.4758
15978TIP3    H269350   1.400   7.056   2.042 -1.1054 -1.5188  2.9578
15979TIP3   OH269351   5.379   6.527   3.546 -0.0997  0.2227  0.3793
15979TIP3    H169352   5.447   6.528   3.478 -0.2025  0.6574  0.2807
15979TIP3    H269353   5.410   6.590   3.611  0.6635 -1.1736  1.3961
15980TIP3   OH269354   6.181   0.393   1.448  0.1695 -0.5681 -0.1125
15980TIP3    H169355   6.187   0.423   1.357  1.6967 -1.3356 -0.2869
15980TIP3    H269356   6.088   0.402   1.470  0.0239  1.0070 -1.2670
15981TIP3   OH269357   2.247   5.426   2.926 -0.0263 -0.1899  0.4570
15981TIP3    H169358   2.175   5.414   2.863  1.0692 -1.1174 -0.6494
15981TIP3    H269359   2.251   5.342   2.973  0.0267  0.0272  0.8366
15982TIP3   OH269360   0.464   0.261   1.650  0.5674 -0.0855  0.2095
15982TIP3    H169361   0.461   0.352   1.619  0.6570  0.0536  0.6034
15982TIP3    H269362   0.409   0.213   1.588 -0.6510  0.4912  0.8277
15983TIP3   OH269363   1.056   6.890   4.866 -0.3708  0.0800 -0.3663
15983TIP3    H169364   1.133   6.834   4.878 -1.0719 -0.9126 -0.4969
15983TIP3    H269365   1.080   6.972   4.909  1.1756  0.1547 -1.3194
15984TIP3   OH269366   3.000   0.577   2.179 -0.3165 -0.1634  0.2427
15984TIP3    H169367   3.021   0.670   2.189  0.9427 -0.3198 -0.8155
15984TIP3    H269368   3.045   0.534   2.252 -0.6392  0.0291  0.5520
15985TIP3   OH269369   3.418   5.910   3.291 -0.2558  0.4129 -0.6750
15985TIP3    H169370   3.335   5.948   3.318 -0.7267 -2.3339  2.1376
15985TIP3    H269371   3.484   5.967   3.329 -0.9066  0.6580  0.0966
15986TIP3   OH269372   0.285   0.719   5.207 -0.2734  0.1061  0.1428
15986TIP3    H169373   0.342   0.796   5.209 -1.4032  1.0788 -2.6826
15986TIP3    H269374   0.209   0.745   5.259 -1.1906  1.4026 -1.7773
15987TIP3   OH269375   1.674   1.008   6.074 -0.6086 -0.4712  0.0628
15987TIP3    H169376   1.678   0.922   6.114  0.2197 -0.7254 -0.5672
15987TIP3    H269377   1.638   1.064   6.143 -2.0893 -1.5033  0.1418
15988TIP3   OH269378   5.158   6.457   1.942  0.2700  0.3112 -0.3622
15988TIP3    H169379   5.241   6.500   1.962  0.1361  0.0020  0.9012
15988TIP3    H269380   5.107   6.463   2.023 -0.7443  0.0450 -0.9692
15989TIP3   OH269381   2.165   4.977  14.951  0.2558  0.2822  0.0867
15989TIP3    H169382   2.116   4.939  15.024  1.2059 -0.4307  0.3710
15989TIP3    H269383   2.098   5.002  14.888 -0.7689  3.4171  2.3290
15990TIP3   OH269384   6.649   1.058   0.054 -0.4535 -0.2727 -0.0289
15990TIP3    H169385   6.637   1.151   0.036  2.9513  0.2547  0.2105
15990TIP3    H269386   6.639   1.015  -0.031 -1.3001  0.3581 -0.2566
15991TIP3   OH269387   2.059   0.036   4.044  0.1103 -0.0135  0.2578
15991TIP3    H169388   2.113  -0.040   4.063  2.0112  0.7386 -1.8883
15991TIP3    H269389   2.103   0.109   4.087  0.7576  0.5760 -1.3533
15992TIP3   OH269390   1.247   7.119   4.585 -0.0070  0.2402 -0.2775
15992TIP3    H169391   1.265   7.064   4.508 -1.1516 -1.2895  0.5150
15992TIP3    H269392   1.324   7.175   4.593  0.1153  0.4482 -2.5583
15993TIP3   OH269393   5.918   0.141   3.740  0.1118 -0.3747 -0.3804
15993TIP3    H169394   5.969   0.219   3.762 -0.2033 -0.2089 -0.2289
15993TIP3    H269395   5.892   0.105   3.825 -0.8074  0.0650 -0.4621
15994TIP3   OH269396   0.288   6.126   0.329 -0.2812  0.3794  0.2831
15994TIP3    H169397   0.252   6.107   0.416 -1.3190 -1.4267 -0.4966
15994TIP3    H269398   0.221   6.179   0.286 -0.2366  0.3903  0.2258
15995TIP3   OH269399   2.646   6.771  15.566 -0.0422  0.3495 -0.0451
15995TIP3    H169400   2.646   6.847  15.508 -1.1976  0.3764 -0.0190
15995TIP3    H269401   2.554   6.746  15.573  0.0040  0.7614  2.3251
15996TIP3   OH269402   3.367   7.042   4.516  0.0068  0.1980  0.1227
15996TIP3    H169403   3.365   7.091   4.598 -1.4132 -1.7948  1.3457
15996TIP3    H269404   3.276   7.015   4.503  0.6964 -1.8110 -0.6563
15997TIP3   OH269405   2.044   6.282   2.178 -0.7272  0.2038 -0.0885
15997TIP3    H169406   1.986   6.288   2.102 -1.5984 -2.7823  0.2712
15997TIP3    H269407   2.106   6.212   2.155 -0.8644 -0.5791  1.8254
15998TIP3   OH269408   2.275   5.869   1.570 -0.1667  0.0306 -0.5493
15998TIP3    H169409   2.197   5.869   1.514 -0.6883  1.0504  0.1648
15998TIP3    H269410   2.242   5.887   1.658  0.8856  0.5538 -0.2527
15999TIP3   OH269411   3.443   2.524   2.692  0.2013 -0.1290  0.0395
15999TIP3    H169412   3.523   2.489   2.731  0.3125 -0.5366 -0.5525
15999TIP3    H269413   3.412   2.589   2.755  1.3865  0.5512 -0.0787
16000TIP3   OH269414   0.674   4.624   3.750 -0.2271  0.4849 -0.5165
16000TIP3    H169415   0.752   4.672   3.778 -2.0385  3.6567 -0.6248
16000TIP3    H269416   0.641   4.583   3.830  0.6172  0.5488 -0.1330
16001TIP3   OH269417   5.436   6.547   0.931 -0.2046  0.0524  0.1487
16001TIP3    H169418   5.340   6.557   0.933 -0.1276  0.6872  1.1402
16001TIP3    H269419   5.461   6.544   1.023  0.7119 -0.3636 -0.1141
16002TIP3   OH269420   5.271   0.648   3.060 -0.5258  0.2455  0.0869
16002TIP3    H169421   5.249   0.571   3.008  0.9204  0.0535 -0.2705
16002TIP3    H269422   5.227   0.720   3.016 -2.1615 -0.4082  0.6156
16003TIP3   OH269423   4.207   4.544   4.636  0.0817  0.1325  0.2811
16003TIP3    H169424   4.228   4.456   4.669  1.1370  0.7712  1.3730
16003TIP3    H269425   4.113   4.541   4.616 -0.2198 -0.7814  1.7795
16004TIP3   OH269426   1.709   6.132   5.518  0.2078 -0.6610 -0.0218
16004TIP3    H169427   1.661   6.083   5.452 -1.0114  0.0056  0.3594
16004TIP3    H269428   1.696   6.224   5.495  1.6208 -0.4651 -0.1295
16005TIP3   OH269429   3.984   0.044  12.336  0.5537  0.2413 -0.0942
16005TIP3    H169430   3.915   0.066  12.273 -0.4168  0.8223  1.1430
16005TIP3    H269431   4.064   0.081  12.298 -0.5901  3.6047  0.6156
16006TIP3   OH269432   3.003   6.778   1.975  0.1979  0.3512 -0.5198
16006TIP3    H169433   2.970   6.790   2.064  1.6111  1.5313 -0.1510
16006TIP3    H269434   3.044   6.691   1.976 -2.9890 -1.2550 -1.0434
16007TIP3   OH269435   1.249   5.107   1.173 -0.2927  0.2802 -0.1136
16007TIP3    H169436   1.239   5.164   1.096  3.2095  0.7349 -0.3393
16007TIP3    H269437   1.226   5.020   1.141 -1.7362  0.9198 -0.8693
16008TIP3   OH269438   3.119   2.227   4.521  0.2586  0.1398 -0.8448
16008TIP3    H169439   3.117   2.131   4.516 -0.3188  0.0483  0.7769
16008TIP3    H269440   3.212   2.248   4.530  0.2251 -0.4299  1.1114
16009TIP3   OH269441   4.076   4.212   4.078 -0.5896  0.2341  0.1439
16009TIP3    H169442   4.022   4.236   4.004  0.5771  0.6151 -0.5904
16009TIP3    H269443   4.084   4.292   4.130 -1.1280  0.0540  0.5086
16010TIP3   OH269444   2.088   0.764  14.681 -0.1330 -0.6559  0.0678
16010TIP3    H169445   2.149   0.749  14.753  0.4007 -1.6841 -0.6019
16010TIP3    H269446   2.126   0.720  14.606 -0.3597  0.9503 -1.0322
16011TIP3   OH269447   7.218   6.237   0.412  0.3985 -0.0072 -0.4800
16011TIP3    H169448   7.173   6.154   0.396 -0.8811  0.2629  1.4761
16011TIP3    H269449   7.229   6.240   0.507  0.9059  1.8308 -0.5815
16012TIP3   OH269450   0.778   1.367   3.603 -0.4319  0.0409  0.2352
16012TIP3    H169451   0.854   1.311   3.593 -0.6502 -0.3495  0.7746
16012TIP3    H269452   0.764   1.404   3.516 -0.0323 -0.4086 -0.0193
16013TIP3   OH269453   2.961   5.536   4.248  0.0525 -0.0830 -0.5980
16013TIP3    H169454   2.994   5.624   4.235 -1.1663  0.1913 -2.0799
16013TIP3    H269455   2.867   5.543   4.235 -0.1592 -1.4664  0.0191
16014TIP3   OH269456   1.315   2.777   0.459 -0.4252 -0.1219  0.1892
16014TIP3    H169457   1.235   2.828   0.472 -0.0155  0.1466  1.7879
16014TIP3    H269458   1.385   2.839   0.479  0.0970 -1.0876  1.4215
16015TIP3   OH269459   0.508   6.158   3.036 -0.3223 -0.2672 -0.0785
16015TIP3    H169460   0.604   6.158   3.042 -0.2221 -1.5707 -1.6329
16015TIP3    H269461   0.488   6.108   2.958 -2.3797 -2.6044  1.8497
16016TIP3   OH269462   5.101   7.137   3.722 -0.2652 -0.6219  0.2666
16016TIP3    H169463   5.154   7.151   3.643 -0.8035  0.5424  0.1016
16016TIP3    H269464   5.162   7.151   3.794 -0.5808  1.7628  0.0872
16017TIP3   OH269465   6.834   0.548  15.624  0.0564  0.0174 -0.2507
16017TIP3    H169466   6.902   0.563  15.690  0.7974  1.2402 -1.2807
16017TIP3    H269467   6.764   0.608  15.649  0.8310  1.3771 -1.2468
16018TIP3   OH269468   1.437   5.254   4.405  0.0850  0.3794  0.3138
16018TIP3    H169469   1.401   5.303   4.479 -1.0567 -0.8869  0.6033
16018TIP3    H269470   1.520   5.219   4.437  0.8684  2.0308  0.1354
16019TIP3   OH269471   0.733   1.454   2.837 -0.0076 -0.0768 -0.7495
16019TIP3    H169472   0.679   1.406   2.775 -0.7640 -0.0460 -0.1234
16019TIP3    H269473   0.696   1.543   2.837 -0.6193 -0.3298  0.4576
16020TIP3   OH269474   6.217   7.187   2.695  0.1714  0.4353  0.2178
16020TIP3    H169475   6.310   7.174   2.710  0.1602  1.1516  0.9244
16020TIP3    H269476   6.212   7.237   2.613  0.4771  1.7770  0.9999
16021TIP3   OH269477   4.110   3.443   1.630  0.0643 -0.3231 -0.5942
16021TIP3    H169478   4.162   3.452   1.550  2.8069  1.6644  1.3109
16021TIP3    H269479   4.169   3.400   1.692 -1.2367  0.2078  1.0455
16022TIP3   OH269480   0.929   3.015   4.028 -0.4611  0.0295  0.2680
16022TIP3    H169481   0.879   3.094   4.048 -0.8138  0.1091 -0.9107
16022TIP3    H269482   0.980   3.038   3.950 -0.4658 -0.8622  0.0010
16023TIP3   OH269483   2.157   6.923   5.944  0.1929 -0.4232  0.4084
16023TIP3    H169484   2.226   6.967   5.995  0.5226 -0.5623  0.0881
16023TIP3    H269485   2.184   6.831   5.942 -0.1349 -0.5225  0.4929
16024TIP3   OH269486   5.822   5.710   2.686 -0.3054  0.4046 -0.2279
16024TIP3    H169487   5.914   5.687   2.701 -0.0854  0.2555 -1.7148
16024TIP3    H269488   5.820   5.806   2.690  0.2052  0.4875 -1.7100
16025TIP3   OH269489   1.860   0.169   2.258 -0.0339 -0.2107 -0.5895
16025TIP3    H169490   1.916   0.161   2.335  0.1884 -0.6810 -0.8026
16025TIP3    H269491   1.813   0.252   2.271 -0.0413 -0.3199  0.0795
16026TIP3   OH269492   3.191   0.242   3.318  0.8799 -0.0726  0.2969
16026TIP3    H169493   3.216   0.325   3.276 -0.0275  0.5388  0.9486
16026TIP3    H269494   3.121   0.266   3.379  0.2857 -1.3965  0.1547
16027TIP3   OH269495   7.016   7.146   3.194  1.1012 -0.4529  0.4355
16027TIP3    H169496   6.974   7.084   3.133 -0.1265 -0.2612  1.0575
16027TIP3    H269497   7.052   7.215   3.138  0.5814 -0.6295 -0.1210
16028TIP3   OH269498   1.524   0.009   4.238 -0.2773 -0.3460  0.7256
16028TIP3    H169499   1.477   0.075   4.287 -1.4667  1.6245 -2.9130
16028TIP3    H269500   1.595   0.057   4.195  0.6352 -1.9864  0.3446
16029TIP3   OH269501   5.642   0.027   4.322 -0.7049 -0.9196 -0.5237
16029TIP3    H169502   5.579   0.057   4.256  0.5155  0.7235 -0.9681
16029TIP3    H269503   5.598  -0.047   4.364 -4.0197  1.7158  0.8757
16030TIP3   OH269504   1.864   5.686   1.459  0.5577  0.3514 -0.6390
16030TIP3    H169505   1.813   5.606   1.471  0.7156  0.1225 -1.5154
16030TIP3    H269506   1.953   5.656   1.441  0.5983  0.7293 -1.0626
16031TIP3   OH269507   4.955   6.455   4.657 -0.5022  0.4022  0.1855
16031TIP3    H169508   5.015   6.529   4.667 -0.7963  0.6418  0.2140
16031TIP3    H269509   4.939   6.426   4.747 -0.0056 -0.0030  0.1398
16032TIP3   OH269510   1.056   5.708   1.630 -0.2589  0.2288 -0.2493
16032TIP3    H169511   1.029   5.681   1.542 -0.5503 -0.0708 -0.0691
16032TIP3    H269512   1.013   5.792   1.645  0.9061  0.9594 -0.9416
16033TIP3   OH269513   0.996   6.498   2.461  0.2580 -0.0558 -0.4222
16033TIP3    H169514   1.078   6.473   2.419  0.0309  0.2825 -1.0695
16033TIP3    H269515   0.980   6.429   2.526  1.5921  0.4315  0.4416
16034TIP3   OH269516   1.148   7.210   2.976 -0.3765  0.0868  0.3406
16034TIP3    H169517   1.207   7.230   3.049  0.0099  1.3785 -0.2946
16034TIP3    H269518   1.094   7.289   2.967 -0.0115  0.1796 -1.1342
16035TIP3   OH269519   6.165   7.151   2.314  0.4174  0.3852 -0.4285
16035TIP3    H169520   6.096   7.099   2.274  3.1144 -1.7252 -2.5927
16035TIP3    H269521   6.216   7.089   2.365  1.1493  1.7678  0.5611
16036TIP3   OH269522   2.420   1.338   0.822  0.0531  0.0373  0.0852
16036TIP3    H169523   2.429   1.260   0.767  0.4314 -0.5352  0.9562
16036TIP3    H269524   2.490   1.330   0.887  0.6347  1.5267 -0.3328
16037TIP3   OH269525   6.068   5.371   1.778  0.1415 -0.3818  0.2048
16037TIP3    H169526   6.143   5.429   1.767 -1.3910  1.2672 -2.1540
16037TIP3    H269527   6.067   5.350   1.872  2.2057  1.3814  0.6589
16038TIP3   OH269528   1.619   1.481   1.114 -0.0125 -0.0808 -0.6072
16038TIP3    H169529   1.702   1.436   1.132 -0.2714 -0.8752 -1.3354
16038TIP3    H269530   1.637   1.533   1.035 -0.4687 -1.0073 -1.3350
16039TIP3   OH269531   1.453   5.142   3.634 -0.2828  0.1298  0.1222
16039TIP3    H169532   1.435   5.048   3.622  0.5093  0.2196 -1.9180
16039TIP3    H269533   1.540   5.145   3.675 -0.3980 -0.0293  0.3792
16040TIP3   OH269534   6.299   6.420   3.896 -0.1693  0.4805 -0.5006
16040TIP3    H169535   6.336   6.482   3.834  0.0228  0.5778 -0.2892
16040TIP3    H269536   6.362   6.347   3.897 -2.2068 -1.4434 -3.5494
16041TIP3   OH269537   0.119   6.291   3.548 -0.6307  0.4274  0.0786
16041TIP3    H169538   0.051   6.256   3.491 -0.1053 -0.5590  0.0626
16041TIP3    H269539   0.194   6.304   3.491 -0.0147 -0.8254  0.6083
16042TIP3   OH269540   6.720   6.144   4.455  0.2796 -0.3655 -0.1049
16042TIP3    H169541   6.645   6.102   4.413  0.0581 -0.5813  0.4885
16042TIP3    H269542   6.706   6.238   4.442 -0.3320 -0.3841  0.3774
16043TIP3   OH269543   6.780   5.898   3.582  0.2898 -0.2346 -0.0404
16043TIP3    H169544   6.853   5.958   3.568  0.4586 -0.2743  0.6619
16043TIP3    H269545   6.763   5.902   3.676 -2.2261  1.6178 -0.5313
16044TIP3   OH269546   0.418   6.941   4.515  0.7929  0.0353 -0.2326
16044TIP3    H169547   0.463   6.915   4.435 -0.1550 -0.5264 -0.5946
16044TIP3    H269548   0.325   6.930   4.495  0.5944 -2.2870  1.6483
16045TIP3   OH269549   0.026   6.451   3.743  0.1545  0.4064  0.2740
16045TIP3    H169550   0.069   6.398   3.675  1.9369 -1.2656  2.6234
16045TIP3    H269551   0.097   6.477   3.801 -1.2098  2.6805  0.9545
16046TIP3   OH269552   7.043   6.352   0.958  0.6006  0.0469 -0.1711
16046TIP3    H169553   7.013   6.436   0.994  1.1032  0.2132 -0.1363
16046TIP3    H269554   6.967   6.319   0.910  0.4577  0.6142 -0.3437
16047TIP3   OH269555   0.614   5.099   1.832 -0.1449 -0.0502  0.2775
16047TIP3    H169556   0.695   5.070   1.875 -1.2566 -2.5444  0.7974
16047TIP3    H269557   0.609   5.046   1.753 -1.3340 -0.0208  0.3313
16048TIP3   OH269558   0.903   1.482   4.387 -0.2012  0.2689  0.0210
16048TIP3    H169559   0.961   1.538   4.439 -0.7442 -0.5283  1.5147
16048TIP3    H269560   0.958   1.451   4.315  0.5537  1.4277  0.0829
16049TIP3   OH269561   1.187   4.444   5.261 -0.4974 -0.7970  0.2498
16049TIP3    H169562   1.172   4.368   5.205 -0.1211  0.3130 -1.3750
16049TIP3    H269563   1.261   4.419   5.316 -0.8340 -1.8720  0.2373
16050TIP3   OH269564   6.764   6.317   4.900  0.5827  0.0488  0.2921
16050TIP3    H169565   6.690   6.342   4.955 -0.1343 -1.5956  0.0845
16050TIP3    H269566   6.825   6.391   4.908 -0.7577  1.1051  1.0099
16051TIP3   OH269567   5.865   1.369   5.438 -0.5595  0.0315 -0.1995
16051TIP3    H169568   5.815   1.309   5.492 -2.1454 -1.8113 -3.5337
16051TIP3    H269569   5.801   1.432   5.406  0.9121  3.0087  2.4346
16052TIP3   OH269570   6.804   7.213   2.706  0.6208 -0.1264 -0.1337
16052TIP3    H169571   6.823   7.122   2.730  0.2972  0.1526  1.2349
16052TIP3    H269572   6.709   7.214   2.693  0.7157 -0.1362 -0.8323
16053TIP3   OH269573   2.611   6.452   4.440 -0.6654  0.2831  0.3789
16053TIP3    H169574   2.650   6.516   4.500 -0.1584 -0.8147  1.2440
16053TIP3    H269575   2.625   6.489   4.353 -0.1097  1.2005  0.8491
16054TIP3   OH269576   2.760   1.720   1.185 -0.2065 -0.2228 -0.4992
16054TIP3    H169577   2.720   1.636   1.161  1.7608 -1.1675 -0.5776
16054TIP3    H269578   2.687   1.773   1.218 -1.5075 -1.8968 -0.6239
16055TIP3   OH269579   3.829   5.255   0.412 -0.0737  0.2789 -0.5331
16055TIP3    H169580   3.771   5.226   0.482  3.5076 -2.6002  1.4043
16055TIP3    H269581   3.866   5.337   0.443 -1.2884  0.9171 -0.7463
16056TIP3   OH269582   4.290   6.202   5.149 -0.1466  0.1654  0.0564
16056TIP3    H169583   4.319   6.271   5.208 -0.2886 -1.0223  1.5313
16056TIP3    H269584   4.302   6.121   5.198  0.1060 -0.8848 -1.6869
16057TIP3   OH269585   3.234   5.984   1.344 -0.2071  0.4189 -0.2925
16057TIP3    H169586   3.218   5.903   1.393  0.7016  0.1818 -0.3872
16057TIP3    H269587   3.170   6.045   1.379 -0.6272 -0.2183  0.0737
16058TIP3   OH269588   2.964   6.880   3.086  0.2504 -0.1968 -0.1905
16058TIP3    H169589   3.031   6.814   3.104 -0.5077 -0.8467  0.2353
16058TIP3    H269590   2.930   6.905   3.172 -1.0166 -0.8695 -0.4898
16059TIP3   OH269591   0.293   5.270   2.502 -0.2237 -0.0542  0.2624
16059TIP3    H169592   0.246   5.220   2.436 -0.5617  0.4444  0.1181
16059TIP3    H269593   0.238   5.347   2.517  0.4399  0.4319  0.2411
16060TIP3   OH269594   1.063   0.502   4.336 -0.6536 -0.5016 -0.1383
16060TIP3    H169595   0.998   0.492   4.405 -0.3702 -0.1556  0.1825
16060TIP3    H269596   1.134   0.553   4.377 -0.3114 -0.6305 -0.5650
16061TIP3   OH269597   0.814   0.243   2.833  0.1842 -0.6076  0.2310
16061TIP3    H169598   0.764   0.272   2.909 -0.2203 -0.7692  0.0291
16061TIP3    H269599   0.788   0.304   2.763 -0.0137 -0.9239  0.0287
16062TIP3   OH269600   7.020   0.402   4.059 -0.3265 -0.4112 -0.0048
16062TIP3    H169601   6.957   0.441   4.120  0.7402  0.3697  0.6240
16062TIP3    H269602   7.042   0.317   4.097  2.2070  1.0943  2.0631
16063TIP3   OH269603   0.675   3.508   2.577  0.1837 -0.1196 -0.3467
16063TIP3    H169604   0.645   3.548   2.659  0.5369 -1.0749  0.2568
16063TIP3    H269605   0.752   3.456   2.602 -0.9495 -2.1089 -0.8998
16064TIP3   OH269606   6.459   0.474   4.524  0.6527  0.0509  0.1195
16064TIP3    H169607   6.458   0.455   4.618  0.4817  0.8099  0.2720
16064TIP3    H269608   6.390   0.538   4.512  1.8237  1.2636 -0.2378
16065TIP3   OH269609   5.955   0.934   5.231 -0.3250  0.6707 -0.3588
16065TIP3    H169610   5.902   0.924   5.152  1.7873 -1.0032 -1.6215
16065TIP3    H269611   5.989   1.024   5.227 -3.3704  1.9215  0.7195
16066TIP3   OH269612   1.923   0.709   2.736 -0.0813 -0.0901  0.6265
16066TIP3    H169613   1.914   0.799   2.770  1.4448 -0.1067  1.1084
16066TIP3    H269614   1.840   0.667   2.757 -2.5373  2.4130 -3.3592
16067TIP3   OH269615   6.678   0.312   3.806  0.1842 -0.2237 -0.1419
16067TIP3    H169616   6.651   0.308   3.714  0.8935  0.6634 -0.4050
16067TIP3    H269617   6.599   0.340   3.853  0.4395  1.7197 -0.8190
16068TIP3   OH269618   5.401   0.078   1.898  0.1576 -0.1288  0.3448
16068TIP3    H169619   5.375   0.123   1.978  0.4863  1.7793 -0.6016
16068TIP3    H269620   5.494   0.058   1.911 -0.7811 -3.7522  2.2242
16069TIP3   OH269621   5.514   4.111  15.030  0.1105  0.2156 -0.6829
16069TIP3    H169622   5.608   4.123  15.044 -0.0392 -1.2191  2.0162
16069TIP3    H269623   5.474   4.192  15.063  0.2503 -0.2523  0.6712
16070TIP3   OH269624   6.777   5.464   1.150 -0.6059 -0.0702 -0.2048
16070TIP3    H169625   6.832   5.501   1.081 -0.2439  2.3003  1.2943
16070TIP3    H269626   6.691   5.505   1.137 -0.6838 -0.0250  0.4124
16071TIP3   OH269627   6.692   2.283   4.300  0.4524  0.0823  0.3288
16071TIP3    H169628   6.783   2.255   4.291  0.6468  1.0309 -0.6882
16071TIP3    H269629   6.671   2.264   4.391  1.5413 -0.5259  0.4661
16072TIP3   OH269630   6.605   1.632   4.643  0.0873 -0.4258  0.0932
16072TIP3    H169631   6.541   1.562   4.655  0.5611 -0.9274 -0.2372
16072TIP3    H269632   6.553   1.712   4.642 -0.5436 -0.8304 -0.2506
16073TIP3   OH269633   1.578   6.115   2.299  0.3919  0.0354 -0.4246
16073TIP3    H169634   1.605   6.047   2.238  1.1545  0.8032 -0.9499
16073TIP3    H269635   1.540   6.184   2.244  1.2359  0.8040 -0.0639
16074TIP3   OH269636   2.334   6.886   0.348 -0.0825 -0.3006  0.4391
16074TIP3    H169637   2.312   6.901   0.440 -1.4273  0.3228  0.0396
16074TIP3    H269638   2.429   6.892   0.344 -0.0172 -0.3567  1.7978
16075TIP3   OH269639   7.142   3.169   3.347  0.7305 -0.8028 -0.1040
16075TIP3    H169640   7.197   3.219   3.408  1.1410 -0.7655 -0.4993
16075TIP3    H269641   7.171   3.197   3.261 -0.7211  0.0978 -0.3250
16076TIP3   OH269642   2.551   6.817   4.144  0.0056 -0.3347  0.1597
16076TIP3    H169643   2.574   6.806   4.051  1.0140  0.8996  0.2616
16076TIP3    H269644   2.587   6.739   4.186  0.7763 -0.2153 -0.2656
16077TIP3   OH269645   1.861   6.121   0.816 -0.1729  0.4578  0.2013
16077TIP3    H169646   1.951   6.142   0.842 -0.4151  2.3467 -0.4175
16077TIP3    H269647   1.820   6.088   0.896  0.8922  0.1578  0.6331
16078TIP3   OH269648   5.018   4.653   4.135  0.3456 -0.1300 -0.7743
16078TIP3    H169649   4.937   4.693   4.166  0.9777 -1.6331  3.1133
16078TIP3    H269650   5.003   4.559   4.144  2.4672 -0.4339 -0.1244
16079TIP3   OH269651   4.615   4.238   5.124  0.4416  0.5820  0.7393
16079TIP3    H169652   4.659   4.268   5.203  1.7100  2.8354 -0.7810
16079TIP3    H269653   4.678   4.255   5.053 -1.2869  0.1094 -0.9500
16080TIP3   OH269654   0.240   6.981   0.547  0.0738  0.3977  0.2720
16080TIP3    H169655   0.321   6.999   0.593  0.4509  0.0872 -0.2557
16080TIP3    H269656   0.172   7.026   0.597  0.3949 -0.4273  1.4553
16081TIP3   OH269657   0.013   5.423   5.336 -0.0007 -0.2643  0.6335
16081TIP3    H169658  -0.052   5.353   5.324  2.1433 -2.4277  1.1680
16081TIP3    H269659   0.071   5.390   5.405  1.6797  1.5805  0.1535
16082TIP3   OH269660   2.746   5.565   0.437  0.2285 -0.2930  0.7866
16082TIP3    H169661   2.788   5.597   0.357  0.4498 -0.6054  0.7760
16082TIP3    H269662   2.695   5.639   0.469 -0.6135 -0.4634 -0.1563
16083TIP3   OH269663   4.155   5.381   3.184 -0.0802  0.0818 -0.5924
16083TIP3    H169664   4.061   5.399   3.178 -0.1108  0.2180  0.2276
16083TIP3    H269665   4.163   5.290   3.157 -0.6434 -0.3922  0.7720
16084TIP3   OH269666   2.479   2.524   2.692  0.1261 -0.1749 -0.1874
16084TIP3    H169667   2.513   2.435   2.686 -0.9679 -0.5103 -1.6432
16084TIP3    H269668   2.462   2.550   2.601  1.5239  1.9638  0.1152
16085TIP3   OH269669   1.438   5.498   4.575 -0.2899 -0.5056  0.6822
16085TIP3    H169670   1.443   5.569   4.640  2.2360 -0.0932  0.0709
16085TIP3    H269671   1.498   5.525   4.506 -2.0887 -1.5020 -1.3121
16086TIP3   OH269672   2.094   6.371   5.457  0.0108 -0.4724 -0.1836
16086TIP3    H169673   2.040   6.407   5.387 -1.2640  0.7748  1.4244
16086TIP3    H269674   2.032   6.342   5.524  1.2443 -0.9599  0.7751
16087TIP3   OH269675   2.235   7.207   1.449 -0.3692 -0.5573  0.2831
16087TIP3    H169676   2.314   7.153   1.439 -1.7530 -2.9329  1.7004
16087TIP3    H269677   2.269   7.293   1.474  1.7876 -1.6098  1.1455
16088TIP3   OH269678   1.208   6.833   3.308 -0.5919 -0.1678 -0.1511
16088TIP3    H169679   1.181   6.913   3.354 -1.8501 -0.3006 -0.6200
16088TIP3    H269680   1.211   6.766   3.376 -0.3514  0.1054  0.1053
16089TIP3   OH269681   7.148   1.313   3.687  0.5550  0.0595 -0.1362
16089TIP3    H169682   7.186   1.304   3.774 -0.2084 -0.2637  0.1658
16089TIP3    H269683   7.220   1.289   3.628  0.9803 -0.0323  0.4066
16090TIP3   OH269684   2.120   6.030   5.012 -0.6607  0.1092 -0.4835
16090TIP3    H169685   2.081   6.071   4.935 -3.7014 -2.5682 -0.4797
16090TIP3    H269686   2.112   6.095   5.081  1.2692  2.1971 -2.1827
16091TIP3   OH269687   1.216   0.875   2.362 -0.0970  0.2224  0.1416
16091TIP3    H169688   1.152   0.880   2.291 -2.1766 -2.5234  1.7524
16091TIP3    H269689   1.297   0.910   2.323 -1.9432  1.6384 -2.6108
16092TIP3   OH269690   5.326   0.248  15.371  0.3490 -0.1820 -0.5702
16092TIP3    H169691   5.332   0.341  15.395 -0.7626  0.2095 -1.7336
16092TIP3    H269692   5.278   0.248  15.288 -0.9271 -1.9112  0.1465
16093TIP3   OH269693   0.800   1.044  15.594  0.0363  0.8010  0.0315
16093TIP3    H169694   0.799   1.014  15.685 -1.7983  1.0434  0.1060
16093TIP3    H269695   0.810   1.139  15.600  0.8444  0.7223 -0.0506
16094TIP3   OH269696   5.902   6.069   3.340 -0.4526  0.4400 -0.0989
16094TIP3    H169697   5.844   6.143   3.323 -1.3279 -0.1499  0.2452
16094TIP3    H269698   5.857   5.994   3.302  0.8242  0.1962 -1.1893
16095TIP3   OH269699   3.857   5.889   2.387  0.5470  0.3384  0.4754
16095TIP3    H169700   3.856   5.906   2.482  0.0559  1.4210  0.2776
16095TIP3    H269701   3.946   5.858   2.369  0.6495  0.1456  1.2889
16096TIP3   OH269702   0.524   0.947   3.892  0.0604 -0.1050  0.2922
16096TIP3    H169703   0.450   0.887   3.892 -0.6227  0.7139  1.9417
16096TIP3    H269704   0.497   1.019   3.835  0.3706 -0.7256 -0.6532
16097TIP3   OH269705   4.800   4.592   2.739 -0.3364 -0.0833 -0.6214
16097TIP3    H169706   4.830   4.517   2.790  0.6818  0.2248 -0.7594
16097TIP3    H269707   4.740   4.555   2.674 -0.5976 -0.6494 -0.0603
16098TIP3   OH269708   1.229   5.776   0.720  0.1733  0.2454  0.1221
16098TIP3    H169709   1.187   5.850   0.677  0.2530 -0.1071 -0.5681
16098TIP3    H269710   1.322   5.786   0.698  0.4203  0.8134  1.3304
16099TIP3   OH269711   5.315   3.838   2.459  0.0105  0.5207 -0.4243
16099TIP3    H169712   5.248   3.770   2.465 -0.5596  0.9458 -1.6965
16099TIP3    H269713   5.291   3.889   2.381  0.7107  1.8668  0.2169
16100TIP3   OH269714   3.107   6.344   1.531  0.2773  0.2404  0.0260
16100TIP3    H169715   3.137   6.356   1.621  0.3290  1.8241 -0.1949
16100TIP3    H269716   3.091   6.433   1.499 -2.0341 -0.4322 -0.7488
16101TIP3   OH269717   2.359   6.402   4.166  0.4909 -0.2917  0.2727
16101TIP3    H169718   2.326   6.454   4.094  2.8093 -0.7543 -1.1874
16101TIP3    H269719   2.318   6.316   4.156 -1.0412  0.3404  0.9538
16102TIP3   OH269720   0.882   2.693   5.199 -0.5259 -0.4734 -0.0032
16102TIP3    H169721   0.962   2.711   5.248  0.0291  0.2398 -1.1450
16102TIP3    H269722   0.913   2.655   5.116 -1.3758 -0.3536 -0.3796
16103TIP3   OH269723   5.776   7.031   3.817 -0.6913  0.2683  0.5104
16103TIP3    H169724   5.810   7.057   3.731 -2.4577  1.5040  0.1550
16103TIP3    H269725   5.844   7.056   3.879 -0.6247  2.0130 -0.2497
16104TIP3   OH269726   4.046   7.132   3.294 -0.3902 -0.5921 -0.6268
16104TIP3    H169727   3.982   7.183   3.245 -1.1256 -1.7533 -0.8885
16104TIP3    H269728   4.001   7.050   3.315  0.8117 -1.1888 -0.3180
16105TIP3   OH269729   6.411   0.631  15.834 -0.6084 -0.0851 -0.8580
16105TIP3    H169730   6.449   0.573  15.900 -0.8460  1.8636  1.0711
16105TIP3    H269731   6.319   0.605  15.830 -0.9431  0.8065  0.7475
16106TIP3   OH269732   0.601   6.061   4.331  0.2453  0.5921  0.0598
16106TIP3    H169733   0.667   6.116   4.289  0.7087 -0.4362 -0.5914
16106TIP3    H269734   0.647   5.980   4.352 -0.7837 -0.1159 -0.3545
16107TIP3   OH269735   1.301   6.944   2.689 -0.4367 -0.3749  0.2035
16107TIP3    H169736   1.333   6.865   2.733  0.5130  0.0257  0.2356
16107TIP3    H269737   1.252   6.911   2.614  1.2224 -0.9527 -0.6392
16108TIP3   OH269738   2.294   7.142   3.766 -0.3239 -0.1316 -0.7503
16108TIP3    H169739   2.248   7.064   3.733  2.4314 -1.2031 -2.2126
16108TIP3    H269740   2.291   7.204   3.693 -0.1788  0.1253 -0.5385
16109TIP3   OH269741   1.008   0.245   5.132 -0.5176 -0.5780 -0.0760
16109TIP3    H169742   1.031   0.328   5.092  0.4604 -0.8942 -0.1851
16109TIP3    H269743   1.005   0.183   5.059 -2.1285 -0.4675 -0.1195
16110TIP3   OH269744   3.239   0.639   4.086 -0.9885  0.3521  0.5804
16110TIP3    H169745   3.327   0.664   4.114 -0.9682  0.9365  0.0212
16110TIP3    H269746   3.202   0.591   4.160 -0.2408  0.2035  0.8596
16111TIP3   OH269747   4.332   0.357   4.474  0.0547  0.0917 -0.2475
16111TIP3    H169748   4.339   0.272   4.519  1.3270  0.9260  1.1842
16111TIP3    H269749   4.382   0.417   4.529 -0.8780  1.7945 -1.2276
16112TIP3   OH269750   2.941   3.209   3.783 -0.1631  0.0583  0.1111
16112TIP3    H169751   3.005   3.269   3.822  1.6839 -1.1436 -1.0340
16112TIP3    H269752   2.975   3.122   3.801 -1.2350 -0.5916 -0.9425
16113TIP3   OH269753   0.855   4.874   3.481  0.6439  0.2593  0.4650
16113TIP3    H169754   0.857   4.962   3.441  1.4263  0.5373  1.1014
16113TIP3    H269755   0.864   4.891   3.575 -0.8859 -0.4119  0.7334
16114TIP3   OH269756   1.763   1.191   2.727 -0.0124  0.2728 -0.3074
16114TIP3    H169757   1.809   1.268   2.760  1.2512 -0.2248 -0.8909
16114TIP3    H269758   1.774   1.125   2.795  2.8359 -0.8448 -1.7706
16115TIP3   OH269759   1.288   2.528   2.700  0.1971 -0.4123 -0.3461
16115TIP3    H169760   1.295   2.441   2.660 -0.4172 -0.6579  0.0904
16115TIP3    H269761   1.236   2.578   2.638  4.2540  0.9877 -2.8658
16116TIP3   OH269762   4.426   0.740   1.170 -0.2939 -0.1792  0.1329
16116TIP3    H169763   4.342   0.742   1.216  0.0541  0.2590  0.7446
16116TIP3    H269764   4.414   0.798   1.095 -0.2260  0.6376  0.7517
16117TIP3   OH269765   2.114   3.256   2.255 -0.1102  0.6016 -0.7874
16117TIP3    H169766   2.079   3.320   2.316 -1.2146  0.6866 -1.5094
16117TIP3    H269767   2.041   3.233   2.198  0.5096 -0.6207 -1.1126
16118TIP3   OH269768   4.463   0.543   2.997  0.6122  0.2495 -0.4828
16118TIP3    H169769   4.502   0.472   3.046 -1.2809 -0.1483  0.4841
16118TIP3    H269770   4.409   0.500   2.931 -3.4657  0.6573  2.4012
16119TIP3   OH269771   1.252   7.230   0.295 -0.0152  0.1976  0.0002
16119TIP3    H169772   1.192   7.304   0.304  1.2946  1.0891  1.7088
16119TIP3    H269773   1.199   7.160   0.257 -2.1883  0.8486  1.7643
16120TIP3   OH269774   5.878   2.078   2.414 -0.3724  0.4398  0.1266
16120TIP3    H169775   5.798   2.102   2.461  0.0398 -0.7694  1.5147
16120TIP3    H269776   5.895   2.151   2.356 -1.7851  1.2867  0.7511
16121TIP3   OH269777   5.508   0.011  15.080 -0.2856  0.3732  0.4650
16121TIP3    H169778   5.507   0.002  15.175 -2.6228 -0.9762  0.3578
16121TIP3    H269779   5.504  -0.079  15.048 -2.3919  0.9070 -0.8742
16122TIP3   OH269780   1.398   4.953   1.413  0.3086  0.0466 -0.1154
16122TIP3    H169781   1.368   4.990   1.331 -1.3007  0.4218  0.6304
16122TIP3    H269782   1.330   4.891   1.439  1.0576 -0.4641  0.6772
16123TIP3   OH269783   4.567   0.853   4.933 -0.7012 -0.2214  0.0341
16123TIP3    H169784   4.650   0.883   4.968 -0.0447 -2.2855  0.2813
16123TIP3    H269785   4.587   0.771   4.889 -2.1059  0.6274 -2.3192
16124TIP3   OH269786   3.208   5.102   4.439 -0.1468  0.3607 -0.1499
16124TIP3    H169787   3.292   5.057   4.438 -0.5830 -0.5791  2.3330
16124TIP3    H269788   3.144   5.033   4.457 -1.4856  1.0610 -2.0459
16125TIP3   OH269789   2.677   2.468   4.750 -0.0833  0.1361 -0.0539
16125TIP3    H169790   2.749   2.530   4.739  0.3209 -0.0662  1.3392
16125TIP3    H269791   2.652   2.477   4.842 -2.0810  0.4764 -0.6112
16126TIP3   OH269792   2.423   5.683   4.699  0.3931 -0.1055  0.0097
16126TIP3    H169793   2.503   5.708   4.745 -0.6432  0.6471  1.4586
16126TIP3    H269794   2.361   5.662   4.769 -0.6468 -0.7796 -1.0995
16127TIP3   OH269795   5.961   7.164  15.032 -0.9590 -0.4477  0.3147
16127TIP3    H169796   5.975   7.197  15.121  2.2420  1.8985 -0.9893
16127TIP3    H269797   5.888   7.216  14.999 -0.1835  0.7829  0.5255
16128TIP3   OH269798   1.860   6.052   1.648 -0.3107  0.2108 -0.2698
16128TIP3    H169799   1.924   6.025   1.582 -1.4484  0.4901 -1.5040
16128TIP3    H269800   1.780   6.071   1.599 -1.3922 -0.2312  1.2627
16129TIP3   OH269801   4.277   6.656   4.751 -0.0180  0.3538 -0.1040
16129TIP3    H169802   4.342   6.627   4.688  0.3858 -0.0996  0.5226
16129TIP3    H269803   4.264   6.582   4.809 -1.1724  0.4059 -0.2783
16130TIP3   OH269804   6.403   6.869   2.008  0.5816 -0.1937  0.1750
16130TIP3    H169805   6.422   6.775   2.000 -0.5075 -0.4103  0.0731
16130TIP3    H269806   6.446   6.894   2.090  0.4224 -0.9068  0.4882
16131TIP3   OH269807   2.391   4.355   2.117 -0.2430  0.3726 -0.2334
16131TIP3    H169808   2.429   4.303   2.188  1.1672  1.5752 -0.0942
16131TIP3    H269809   2.306   4.383   2.152  0.1629  0.4253  0.7298
16132TIP3   OH269810   0.014   6.419   4.548 -0.3005  0.3137  0.1104
16132TIP3    H169811   0.004   6.506   4.587 -1.1277  0.7480 -1.0514
16132TIP3    H269812   0.062   6.369   4.614 -0.0008  1.5876  0.8798
16133TIP3   OH269813   7.146   1.846   1.752  0.1735  0.0770 -0.1352
16133TIP3    H169814   7.125   1.899   1.829 -1.3243  1.3656 -1.4011
16133TIP3    H269815   7.203   1.777   1.786 -0.2901  0.7370  2.0920
16134TIP3   OH269816   5.040   2.113   2.331 -0.4180  0.2242 -0.0595
16134TIP3    H169817   5.023   2.138   2.422  0.9248 -0.9702  0.5411
16134TIP3    H269818   4.966   2.057   2.307  0.8381 -2.1636  1.4102
16135TIP3   OH269819   3.345   1.351   4.378  0.1452  0.1234  0.0720
16135TIP3    H169820   3.254   1.354   4.408  0.2329  1.9798  0.2622
16135TIP3    H269821   3.339   1.353   4.283 -0.0468 -1.6512  0.0397
16136TIP3   OH269822   2.611   5.949   4.006  0.0161  1.0592  0.3405
16136TIP3    H169823   2.525   5.934   4.045 -0.8377  2.8285 -0.8105
16136TIP3    H269824   2.629   5.868   3.957 -0.3466  0.1246  1.7283
16137TIP3   OH269825   4.312   2.956   4.611  0.7109  0.2791  0.2375
16137TIP3    H169826   4.287   2.864   4.618  1.3947  0.0383 -0.3255
16137TIP3    H269827   4.308   2.990   4.700  0.6131 -0.3389  0.4672
16138TIP3   OH269828   2.532   7.081   4.119 -0.0006  0.1796 -0.2031
16138TIP3    H169829   2.531   6.989   4.147  1.6983 -0.0736 -0.9453
16138TIP3    H269830   2.551   7.077   4.026 -1.4843  1.2329 -0.5692
16139TIP3   OH269831   2.955   3.626   3.827  0.2329  0.1301  0.3888
16139TIP3    H169832   2.869   3.646   3.791 -0.1964 -0.9208  0.7917
16139TIP3    H269833   3.015   3.685   3.782 -0.4634 -0.3519 -1.2036
16140TIP3   OH269834   0.566   2.331   0.139 -0.8078 -0.2470 -0.4898
16140TIP3    H169835   0.543   2.303   0.050 -0.1573 -1.9342 -0.1427
16140TIP3    H269836   0.662   2.327   0.141 -0.7873  0.4672  0.0801
16141TIP3   OH269837   3.715   0.315   4.662 -0.9731  0.0770  0.2512
16141TIP3    H169838   3.794   0.352   4.701 -1.4358  0.3006  1.0033
16141TIP3    H269839   3.720   0.222   4.682 -0.0910 -0.1844 -1.1433
16142TIP3   OH269840   3.325   5.429   4.269  0.1212 -0.0386 -0.7792
16142TIP3    H169841   3.296   5.515   4.300 -0.3715 -0.4236 -0.1692
16142TIP3    H269842   3.417   5.424   4.297 -0.7419 -1.0065  1.9924
16143TIP3   OH269843   2.552   0.696   0.832 -0.5900 -0.1377  0.7847
16143TIP3    H169844   2.588   0.700   0.920 -0.6580  1.7081  0.7567
16143TIP3    H269845   2.582   0.613   0.797  1.7269  0.3310  1.5795
16144TIP3   OH269846   1.942   6.882   2.604  0.7023  0.1119  0.1712
16144TIP3    H169847   1.994   6.951   2.645  0.6361  0.1888  0.1277
16144TIP3    H269848   1.878   6.857   2.670 -0.0101  0.8910 -0.2068
16145TIP3   OH269849   3.797   5.979   3.123 -0.3218  0.6152 -0.0454
16145TIP3    H169850   3.783   5.944   3.211  2.6504  0.2097  0.3245
16145TIP3    H269851   3.768   6.070   3.128 -2.1002  0.0307  0.7538
16146TIP3   OH269852   1.397   5.267   2.387  0.6315 -0.1908 -0.7776
16146TIP3    H169853   1.366   5.222   2.309  0.6280 -1.8677  0.1684
16146TIP3    H269854   1.432   5.350   2.354  0.7810 -0.9372 -2.5732
16147TIP3   OH269855   4.535   6.371   1.279 -0.1166  0.5038 -0.0320
16147TIP3    H169856   4.601   6.313   1.240 -0.2349  0.3272  0.0323
16147TIP3    H269857   4.491   6.317   1.345 -0.3219  0.6252 -0.0692
16148TIP3   OH269858   4.145   3.294   3.619 -0.0331 -0.5525 -0.3483
16148TIP3    H169859   4.097   3.266   3.541 -1.2968 -1.5708  0.7650
16148TIP3    H269860   4.077   3.318   3.682  0.9823  0.7509  0.2785
16149TIP3   OH269861   2.540   5.988  15.071 -0.1186  0.0331 -0.3467
16149TIP3    H169862   2.582   5.902  15.061  0.0468  0.3871 -2.9402
16149TIP3    H269863   2.447   5.967  15.077 -0.1081 -0.3355 -1.2718
16150TIP3   OH269864   0.854   0.800   2.407  0.1425 -0.6510 -0.5232
16150TIP3    H169865   0.861   0.873   2.345 -0.2866 -0.2805 -0.1408
16150TIP3    H269866   0.802   0.835   2.479  2.4384 -0.4137  1.0714
16151TIP3   OH269867   4.696   1.626   1.147 -0.4490  0.2880  0.6907
16151TIP3    H169868   4.699   1.670   1.062  1.1598 -1.6943 -0.2984
16151TIP3    H269869   4.607   1.591   1.152 -1.4612  2.7972  1.0948
16152TIP3   OH269870   2.608   0.429   0.790  0.3214 -0.1205 -0.7787
16152TIP3    H169871   2.679   0.389   0.741 -0.1263 -1.1304 -0.6162
16152TIP3    H269872   2.529   0.410   0.739  0.3153  2.0992 -1.6225
16153TIP3   OH269873   2.720   5.303   3.233  0.0496 -0.0044 -0.2515
16153TIP3    H169874   2.783   5.312   3.305 -1.5001 -0.3043  1.1608
16153TIP3    H269875   2.646   5.256   3.271 -1.1779  0.6234 -1.8080
16154TIP3   OH269876   3.933   5.588   1.966  0.2735  0.3878 -0.0311
16154TIP3    H169877   3.916   5.603   2.059  0.1774 -1.3725  0.2424
16154TIP3    H269878   3.925   5.675   1.927  2.4043  1.5162  1.9157
16155TIP3   OH269879   3.616   4.890   2.539  0.6312 -0.4675  0.0941
16155TIP3    H169880   3.532   4.916   2.578  1.3150  0.4592  0.9522
16155TIP3    H269881   3.645   4.816   2.593  1.0021  0.0530  0.6074
16156TIP3   OH269882   2.011   6.392   2.594 -0.2047 -0.1339 -0.4293
16156TIP3    H169883   2.047   6.453   2.529  1.5110 -0.7438 -0.0801
16156TIP3    H269884   2.038   6.306   2.564 -0.1830 -0.4950  0.6165
16157TIP3   OH269885   4.455   3.352   5.332 -0.1572 -0.0503  0.2152
16157TIP3    H169886   4.415   3.277   5.377  0.0911  0.6112  1.5671
16157TIP3    H269887   4.392   3.423   5.344  0.4337  0.4250  0.4959
16158TIP3   OH269888   4.872   5.125   2.807  0.0939 -0.0397 -0.2834
16158TIP3    H169889   4.808   5.168   2.862  0.1114  0.5223 -0.7027
16158TIP3    H269890   4.928   5.076   2.868 -0.9568 -0.8376  0.0447
16159TIP3   OH269891   3.449   1.058   4.122 -0.5886  0.1949 -0.3747
16159TIP3    H169892   3.420   1.032   4.210  0.0444 -2.1574 -0.8357
16159TIP3    H269893   3.461   1.152   4.128 -1.4568  0.1980  1.8145
16160TIP3   OH269894   3.215   4.899   4.947 -0.4220 -0.4244  0.5267
16160TIP3    H169895   3.274   4.855   4.887 -1.3819 -0.2927 -0.5329
16160TIP3    H269896   3.136   4.845   4.948 -0.6927 -0.0366  1.1019
16161TIP3   OH269897   0.987   5.751   2.392 -0.0724  0.3392  0.0776
16161TIP3    H169898   1.048   5.758   2.466 -1.2463 -1.8129  1.2994
16161TIP3    H269899   0.952   5.840   2.382  3.5462  1.7653 -0.9899
16162TIP3   OH269900   1.415   2.339  15.460 -0.1440 -0.3402  0.1771
16162TIP3    H169901   1.495   2.300  15.497 -0.3685 -1.6964 -0.7382
16162TIP3    H269902   1.446   2.414  15.410  0.5166 -0.6190  0.1647
16163TIP3   OH269903   4.862   5.111   3.119  0.3262 -0.3910  0.4205
16163TIP3    H169904   4.944   5.085   3.078  0.0960 -1.3240  0.5298
16163TIP3    H269905   4.885   5.185   3.175  0.4414  1.6774 -2.2403
16164TIP3   OH269906   4.757   5.998   2.201 -0.5683  0.1964 -0.1889
16164TIP3    H169907   4.751   5.963   2.290 -1.5482  0.5183 -0.1308
16164TIP3    H269908   4.730   5.926   2.145  0.6736 -0.2188 -0.2767
16165TIP3   OH269909   5.010   1.640   0.775  0.4841  0.2317 -0.3286
16165TIP3    H169910   5.013   1.603   0.687 -0.1265 -3.0949  0.9633
16165TIP3    H269911   5.102   1.645   0.802  0.4906 -3.4199  0.6094
16166TIP3   OH269912   2.459   6.542   3.843  0.0267  0.0010  0.2446
16166TIP3    H169913   2.416   6.588   3.915 -0.6248 -0.0514 -0.1107
16166TIP3    H269914   2.432   6.451   3.853  0.6146 -0.1596  0.4272
16167TIP3   OH269915   1.866   3.197   2.131 -0.2900  0.2359 -0.1816
16167TIP3    H169916   1.861   3.102   2.142  1.7260  0.0997 -0.1574
16167TIP3    H269917   1.802   3.231   2.194 -0.4950 -1.0782  0.3549
16168TIP3   OH269918   3.546   5.559   2.288 -0.3539 -0.1547 -0.4086
16168TIP3    H169919   3.623   5.520   2.247  0.1790 -0.0624  0.4889
16168TIP3    H269920   3.570   5.651   2.302  0.5574 -0.8057  2.6646
16169TIP3   OH269921   5.031   0.029   4.015 -0.1896 -0.4326  0.6662
16169TIP3    H169922   4.990  -0.047   4.056  0.1067 -0.6617  0.5429
16169TIP3    H269923   5.054  -0.001   3.927  2.1905 -0.9935  1.4350
16170TIP3   OH269924   1.259   1.855   4.426  0.0468 -0.7112 -0.3562
16170TIP3    H169925   1.309   1.917   4.374  0.2382 -1.3474 -0.9366
16170TIP3    H269926   1.283   1.875   4.517  1.8102 -1.3968 -0.6562
16171TIP3   OH269927   6.521   6.857   6.089  0.1377 -0.2564  0.3154
16171TIP3    H169928   6.514   6.883   6.180 -1.7342  0.2504  0.0354
16171TIP3    H269929   6.431   6.856   6.056  0.9056  1.3418 -2.0247
16172TIP3   OH269930   4.261   0.038   4.311 -0.2272  1.0122  0.7692
16172TIP3    H169931   4.337  -0.020   4.325 -2.0468 -1.5910  0.2519
16172TIP3    H269932   4.219   0.043   4.397 -0.6945  0.6535  0.5629
16173TIP3   OH269933   3.121   7.094   3.062  0.4435  0.4284  0.0699
16173TIP3    H169934   3.091   7.012   3.101  0.6613  0.2288 -0.1771
16173TIP3    H269935   3.044   7.128   3.017  0.3356  0.3891  0.2233
16174TIP3   OH269936   4.135   0.569   3.805 -0.0704  0.7212  0.1550
16174TIP3    H169937   4.179   0.543   3.886  0.2480  0.6265 -0.0488
16174TIP3    H269938   4.191   0.638   3.769  0.7445 -0.4835 -0.9075
16175TIP3   OH269939   2.132   4.646   4.339 -0.1170  0.1396 -0.0930
16175TIP3    H169940   2.144   4.553   4.358 -1.3658 -0.0937 -0.3500
16175TIP3    H269941   2.064   4.648   4.272 -0.1925  1.2403  0.0057
16176TIP3   OH269942   3.097   1.475   3.887 -0.2260  0.4456  0.5698
16176TIP3    H169943   3.083   1.562   3.848 -2.0491  0.5882  1.4508
16176TIP3    H269944   3.008   1.444   3.907  0.5138 -0.8369  1.9406
16177TIP3   OH269945   3.635   4.486   3.361 -0.3593 -0.5447 -0.4146
16177TIP3    H169946   3.674   4.499   3.447 -3.0252 -0.2408  0.7840
16177TIP3    H269947   3.588   4.403   3.368  1.4122 -1.7847 -2.3808
16178TIP3   OH269948   4.953   1.356   4.160  0.5470 -0.3340 -0.5314
16178TIP3    H169949   4.884   1.294   4.182 -0.9673  1.1184 -1.0702
16178TIP3    H269950   4.949   1.422   4.230  1.2304 -0.1163 -0.6947
16179TIP3   OH269951   0.151   0.982   1.948 -0.1618  0.6859 -0.4763
16179TIP3    H169952   0.088   1.038   1.903 -2.1365 -2.0579 -1.1702
16179TIP3    H269953   0.155   1.019   2.037 -2.8764  0.8148 -0.3651
16180TIP3   OH269954   1.367   4.678   2.905 -0.4315 -0.0534 -0.3425
16180TIP3    H169955   1.288   4.716   2.943  0.4799  0.1581  1.3679
16180TIP3    H269956   1.415   4.753   2.870  0.3835  0.1732  1.2085
16181TIP3   OH269957   0.449   0.385   4.147 -0.9986  0.0699 -0.0468
16181TIP3    H169958   0.418   0.339   4.225  0.7447  1.4068  1.4668
16181TIP3    H269959   0.383   0.452   4.131 -0.2408  1.2317  1.6178
16182TIP3   OH269960   3.421   1.638   3.813 -0.3131  0.4343  0.1813
16182TIP3    H169961   3.389   1.648   3.902  0.8098  0.3318  0.6119
16182TIP3    H269962   3.392   1.551   3.786 -0.3974  0.3470  0.5536
16183TIP3   OH269963   5.688   2.530   1.611 -0.1388 -0.5984  0.1230
16183TIP3    H169964   5.749   2.602   1.625 -1.1117  0.1425  0.6203
16183TIP3    H269965   5.620   2.568   1.555 -1.9221 -0.4035  2.3603
16184TIP3   OH269966   6.266   4.743   3.728  0.3625  0.0767  0.5246
16184TIP3    H169967   6.227   4.742   3.641 -0.3562  0.9203  0.8279
16184TIP3    H269968   6.287   4.652   3.746  0.7439 -0.0697 -0.6345
16185TIP3   OH269969   4.285   0.110   0.608 -0.6811 -0.3016  0.4178
16185TIP3    H169970   4.349   0.040   0.596 -1.0397 -0.8103  1.3783
16185TIP3    H269971   4.205   0.064   0.635 -1.2467  0.3878 -0.0626
16186TIP3   OH269972   5.373   0.956   4.558 -0.3366 -0.6869 -0.4699
16186TIP3    H169973   5.450   0.913   4.522 -0.0442 -1.1579  0.6731
16186TIP3    H269974   5.401   1.046   4.576 -0.1872 -0.7309 -0.4863
16187TIP3   OH269975   0.127   1.686   2.573 -0.2285  0.5527  0.1120
16187TIP3    H169976   0.070   1.618   2.610  3.5820 -2.9395 -0.0825
16187TIP3    H269977   0.099   1.767   2.617 -3.7578 -1.3958  1.6725
16188TIP3   OH269978   3.040   2.343   2.282  0.2048 -0.0724  0.5013
16188TIP3    H169979   2.980   2.311   2.216 -0.1178 -0.1757  0.8440
16188TIP3    H269980   3.126   2.313   2.254  0.3101  1.3929 -0.8188
16189TIP3   OH269981   3.322   1.097   1.063 -0.4926  0.4083  0.3317
16189TIP3    H169982   3.281   1.112   1.148 -0.5483 -1.0926  0.5936
16189TIP3    H269983   3.416   1.104   1.079 -0.4003 -1.6941  0.9490
16190TIP3   OH269984   1.734   0.822   3.309  0.4519  0.2415  0.8841
16190TIP3    H169985   1.775   0.737   3.292  0.2641  0.2892  0.1669
16190TIP3    H269986   1.650   0.817   3.264 -0.2929  0.1847  2.2591
16191TIP3   OH269987   1.423   5.730   5.662  0.3987  0.0784 -0.1855
16191TIP3    H169988   1.492   5.765   5.718  0.4671 -0.5121  0.1000
16191TIP3    H269989   1.421   5.637   5.682 -2.5642  0.5565  2.1201
16192TIP3   OH269990   2.984   0.974   2.038 -0.3753 -0.0440 -0.6029
16192TIP3    H169991   3.029   0.894   2.012 -0.6904 -0.8626  1.2948
16192TIP3    H269992   2.942   1.006   1.958 -0.2327 -1.7676 -1.3754
16193TIP3   OH269993   1.062   1.276   3.500  0.3172  0.5099  0.1109
16193TIP3    H169994   1.101   1.363   3.511  0.5543  0.4209 -0.0110
16193TIP3    H269995   1.014   1.282   3.417  0.3496  0.5169  0.0928
16194TIP3   OH269996   2.172   6.033   3.449 -0.1516 -0.3355  0.3205
16194TIP3    H169997   2.230   6.096   3.408 -1.1892 -0.5172 -1.5279
16194TIP3    H269998   2.084   6.063   3.425 -0.7773 -0.6589  2.1584
16195TIP3   OH269999   3.506   4.825  15.025  0.0430  0.0452  0.2008
16195TIP3    H170000   3.601   4.830  15.015  0.1233  0.4306  1.0835
16195TIP3    H270001   3.493   4.782  15.109 -0.5597  0.1718  0.1737
16196TIP3   OH270002   1.257   6.782   1.789  0.1368 -0.6571 -0.3554
16196TIP3    H170003   1.225   6.761   1.876 -0.7065 -1.6787 -0.9033
16196TIP3    H270004   1.351   6.797   1.801 -0.0019 -0.6415  0.7411
16197TIP3   OH270005   1.550   6.102   0.404 -0.1353  0.8311  0.2756
16197TIP3    H170006   1.471   6.048   0.398 -0.0664  0.9770 -2.4157
16197TIP3    H270007   1.566   6.109   0.498  0.0531 -4.1221  0.7777
16198TIP3   OH270008   3.890   6.330   1.215  0.1097  0.0014  0.3159
16198TIP3    H170009   3.923   6.365   1.298  0.2128  1.5119 -0.3508
16198TIP3    H270010   3.913   6.396   1.150 -1.4187 -0.4090 -0.6637
16199TIP3   OH270011   4.427   7.213   5.080  0.5360 -0.7799 -0.6800
16199TIP3    H170012   4.441   7.276   5.150  1.2394 -2.4932  0.7762
16199TIP3    H270013   4.408   7.131   5.125 -0.4051 -1.6068 -2.5252
16200TIP3   OH270014   6.283   4.052   2.175 -0.6241 -0.3521 -0.3211
16200TIP3    H170015   6.200   4.092   2.202 -1.3600 -2.3643  0.4573
16200TIP3    H270016   6.349   4.103   2.221 -1.6250 -0.8791  1.7772
16201TIP3   OH270017   5.308   0.081   1.051  0.4798  0.1352  0.3906
16201TIP3    H170018   5.276   0.164   1.015 -0.1483 -0.9194 -1.5750
16201TIP3    H270019   5.260   0.070   1.133  0.5276  1.6707  0.6457
16202TIP3   OH270020   2.097   1.289   0.707  0.0525 -0.0916 -0.1794
16202TIP3    H170021   2.157   1.231   0.753 -0.9369 -1.0635 -0.0731
16202TIP3    H270022   2.121   1.377   0.736 -0.9836 -0.7223  2.7550
16203TIP3   OH270023   7.083   1.704   4.237  0.5674 -0.1997 -0.4215
16203TIP3    H170024   7.104   1.611   4.226 -3.1001 -0.9555 -1.4905
16203TIP3    H270025   7.035   1.708   4.319  0.6576  0.7537 -0.4157
16204TIP3   OH270026   6.486   6.397   3.660 -0.0792  0.1028 -0.8171
16204TIP3    H170027   6.563   6.342   3.674  0.3976  0.8507 -0.3884
16204TIP3    H270028   6.494   6.427   3.570 -0.8943 -1.3468 -1.3835
16205TIP3   OH270029   1.088   2.578   3.270 -0.4357 -0.0822 -0.1185
16205TIP3    H170030   1.101   2.609   3.359  0.1254  0.3688 -0.3553
16205TIP3    H270031   1.174   2.587   3.229 -1.7005  4.1344 -2.1092
16206TIP3   OH270032   7.132   5.373   3.096  0.2256  0.6220 -0.6246
16206TIP3    H170033   7.120   5.329   3.012 -0.4370  1.3662 -0.9230
16206TIP3    H270034   7.208   5.330   3.135 -0.4134 -0.7881 -0.9100
16207TIP3   OH270035   2.995   4.386   4.034 -0.2874 -0.3837 -0.5924
16207TIP3    H170036   2.927   4.391   4.102 -1.0192 -0.0591 -1.3388
16207TIP3    H270037   3.006   4.477   4.005  0.5783 -0.4128 -0.3814
16208TIP3   OH270038   2.393   0.464   0.594 -0.0667 -0.2044 -0.1407
16208TIP3    H170039   2.309   0.448   0.550  0.1602  0.5626 -0.8609
16208TIP3    H270040   2.393   0.558   0.612  0.5417 -0.2417  0.0651
16209TIP3   OH270041   6.496   2.129   3.152 -0.1976 -0.5600 -0.1937
16209TIP3    H170042   6.419   2.164   3.197  0.3727 -0.2668  0.5759
16209TIP3    H270043   6.512   2.191   3.081  0.9081  0.8951  1.2716
16210TIP3   OH270044   1.739   5.232   3.539 -0.1306 -0.9480 -0.0878
16210TIP3    H170045   1.719   5.262   3.450  2.3433 -1.1026 -0.7257
16210TIP3    H270046   1.731   5.137   3.535 -3.3362 -0.7920  0.7595
16211TIP3   OH270047   1.909   4.867  13.879 -0.7779  0.1363  0.2906
16211TIP3    H170048   1.875   4.778  13.877 -1.5253  0.4126  0.2192
16211TIP3    H270049   1.993   4.862  13.835 -1.6373 -0.1989 -1.3566
16212TIP3   OH270050   2.590   7.114   3.473  0.0178 -0.1265  0.2783
16212TIP3    H170051   2.540   7.039   3.504 -0.8527  1.4487  2.7246
16212TIP3    H270052   2.563   7.187   3.528  1.1345  1.9470 -1.8009
16213TIP3   OH270053   0.392   0.585   3.589  0.3346  0.2090 -0.1658
16213TIP3    H170054   0.418   0.606   3.499  0.7959 -2.1570 -0.6292
16213TIP3    H270055   0.461   0.527   3.621 -0.6268 -0.2332  1.1618
16214TIP3   OH270056   3.154   7.223   2.255  0.1544 -0.7471  0.3211
16214TIP3    H170057   3.189   7.284   2.190 -1.5476 -3.1189 -2.9821
16214TIP3    H270058   3.231   7.176   2.287  0.9048 -0.2982 -0.7815
16215TIP3   OH270059   3.289   0.310   4.255  0.0438  0.1574 -0.5480
16215TIP3    H170060   3.243   0.236   4.294 -1.6423  0.9081 -1.0529
16215TIP3    H270061   3.227   0.383   4.262  0.4541  0.7717 -2.8135
16216TIP3   OH270062   3.842   4.396   0.204 -0.1140  0.3524 -0.4381
16216TIP3    H170063   3.894   4.318   0.224 -1.2791 -0.5098 -0.7781
16216TIP3    H270064   3.823   4.434   0.290  0.4127  0.2483 -0.2718
16217TIP3   OH270065   1.862   0.305   3.216  0.0613  0.2355 -0.5003
16217TIP3    H170066   1.874   0.262   3.132  1.5649 -2.4611  1.0367
16217TIP3    H270067   1.868   0.399   3.197  0.4781 -0.3471 -3.3461
16218TIP3   OH270068   2.843   5.118   2.230  0.3201 -0.3309  0.1741
16218TIP3    H170069   2.860   5.035   2.275  0.1219 -1.1129 -1.1609
16218TIP3    H270070   2.816   5.177   2.299  1.8318 -0.9791  1.3497
16219TIP3   OH270071   0.411   0.600   5.864 -0.5112  0.5096 -0.5524
16219TIP3    H170072   0.412   0.646   5.948 -0.0964  1.3808 -1.0212
16219TIP3    H270073   0.450   0.514   5.883 -2.3597 -0.0928  0.5702
16220TIP3   OH270074   2.632   3.008   0.503 -0.6814 -0.4266 -0.2998
16220TIP3    H170075   2.620   2.943   0.572  0.0827 -0.4341 -0.1758
16220TIP3    H270076   2.583   3.085   0.534 -0.2787 -0.4033  0.2812
16221TIP3   OH270077   3.945   7.130   0.300  0.2578  0.3210 -0.8826
16221TIP3    H170078   3.992   7.122   0.383 -0.2656 -1.1281 -0.6992
16221TIP3    H270079   3.855   7.105   0.321 -0.9763  4.3978 -0.9274
16222TIP3   OH270080   2.500   7.061   5.738 -0.2635 -0.2893  0.1321
16222TIP3    H170081   2.536   7.034   5.822  2.6057  0.0942 -0.9164
16222TIP3    H270082   2.450   6.985   5.707 -2.5057  0.0399  2.7407
16223TIP3   OH270083   3.994   6.158   4.493  0.3239 -0.0675  0.0808
16223TIP3    H170084   3.935   6.231   4.513 -0.8759 -1.2501  0.9877
16223TIP3    H270085   3.936   6.086   4.470  1.5352 -0.4107 -1.9747
16224TIP3   OH270086   2.914   0.487   2.481  0.3172 -0.1154 -0.0883
16224TIP3    H170087   2.939   0.417   2.542  1.9330 -2.5351 -3.3578
16224TIP3    H270088   2.966   0.562   2.509 -2.2964  0.2606  4.2255
16225TIP3   OH270089   6.787   1.451   3.906  0.4627  0.7021 -0.2270
16225TIP3    H170090   6.775   1.455   4.001  1.7424  1.1772 -0.0865
16225TIP3    H270091   6.798   1.542   3.879  0.8119  0.5106 -0.7403
16226TIP3   OH270092   0.072   4.478   5.336 -0.1309 -0.1706  0.5707
16226TIP3    H170093   0.157   4.508   5.304 -1.1533  0.4966 -1.6149
16226TIP3    H270094   0.055   4.398   5.286  1.0762 -2.7201  4.0205
16227TIP3   OH270095   4.830   7.298   1.428 -0.0585 -0.2265  0.1094
16227TIP3    H170096   4.828   7.388   1.459  0.7332  0.5653 -2.0173
16227TIP3    H270097   4.783   7.300   1.345  0.0998 -1.7449 -0.0428
16228TIP3   OH270098   2.176   5.580   2.237  0.2132 -0.2051 -0.1808
16228TIP3    H170099   2.157   5.577   2.330  1.8465 -1.0306  0.1484
16228TIP3    H270100   2.108   5.526   2.197 -1.1018  0.9996  0.4151
16229TIP3   OH270101   2.548   4.924  14.925 -0.3982  0.1212 -0.9255
16229TIP3    H170102   2.454   4.910  14.940 -0.7782  2.9053 -0.5087
16229TIP3    H270103   2.580   4.839  14.896 -2.7755 -1.2516  0.2961
16230TIP3   OH270104   2.708   0.018   2.539  0.3640  0.8632 -0.1656
16230TIP3    H170105   2.650  -0.046   2.499  2.6686 -1.1794 -0.3204
16230TIP3    H270106   2.792   0.005   2.496  1.1736  3.2286  0.6130
16231TIP3   OH270107   3.954   1.128   4.941 -0.4474 -0.0756  0.0736
16231TIP3    H170108   4.002   1.177   4.874  0.4192 -0.3412  0.4886
16231TIP3    H270109   3.875   1.179   4.956 -0.4421  0.2112 -0.8475
16232TIP3   OH270110   3.173   3.585   1.036  0.3616  0.4639 -0.6496
16232TIP3    H170111   3.125   3.627   1.107  0.1058 -0.9528  0.0390
16232TIP3    H270112   3.179   3.493   1.062 -0.7042 -0.3038 -2.9905
16233TIP3   OH270113   5.887   2.607   3.439 -0.2401 -0.3881 -0.3857
16233TIP3    H170114   5.946   2.636   3.369  0.6125  1.1216  0.9518
16233TIP3    H270115   5.905   2.665   3.512 -0.4628 -2.5471  1.4351
16234TIP3   OH270116   2.354   6.653   2.838  0.1923 -0.2652  0.5436
16234TIP3    H170117   2.379   6.583   2.778 -1.2630  0.3080 -0.7308
16234TIP3    H270118   2.304   6.609   2.907  0.2919 -0.6496  0.3721
16235TIP3   OH270119   2.024   3.472   3.495  0.5082 -0.8218  0.7886
16235TIP3    H170120   2.028   3.380   3.469  1.8402 -0.2988 -0.9433
16235TIP3    H270121   2.001   3.519   3.415  0.5299  0.4233  1.4941
16236TIP3   OH270122   0.685   0.574   3.089  0.1776 -0.4061  0.0684
16236TIP3    H170123   0.689   0.666   3.117  0.2843  0.1127 -1.5953
16236TIP3    H270124   0.592   0.553   3.088  0.1372 -0.2322  0.1744
16237TIP3   OH270125   4.504   5.140   3.238 -0.5697 -0.2067 -0.1534
16237TIP3    H170126   4.524   5.156   3.330 -0.8910  0.6383 -0.2235
16237TIP3    H270127   4.540   5.054   3.220 -0.7789 -0.5104  0.8514
16238TIP3   OH270128   3.825   6.702   2.419  0.2399 -0.5696 -0.4910
16238TIP3    H170129   3.767   6.716   2.344  0.1195  1.7631  0.0018
16238TIP3    H270130   3.769   6.708   2.496  0.7278 -0.6859 -0.1185
16239TIP3   OH270131   1.045   5.956   1.425  0.4844  0.0678  0.2517
16239TIP3    H170132   1.002   6.006   1.356  3.1685  0.5928 -1.1334
16239TIP3    H270133   1.052   5.868   1.390  0.0872 -0.1392  0.6868
16240TIP3   OH270134   0.377   3.617   3.613 -0.5777  0.0072 -0.6216
16240TIP3    H170135   0.284   3.620   3.591 -0.7201 -0.9957 -0.1866
16240TIP3    H270136   0.385   3.542   3.672  0.5839 -0.1835 -1.0094
16241TIP3   OH270137   1.210   6.328   5.471 -0.2801 -0.1944  0.3169
16241TIP3    H170138   1.225   6.294   5.559 -3.5381  0.4926  1.2232
16241TIP3    H270139   1.244   6.417   5.473 -0.5310 -0.1099  0.9558
16242TIP3   OH270140   4.023   6.161   5.396  0.0623  0.2995  0.5420
16242TIP3    H170141   4.016   6.065   5.401  2.5819  0.1033  1.2655
16242TIP3    H270142   3.977   6.193   5.473 -0.1379 -0.3719  0.7014
16243TIP3   OH270143   4.845   6.414   4.418  0.0522  0.3578 -0.4470
16243TIP3    H170144   4.879   6.421   4.507  1.1207  1.2436 -0.9096
16243TIP3    H270145   4.904   6.351   4.375 -0.1574  0.3093 -0.6645
16244TIP3   OH270146   5.847   7.105   1.596  0.3776 -0.6315  0.1261
16244TIP3    H170147   5.812   7.045   1.529 -0.7519  0.1606 -0.0105
16244TIP3    H270148   5.874   7.182   1.547  1.3776 -0.8245  0.3623
16245TIP3   OH270149   1.564   1.609   1.727 -0.2279  0.3305 -0.2418
16245TIP3    H170150   1.536   1.595   1.817 -0.9720  1.1108 -0.3411
16245TIP3    H270151   1.578   1.521   1.692 -0.7814 -0.0057  0.3668
16246TIP3   OH270152   1.802   5.060   4.582 -0.3845  0.1802  0.2836
16246TIP3    H170153   1.789   4.970   4.555  0.0163  0.5799 -1.2459
16246TIP3    H270154   1.826   5.107   4.502  2.1651  1.1081  1.5572
16247TIP3   OH270155   1.571   5.600   2.813  0.3741 -0.0441 -0.1037
16247TIP3    H170156   1.525   5.667   2.763  1.8339  0.0067 -1.4443
16247TIP3    H270157   1.661   5.631   2.817  1.3731 -2.5336 -1.9182
16248TIP3   OH270158   3.938   5.239   1.581  0.0830  0.0520 -0.0375
16248TIP3    H170159   3.877   5.277   1.644  2.1459  0.3666  1.8673
16248TIP3    H270160   3.897   5.157   1.553 -1.9813  1.1139 -0.1527
16249TIP3   OH270161   5.245   2.635   0.257 -0.0279  0.4930 -1.1448
16249TIP3    H170162   5.236   2.558   0.313  0.2336 -0.4189 -2.3470
16249TIP3    H270163   5.324   2.618   0.206 -0.8841  0.8061 -2.5883
16250TIP3   OH270164   0.707   4.566   4.324 -0.4243  0.1252 -0.0581
16250TIP3    H170165   0.700   4.471   4.327  0.1523  0.0435 -1.0477
16250TIP3    H270166   0.785   4.586   4.377 -0.5944  0.0549  0.2194
16251TIP3   OH270167   2.664   5.345   1.208  0.2473  0.3719 -0.1067
16251TIP3    H170168   2.602   5.384   1.270  0.6784  0.2491  0.4066
16251TIP3    H270169   2.610   5.292   1.150 -0.2760  1.2404 -0.4313
16252TIP3   OH270170   2.618   5.128   5.182  0.3889 -0.0005 -0.3209
16252TIP3    H170171   2.607   5.218   5.213 -0.4402 -0.0270 -0.5371
16252TIP3    H270172   2.584   5.128   5.093 -1.8726 -1.0836  0.5212
16253TIP3   OH270173   1.879   1.422   4.961 -0.4088  0.0146 -0.3400
16253TIP3    H170174   1.966   1.399   4.994 -1.2067  0.5229  2.1631
16253TIP3    H270175   1.879   1.518   4.957 -0.8836  0.0159 -0.3106
16254TIP3   OH270176   6.727   1.573  14.555 -0.1169  0.4144 -0.8201
16254TIP3    H170177   6.822   1.584  14.547 -0.2173  1.1723 -1.0221
16254TIP3    H270178   6.711   1.483  14.528  0.6617 -0.0371  0.1989
16255TIP3   OH270179   2.923   3.244   4.060  1.3333 -0.1607 -0.1352
16255TIP3    H170180   2.886   3.224   3.974  0.7999  0.7161 -0.1213
16255TIP3    H270181   3.014   3.267   4.042  1.5259 -1.0638 -0.3279
16256TIP3   OH270182   1.483   6.080   5.334  0.6855 -0.7003 -0.1120
16256TIP3    H170183   1.449   6.139   5.401  0.5279 -0.4111 -0.4439
16256TIP3    H270184   1.405   6.036   5.299  0.5530  0.6083 -1.4859
16257TIP3   OH270185   0.473   1.291   3.388  0.3982  0.2066 -0.0839
16257TIP3    H170186   0.383   1.266   3.366  0.9128  0.2862 -2.5149
16257TIP3    H270187   0.473   1.386   3.382  0.4889  0.2536  0.6270
16258TIP3   OH270188   2.431   7.115   5.136  0.2310  0.1822 -0.2354
16258TIP3    H170189   2.467   7.028   5.116 -0.5640 -0.0785 -0.5827
16258TIP3    H270190   2.411   7.112   5.229  0.2777  0.0224 -0.2298
16259TIP3   OH270191   3.623   3.099   3.274  0.4759 -0.2310  0.0703
16259TIP3    H170192   3.629   3.068   3.364  0.4802  0.5585  0.3425
16259TIP3    H270193   3.579   3.184   3.280  1.0078  0.1030 -0.6060
16260TIP3   OH270194   1.648   5.190   5.677 -0.1059  0.0416  0.4369
16260TIP3    H170195   1.713   5.218   5.612 -0.4804  0.8362  0.4046
16260TIP3    H270196   1.649   5.094   5.671  0.3715  0.0797 -0.2418
16261TIP3   OH270197   2.619   5.943   5.079 -0.2931 -0.2781 -0.4632
16261TIP3    H170198   2.607   5.936   5.173 -0.7057  1.2360 -0.3787
16261TIP3    H270199   2.530   5.948   5.044 -0.1279 -0.0611 -0.8559
16262TIP3   OH270200   1.123   1.536   3.574 -0.2100  0.3366  0.0626
16262TIP3    H170201   1.048   1.523   3.632  0.3263 -0.6948  0.5432
16262TIP3    H270202   1.168   1.613   3.610  1.3566 -1.5810  2.3934
16263TIP3   OH270203   4.947   6.792   2.489 -0.3870  0.4678  0.5158
16263TIP3    H170204   4.853   6.802   2.478 -0.2535  1.5853  0.3364
16263TIP3    H270205   4.966   6.704   2.457 -1.2520  0.5433 -0.2148
16264TIP3   OH270206   4.329   4.567   0.165  0.1835  0.0269  0.0989
16264TIP3    H170207   4.240   4.600   0.178 -0.1012 -0.1404 -1.3349
16264TIP3    H270208   4.332   4.486   0.217 -0.9643 -0.7076 -0.9480
16265TIP3   OH270209   2.305   5.226   1.576  0.0484 -0.5032  0.3757
16265TIP3    H170210   2.217   5.233   1.613 -0.5381 -1.1684 -0.8599
16265TIP3    H270211   2.300   5.271   1.492  1.0235 -0.1181  0.5167
16266TIP3   OH270212   3.880   0.298   2.961  0.2717 -0.4606  0.0871
16266TIP3    H170213   3.801   0.282   2.909  0.7669 -1.3524 -0.3959
16266TIP3    H270214   3.871   0.242   3.038  2.1949 -3.4670 -1.8011
16267TIP3   OH270215   2.207   4.390   5.649 -0.1224 -0.0285  0.3196
16267TIP3    H170216   2.266   4.316   5.662  1.1998  0.9774  0.0818
16267TIP3    H270217   2.138   4.356   5.592  0.9686 -0.8370 -0.5372
16268TIP3   OH270218   1.883   3.699   4.673  0.2705  0.3709  0.5997
16268TIP3    H170219   1.907   3.617   4.716 -1.4908 -1.1765 -1.2736
16268TIP3    H270220   1.959   3.722   4.621 -0.1729 -1.4922 -0.9105
16269TIP3   OH270221   0.109   0.507   4.942  0.1470  0.0167  0.0178
16269TIP3    H170222   0.065   0.592   4.940  1.5165  0.7393 -1.5563
16269TIP3    H270223   0.066   0.455   4.874  0.6674  0.1999 -0.4656
16270TIP3   OH270224   1.618   4.245   0.734 -0.1661  0.2086  0.4570
16270TIP3    H170225   1.613   4.340   0.739 -0.3159  0.1950  0.5621
16270TIP3    H270226   1.699   4.228   0.686 -0.4285  0.3948 -0.0529
16271TIP3   OH270227   0.580   0.899   4.178  0.0465 -0.1351  0.4323
16271TIP3    H170228   0.544   0.876   4.092 -0.5110 -0.4406  0.7426
16271TIP3    H270229   0.595   0.993   4.174  0.4486 -0.2254 -0.1590
16272TIP3   OH270230   2.166   4.503   3.914  0.4736  0.0057  0.4345
16272TIP3    H170231   2.093   4.442   3.903 -0.3414  1.2310 -1.2663
16272TIP3    H270232   2.202   4.482   4.000 -3.1718  0.6700  2.2352
16273TIP3   OH270233   2.846   7.288   3.288  0.4896  0.1677 -0.1917
16273TIP3    H170234   2.840   7.265   3.195  2.3346  1.8478 -0.7596
16273TIP3    H270235   2.756   7.281   3.320 -0.0010 -1.4826 -1.8320
16274TIP3   OH270236   3.286   1.278   2.603 -0.1976  0.1566  0.4004
16274TIP3    H170237   3.270   1.193   2.562  1.5707  0.1810 -0.4099
16274TIP3    H270238   3.315   1.257   2.691  1.5840 -0.1618 -0.2433
16275TIP3   OH270239   0.009   1.910   2.686 -0.0072 -0.1407  0.6663
16275TIP3    H170240  -0.004   2.002   2.662  1.1553  0.1025  0.9410
16275TIP3    H270241  -0.062   1.891   2.747 -0.4076  0.4954  0.4076
16276TIP3   OH270242   6.138   1.849   1.131 -0.3062  0.3958  0.1930
16276TIP3    H170243   6.148   1.774   1.190 -3.1043  0.2040  0.5203
16276TIP3    H270244   6.103   1.919   1.186  0.6775  1.4185 -0.4671
16277TIP3   OH270245   4.337   1.301   3.540 -0.2412  0.1840  0.0299
16277TIP3    H170246   4.365   1.372   3.482  0.5018 -0.4493 -0.3876
16277TIP3    H270247   4.242   1.296   3.526 -0.4399  1.6730  0.7148
16278TIP3   OH270248   4.197   5.817   3.011 -0.3504  0.4731 -0.4971
16278TIP3    H170249   4.222   5.764   3.087  1.0144 -1.9454 -2.5545
16278TIP3    H270250   4.253   5.894   3.016 -0.8855  0.7684  1.4018
16279TIP3   OH270251   4.859   0.407   3.262 -0.7987  0.6418 -0.4157
16279TIP3    H170252   4.945   0.412   3.220 -0.6819 -1.0127 -0.4170
16279TIP3    H270253   4.878   0.399   3.356 -0.8654 -1.8161 -0.5846
16280TIP3   OH270254   3.844   4.290   0.666  0.6382  0.2642 -0.4728
16280TIP3    H170255   3.921   4.307   0.721  1.0285  0.3408 -1.0393
16280TIP3    H270256   3.880   4.268   0.580  0.0269  0.2059 -0.7187
16281TIP3   OH270257   2.781   1.335   4.698  0.2231 -0.2047 -0.1400
16281TIP3    H170258   2.814   1.323   4.609  0.7730 -0.8452  0.1392
16281TIP3    H270259   2.856   1.370   4.747 -0.2076  0.5723 -0.0322
16282TIP3   OH270260   6.284   0.885   3.310  0.1660  0.5131 -0.0915
16282TIP3    H170261   6.332   0.814   3.267 -0.0740  0.1730  0.2097
16282TIP3    H270262   6.336   0.905   3.388  1.1608  1.8199 -1.0517
16283TIP3   OH270263   4.033   6.687   2.004  0.4061  0.2412  0.5714
16283TIP3    H170264   4.102   6.753   1.993 -0.4577  1.3038  1.4234
16283TIP3    H270265   3.952   6.738   2.011 -0.0802 -0.7845  2.9779
16284TIP3   OH270266   5.467   1.290   2.375 -0.1661  0.3139 -0.1504
16284TIP3    H170267   5.469   1.376   2.416 -0.1758 -0.2855  1.1613
16284TIP3    H270268   5.523   1.297   2.298  1.0578  1.0742  0.7994
16285TIP3   OH270269   4.941   6.074   2.779 -0.7847 -0.4614 -0.5386
16285TIP3    H170270   4.957   5.986   2.813 -1.2793 -0.0560  0.7481
16285TIP3    H270271   4.872   6.109   2.835 -0.7612  0.6659 -1.2058
16286TIP3   OH270272   3.538   5.173   1.133  0.7849 -0.3588  0.0605
16286TIP3    H170273   3.514   5.190   1.042 -1.7066 -2.0601  0.3595
16286TIP3    H270274   3.483   5.233   1.184  0.5405 -0.9685  0.5280
16287TIP3   OH270275   2.318   6.687   2.517  0.3429 -0.7342 -0.3161
16287TIP3    H170276   2.291   6.647   2.600 -0.1379  0.2452  0.0067
16287TIP3    H270277   2.236   6.701   2.470  0.4126  0.8051  0.0039
16288TIP3   OH270278   3.697   3.218   0.119  0.3410  0.7778  0.0006
16288TIP3    H170279   3.605   3.190   0.124  0.4986  0.5387  1.9346
16288TIP3    H270280   3.712   3.233   0.026 -1.5219  0.3389 -0.4002
16289TIP3   OH270281   7.248   6.485   4.272 -0.6363  0.1097 -0.6680
16289TIP3    H170282   7.231   6.447   4.359  0.3309  1.2814  0.0529
16289TIP3    H270283   7.161   6.497   4.234 -1.1171  0.2721  0.4536
16290TIP3   OH270284   3.809   4.513   2.672 -0.0708  0.1532 -0.1434
16290TIP3    H170285   3.765   4.461   2.739 -0.1851 -1.4416 -1.4187
16290TIP3    H270286   3.872   4.565   2.721  1.2032 -2.3868  1.0591
16291TIP3   OH270287   3.923   0.611   2.909  0.3619  0.5254 -0.3082
16291TIP3    H170288   3.885   0.680   2.963  0.5362 -0.7447  1.4597
16291TIP3    H270289   3.848   0.571   2.864  0.0055  0.3690  0.4239
16292TIP3   OH270290   6.520   0.475   4.793 -0.3270  0.1989  0.0299
16292TIP3    H170291   6.453   0.409   4.812 -0.7352 -0.5011 -3.4761
16292TIP3    H270292   6.496   0.550   4.847 -3.4483 -0.3615 -0.4972
16293TIP3   OH270293   4.954   0.007   2.788 -0.0998  0.6889 -0.0234
16293TIP3    H170294   4.939   0.101   2.801 -0.3579  0.5085  1.0499
16293TIP3    H270295   5.038  -0.010   2.831  0.1270  0.5050 -0.5432
16294TIP3   OH270296   5.639   3.220   0.416 -0.1994 -0.4713 -0.1109
16294TIP3    H170297   5.689   3.146   0.381 -1.0678 -1.2302  0.2329
16294TIP3    H270298   5.693   3.254   0.487  1.7720  1.3436 -2.3868
16295TIP3   OH270299   5.178   1.198   0.749 -0.2576  0.1070 -0.0496
16295TIP3    H170300   5.133   1.272   0.791  0.6505  0.7357 -0.1818
16295TIP3    H270301   5.267   1.229   0.736 -0.3720 -0.3162 -1.8663
16296TIP3   OH270302   1.482   0.481   4.760  0.4643  0.0016  0.7997
16296TIP3    H170303   1.569   0.517   4.777  0.8787 -0.3822 -0.4697
16296TIP3    H270304   1.422   0.552   4.783  1.2288  1.1551 -0.7334
16297TIP3   OH270305   4.955   3.067  15.957  0.2011  0.0379  0.3741
16297TIP3    H170306   5.040   3.107  15.939 -0.0456  0.0110 -0.9227
16297TIP3    H270307   4.910   3.067  15.872 -1.2243  0.3564  1.1121
16298TIP3   OH270308   6.249   2.286   1.496 -0.6538  0.5229 -0.0152
16298TIP3    H170309   6.284   2.208   1.452 -0.9592  0.7841 -0.7243
16298TIP3    H270310   6.268   2.358   1.436 -0.3753  0.9959  0.6437
16299TIP3   OH270311   0.599   1.118   3.183 -0.1916  0.5009 -0.2902
16299TIP3    H170312   0.551   1.174   3.244  2.2652  0.7698  1.4586
16299TIP3    H270313   0.633   1.178   3.117  1.3652  0.9258  0.8781
16300TIP3   OH270314   5.072   6.549   2.454  0.0603  0.4124 -0.3872
16300TIP3    H170315   5.096   6.472   2.404 -1.0323  0.1174 -0.4621
16300TIP3    H270316   5.055   6.516   2.542 -0.9430  0.4777 -0.5508
16301TIP3   OH270317   1.185   4.826  15.345  0.8406 -0.0310 -0.1898
16301TIP3    H170318   1.172   4.863  15.258 -0.3417 -0.4335 -0.1967
16301TIP3    H270319   1.243   4.751  15.332  0.1393 -0.4862 -0.7291
16302TIP3   OH270320   4.397   6.600   0.708  0.0148 -0.3176 -0.0047
16302TIP3    H170321   4.448   6.680   0.693 -0.4929  1.1691  5.0710
16302TIP3    H270322   4.457   6.529   0.687  2.1500  1.4307 -0.0542
16303TIP3   OH270323   1.145   6.298   3.003  0.5087 -0.0641 -0.1257
16303TIP3    H170324   1.101   6.218   3.031  0.8880 -0.0229  0.6091
16303TIP3    H270325   1.180   6.336   3.084 -0.0422  1.0695 -0.4032
16304TIP3   OH270326   4.364   0.366   1.081 -0.0523  0.3955  0.1723
16304TIP3    H170327   4.310   0.301   1.035 -1.4151  1.9116 -0.4286
16304TIP3    H270328   4.323   0.450   1.060  1.8698  1.4854  0.6840
16305TIP3   OH270329   0.465   6.198   2.098  0.2559  0.2329 -0.0613
16305TIP3    H170330   0.437   6.272   2.152 -1.3160  0.4810 -1.1528
16305TIP3    H270331   0.540   6.161   2.143 -1.1875  0.2466  2.4315
16306TIP3   OH270332   3.993   2.077   2.246 -0.1642  0.7712 -0.4151
16306TIP3    H170333   4.055   2.122   2.189  0.3207  0.4724 -0.1174
16306TIP3    H270334   3.987   1.988   2.211  0.2651  0.5368  0.1071
16307TIP3   OH270335   5.057   4.943   5.529 -0.2725 -0.3961  0.1513
16307TIP3    H170336   5.025   4.938   5.440  2.4187 -2.0380 -0.7797
16307TIP3    H270337   4.988   4.904   5.582 -2.0473  0.9306 -1.1274
16308TIP3   OH270338   5.147   0.097   3.224  0.3210 -0.4533  0.3241
16308TIP3    H170339   5.171   0.118   3.314  1.5268  1.5698 -0.4074
16308TIP3    H270340   5.231   0.096   3.177 -0.4165  0.1365 -1.0484
16309TIP3   OH270341   0.056   7.279   2.249 -0.2081  0.7858  0.2025
16309TIP3    H170342  -0.016   7.338   2.225 -0.6862 -0.5739 -1.7977
16309TIP3    H270343   0.134   7.320   2.210 -0.3960  0.6145 -0.3612
16310TIP3   OH270344   4.978   6.493   4.161 -0.1271 -0.4563 -0.0297
16310TIP3    H170345   5.058   6.453   4.194  0.2621 -0.1248 -0.5686
16310TIP3    H270346   4.915   6.481   4.232  0.0169 -1.8885 -0.1151
16311TIP3   OH270347   6.976   6.285   3.354 -0.5210 -0.5503  0.0512
16311TIP3    H170348   7.011   6.372   3.374 -2.9222  0.3367  0.6658
16311TIP3    H270349   6.983   6.278   3.259  1.2104 -0.3708  0.1560
16312TIP3   OH270350   4.703   4.683   3.152 -0.1277  0.0904  0.0528
16312TIP3    H170351   4.787   4.638   3.157 -0.9453 -1.6246 -1.1595
16312TIP3    H270352   4.662   4.667   3.236  0.1634 -0.2639  0.1281
16313TIP3   OH270353   3.023   0.011   1.158  0.1541 -0.1896 -0.9642
16313TIP3    H170354   3.109  -0.027   1.176 -0.3326  0.2776  2.7293
16313TIP3    H270355   2.963  -0.064   1.161 -0.0848  0.0549  0.7032
16314TIP3   OH270356   5.392   4.073   5.559 -0.3463 -0.0701  0.4265
16314TIP3    H170357   5.359   4.108   5.642 -1.0920  0.3994 -0.0580
16314TIP3    H270358   5.466   4.130   5.536 -0.6391  0.2954  0.3759
16315TIP3   OH270359   6.674   5.420   2.897  0.0547  0.0846 -0.6359
16315TIP3    H170360   6.758   5.462   2.876  0.8087 -0.1418  1.7556
16315TIP3    H270361   6.609   5.488   2.882  0.8651  0.8320 -0.7995
16316TIP3   OH270362   4.277   6.863   3.802  0.2726  0.3867  0.1211
16316TIP3    H170363   4.214   6.851   3.874  1.9889 -0.8250  1.4514
16316TIP3    H270364   4.248   6.801   3.735  0.0339 -0.1469  0.7118
16317TIP3   OH270365   0.205   1.459   1.569  0.4711 -0.5595 -0.0611
16317TIP3    H170366   0.231   1.533   1.515  0.7164 -1.3086 -0.9992
16317TIP3    H270367   0.122   1.486   1.609  0.8666  0.4469  0.0881
16318TIP3   OH270368   1.641   5.164   1.165 -0.3843 -0.0629 -0.0628
16318TIP3    H170369   1.672   5.076   1.141 -0.9524 -0.0873 -0.7597
16318TIP3    H270370   1.708   5.223   1.131 -0.3367 -0.1951 -0.2034
16319TIP3   OH270371   2.372   6.945   2.421 -0.6161 -0.6183  0.4138
16319TIP3    H170372   2.342   6.899   2.500 -0.6250 -0.8772  0.2611
16319TIP3    H270373   2.442   6.890   2.386  3.1666  2.2374  3.2107
16320TIP3   OH270374   1.832   6.920   5.758 -0.2172  0.5196 -0.2559
16320TIP3    H170375   1.744   6.938   5.725  0.2860  1.0042 -1.3513
16320TIP3    H270376   1.879   6.885   5.683  0.0704 -1.2925  0.7446
16321TIP3   OH270377   3.896   2.605   3.818  0.5386  0.3876  0.0138
16321TIP3    H170378   3.887   2.646   3.904  0.3154  1.2470 -0.4209
16321TIP3    H270379   3.839   2.528   3.822 -0.2526  0.9854  0.2850
16322TIP3   OH270380   4.975   3.810   4.750 -0.1260 -0.1840  0.6982
16322TIP3    H170381   5.070   3.817   4.745 -0.0830 -0.5264  0.9952
16322TIP3    H270382   4.955   3.814   4.844 -0.6383  2.7086  0.4984
16323TIP3   OH270383   6.954   4.826   3.502 -0.1930 -0.1496  0.5174
16323TIP3    H170384   6.878   4.859   3.454  1.0287  0.4455 -1.0823
16323TIP3    H270385   6.997   4.905   3.534  1.9171 -0.1778 -2.0278
16324TIP3   OH270386   4.959   5.289   2.592 -0.1146  0.3093  0.6703
16324TIP3    H170387   4.920   5.225   2.533 -1.0732  1.2989  0.2272
16324TIP3    H270388   4.949   5.250   2.679 -0.0281 -0.4691  0.3389
16325TIP3   OH270389   6.935   0.593   0.963 -0.4592  0.2715  0.5516
16325TIP3    H170390   6.876   0.519   0.953  0.7113 -0.6265  0.2429
16325TIP3    H270391   6.974   0.605   0.876  0.4379  0.3359  0.9629
16326TIP3   OH270392   4.799   6.035   2.552 -0.6343 -0.5335  0.0331
16326TIP3    H170393   4.750   5.956   2.574 -1.2540  0.5691  2.7598
16326TIP3    H270394   4.856   6.050   2.627 -0.4303  1.5579 -0.5144
16327TIP3   OH270395   4.254   5.801   2.176 -0.2141  0.0173 -0.6597
16327TIP3    H170396   4.306   5.725   2.149  0.1655  0.4401 -1.1398
16327TIP3    H270397   4.236   5.847   2.094 -0.6779  0.2965 -0.4012
16328TIP3   OH270398   6.345   5.829   0.687 -0.7778  0.1565 -0.0436
16328TIP3    H170399   6.368   5.921   0.698 -2.3064  0.6438 -0.7153
16328TIP3    H270400   6.321   5.821   0.595 -1.0211 -0.8374  0.0943
16329TIP3   OH270401   6.971   0.080   4.120 -0.2440 -0.0955 -0.4398
16329TIP3    H170402   7.059   0.054   4.093 -0.1951  0.8349 -1.1893
16329TIP3    H270403   6.981   0.112   4.209  0.0978 -0.4192 -0.3636
16330TIP3   OH270404   4.116   6.210   3.039 -0.2058 -0.5860  0.2307
16330TIP3    H170405   4.086   6.268   3.110  0.4520 -0.7637  0.6544
16330TIP3    H270406   4.204   6.183   3.066 -1.3649 -3.6452  1.2107
16331TIP3   OH270407   3.813   6.435   3.817  0.3935 -0.5228  0.1862
16331TIP3    H170408   3.902   6.465   3.799  0.0924  0.1198 -0.2725
16331TIP3    H270409   3.774   6.505   3.870 -0.0496 -0.4717 -0.1959
16332TIP3   OH270410   3.595   4.029  15.886  0.3096 -0.5478 -0.2412
16332TIP3    H170411   3.666   4.009  15.947  0.0464 -0.3788  0.1287
16332TIP3    H270412   3.572   3.945  15.848 -0.7493 -0.9690  1.2654
16333TIP3   OH270413   3.394   6.185   2.755  0.1969 -0.1181 -0.0353
16333TIP3    H170414   3.472   6.134   2.738 -0.9930 -1.6238 -1.0337
16333TIP3    H270415   3.372   6.165   2.846 -0.1878 -1.2770 -0.3823
16334TIP3   OH270416   6.440   1.727   3.039  0.5262 -0.0086 -0.2895
16334TIP3    H170417   6.365   1.730   2.980  0.9081  0.8062 -0.7424
16334TIP3    H270418   6.406   1.689   3.120 -1.2438  3.6774  0.7850
16335TIP3   OH270419   6.027   5.678   4.918  0.2835  0.4823  0.4589
16335TIP3    H170420   5.937   5.700   4.895  0.6494 -0.1811 -1.7084
16335TIP3    H270421   6.073   5.761   4.919  0.3771  0.4875 -1.8461
16336TIP3   OH270422   4.331   1.030   3.482  0.2717 -0.2767 -0.0555
16336TIP3    H170423   4.279   0.981   3.546 -0.8023 -0.1363 -0.8159
16336TIP3    H270424   4.349   1.114   3.525 -1.5755  0.3319 -0.4467
16337TIP3   OH270425   5.477   0.016   4.698  0.6159  0.4154 -0.3413
16337TIP3    H170426   5.534  -0.041   4.645  0.9325  1.4898 -1.1622
16337TIP3    H270427   5.436   0.075   4.635  0.0036  0.8613  0.4700
16338TIP3   OH270428   1.420   5.786   5.057 -0.2428 -0.3304 -0.1495
16338TIP3    H170429   1.417   5.881   5.045  0.7022 -0.2191  0.4077
16338TIP3    H270430   1.476   5.774   5.133 -0.9417 -1.3075  0.2183
16339TIP3   OH270431   3.840   0.879  13.703  0.2198  0.3074 -0.5078
16339TIP3    H170432   3.855   0.945  13.771 -1.9592  0.6618 -0.3586
16339TIP3    H270433   3.843   0.928  13.621 -0.0425  0.3647 -0.4841
16340TIP3   OH270434   6.018   6.704   4.373  0.7764 -0.7230  0.3215
16340TIP3    H170435   6.098   6.755   4.362 -1.3728  2.3827 -1.6342
16340TIP3    H270436   5.959   6.735   4.303 -2.7910 -1.6176  2.7752
16341TIP3   OH270437   1.726   5.775   1.714 -0.1253  0.6265  0.2913
16341TIP3    H170438   1.810   5.738   1.688 -0.1422  0.9875 -0.2750
16341TIP3    H270439   1.674   5.699   1.742  0.0666  0.3010 -0.2391
16342TIP3   OH270440   1.230   5.321   1.359 -0.3655 -0.1176 -0.6334
16342TIP3    H170441   1.240   5.259   1.286 -1.9274  0.0587 -1.0260
16342TIP3    H270442   1.319   5.339   1.388  0.2296 -0.8277 -1.9742
16343TIP3   OH270443   4.500   6.511   3.288  0.4307 -0.6402  0.1416
16343TIP3    H170444   4.480   6.466   3.370  1.9983 -1.5747  0.0258
16343TIP3    H270445   4.575   6.464   3.252  1.7618  1.6986 -0.2539
16344TIP3   OH270446   0.293   6.325   3.806 -0.1018 -0.2712 -0.0201
16344TIP3    H170447   0.270   6.284   3.889 -1.2736 -1.2467 -0.8014
16344TIP3    H270448   0.250   6.270   3.740  1.8642 -0.2756 -1.3489
16345TIP3   OH270449   3.420   4.512   1.033 -0.0947 -0.1860 -0.2379
16345TIP3    H170450   3.511   4.483   1.030  0.5640  1.8245 -0.4786
16345TIP3    H270451   3.376   4.461   0.964  0.4210 -2.4781  1.0759
16346TIP3   OH270452   2.102   0.739   4.364  0.5188 -0.0617 -0.1941
16346TIP3    H170453   2.119   0.771   4.452  2.0371  1.1688 -0.9207
16346TIP3    H270454   2.028   0.791   4.333  0.7466  0.3291 -0.0841
16347TIP3   OH270455   2.947   6.082   1.581  0.4829  0.2306  0.2537
16347TIP3    H170456   2.996   6.095   1.662  1.3136 -0.8576 -0.0669
16347TIP3    H270457   2.867   6.134   1.593  0.8335  0.4931  1.5508
16348TIP3   OH270458   4.085   6.412   4.998  0.2593  0.1294  0.2501
16348TIP3    H170459   4.064   6.411   4.905 -0.2172  1.8070  0.3251
16348TIP3    H270460   4.180   6.410   5.002  0.3190  1.3341 -0.3190
16349TIP3   OH270461   6.251   6.658   3.601  0.0718  0.4389 -0.3646
16349TIP3    H170462   6.311   6.698   3.538 -2.0779  0.7646 -2.2293
16349TIP3    H270463   6.220   6.579   3.558 -0.0497 -0.2876  1.0347
16350TIP3   OH270464   2.106   2.336   0.535  0.0415  0.4975  0.3089
16350TIP3    H170465   2.072   2.283   0.463  0.1747  0.4445  0.2840
16350TIP3    H270466   2.173   2.391   0.494 -0.7115  1.3215  0.1656
16351TIP3   OH270467   6.579   1.041   3.977  0.0262  0.1487  0.2263
16351TIP3    H170468   6.664   1.001   3.964  0.8818  1.6282  1.0894
16351TIP3    H270469   6.529   0.977   4.027  0.7605 -0.5684  0.0414
16352TIP3   OH270470   4.030   6.794   2.600 -0.0056 -0.3076 -0.3893
16352TIP3    H170471   4.040   6.752   2.685 -2.3411  1.9396  1.0837
16352TIP3    H270472   3.982   6.731   2.547 -0.5026 -0.8612  0.7049
16353TIP3   OH270473   0.006   4.024   2.079  0.0888  0.6314 -0.2896
16353TIP3    H170474  -0.032   4.065   2.001  1.4486  1.0854 -0.7216
16353TIP3    H270475   0.100   4.035   2.069  0.3308 -0.1627  0.9556
16354TIP3   OH270476   6.624   1.308   2.757 -0.4410 -0.7929 -0.1115
16354TIP3    H170477   6.572   1.380   2.723 -0.6481 -0.8211  0.1496
16354TIP3    H270478   6.637   1.250   2.681  2.6412  1.2023 -1.1950
16355TIP3   OH270479   3.769   6.168   1.392  0.6492 -0.1579  0.1711
16355TIP3    H170480   3.735   6.233   1.455  0.0581 -0.3675  0.0769
16355TIP3    H270481   3.825   6.219   1.333 -0.4337  0.4293 -0.3855
16356TIP3   OH270482   5.364   5.087  15.886  0.1842  0.5530  0.0612
16356TIP3    H170483   5.451   5.123  15.870 -0.5722  2.4066 -0.0256
16356TIP3    H270484   5.364   5.002  15.841  1.9976  0.4489  0.2316
16357TIP3   OH270485   4.390   1.138   3.044  0.0492  0.0556  0.1556
16357TIP3    H170486   4.351   1.225   3.033 -1.2905 -0.5588 -0.0906
16357TIP3    H270487   4.371   1.092   2.963  0.1685 -0.6887  0.5389
16358TIP3   OH270488   0.660   5.893   2.426  0.2596  0.2361 -0.3433
16358TIP3    H170489   0.667   5.835   2.503 -0.8122 -1.1978 -1.2992
16358TIP3    H270490   0.652   5.833   2.352 -2.8448  1.6129 -1.1699
16359TIP3   OH270491   6.964   0.951   3.201  0.0348  0.0923  0.4536
16359TIP3    H170492   6.997   1.012   3.134 -0.0454 -0.6553 -0.2763
16359TIP3    H270493   6.904   1.004   3.254  0.8015  0.9264  0.5008
16360TIP3   OH270494   4.876   5.644   1.608  0.6238 -0.0422 -0.4027
16360TIP3    H170495   4.814   5.573   1.589 -1.2523  1.8094 -1.4216
16360TIP3    H270496   4.932   5.609   1.676 -1.1055 -2.0498  0.0518
16361TIP3   OH270497   3.112   5.192   3.797 -0.0113  0.1028  0.0097
16361TIP3    H170498   3.111   5.283   3.767  0.3942 -0.0538 -0.4918
16361TIP3    H270499   3.065   5.193   3.880 -0.1176  0.7493 -0.0585
16362TIP3   OH270500   5.927   4.360   5.977 -0.4102  0.8159  0.6319
16362TIP3    H170501   5.835   4.345   5.998 -0.5474  0.1678 -0.4276
16362TIP3    H270502   5.940   4.454   5.991 -1.8016  1.3294 -1.3597
16363TIP3   OH270503   6.115   0.102   2.145  0.2019 -0.0243 -0.0886
16363TIP3    H170504   6.111   0.090   2.050 -1.0464  0.0170 -0.0579
16363TIP3    H270505   6.155   0.022   2.178  1.6592  0.4240 -0.7282
16364TIP3   OH270506   3.771   0.323   5.476 -0.2736 -0.5131  0.2195
16364TIP3    H170507   3.854   0.337   5.521 -0.5132  1.9122  0.0052
16364TIP3    H270508   3.779   0.236   5.437  1.7469 -0.7462  1.0935
16365TIP3   OH270509   4.157   5.002  12.273  0.0986 -0.6901 -0.2282
16365TIP3    H170510   4.105   4.959  12.341  0.2726 -0.2578  0.1840
16365TIP3    H270511   4.229   4.941  12.256  0.2927 -0.6102  0.2838
16366TIP3   OH270512   3.891   5.985   2.636  0.2190 -0.3301 -0.5417
16366TIP3    H170513   3.922   6.055   2.694  0.9965 -1.5266  0.5250
16366TIP3    H270514   3.826   5.939   2.689 -2.0722  1.0061 -2.0865
16367TIP3   OH270515   4.165   4.093   3.551  0.0677 -0.1860 -0.3199
16367TIP3    H170516   4.182   4.051   3.467 -0.4570 -1.5081  0.2266
16367TIP3    H270517   4.220   4.172   3.550  0.2721 -0.3370 -1.7755
16368TIP3   OH270518   1.474   6.675   0.774 -0.5530  0.5203 -0.2036
16368TIP3    H170519   1.479   6.668   0.679  0.3619  0.6550 -0.1743
16368TIP3    H270520   1.381   6.672   0.794 -0.7235 -0.0442 -1.0653
16369TIP3   OH270521   1.704   1.249   2.452 -0.7389  0.3025  0.2047
16369TIP3    H170522   1.749   1.249   2.536  0.9858  0.5899 -0.7131
16369TIP3    H270523   1.618   1.209   2.471 -0.4868  0.6529  2.1449
16370TIP3   OH270524   3.164   5.495   1.447 -0.1058 -0.5132  0.2249
16370TIP3    H170525   3.209   5.561   1.393  1.8389 -1.6872  0.3607
16370TIP3    H270526   3.100   5.456   1.388 -0.6662  0.8715 -0.1133
16371TIP3   OH270527   0.113   4.924   3.716 -0.2605  0.2512  0.6759
16371TIP3    H170528   0.095   4.968   3.633  1.7179  0.8115  0.5049
16371TIP3    H270529   0.038   4.945   3.772 -1.8703 -0.5916 -1.1279
16372TIP3   OH270530   3.089   0.303   4.851 -0.0180 -0.0861 -0.2729
16372TIP3    H170531   3.095   0.339   4.940  1.1696  1.3120 -0.9088
16372TIP3    H270532   3.017   0.351   4.810 -0.4967 -0.6577 -0.1155
16373TIP3   OH270533   4.768   0.736   2.598 -0.4813 -0.3071  0.0268
16373TIP3    H170534   4.693   0.676   2.605 -1.4278  0.9537  0.7769
16373TIP3    H270535   4.734   0.821   2.626  1.2532  0.2657  0.4368
16374TIP3   OH270536   5.851   5.787   2.183 -0.3177 -0.3558  0.0862
16374TIP3    H170537   5.893   5.710   2.145  2.9334  2.0422 -1.4591
16374TIP3    H270538   5.823   5.839   2.107  1.2562  1.8790  0.9665
16375TIP3   OH270539   2.302   6.958   1.717 -0.0150  0.1878  0.3525
16375TIP3    H170540   2.214   6.926   1.736 -0.5012  0.0670 -1.9266
16375TIP3    H270541   2.360   6.888   1.746 -0.8072 -0.7193 -0.2375
16376TIP3   OH270542   7.248   5.486   0.749 -0.2671  0.0879  0.1488
16376TIP3    H170543   7.327   5.489   0.694  0.4709 -0.7582  1.1497
16376TIP3    H270544   7.219   5.395   0.743  0.8130 -0.4604  2.5204
16377TIP3   OH270545   3.767   0.603   4.403 -0.2182  0.2384 -0.3081
16377TIP3    H170546   3.682   0.561   4.414 -0.4139  0.5906 -0.4694
16377TIP3    H270547   3.817   0.541   4.349  0.0110 -0.4781  0.7013
16378TIP3   OH270548   4.873   5.557   3.241  0.5834  0.1129 -0.2154
16378TIP3    H170549   4.902   5.632   3.293 -2.1956  1.3615 -0.3792
16378TIP3    H270550   4.841   5.494   3.305 -0.7345  0.7290 -0.2328
16379TIP3   OH270551   4.396   7.008   0.955  0.1208 -0.3234  0.0944
16379TIP3    H170552   4.372   7.018   1.047  0.6814  0.5400  0.1486
16379TIP3    H270553   4.376   6.916   0.935 -0.4549 -0.3877  0.9401
16380TIP3   OH270554   3.320   0.387  14.615  0.1737 -0.2341 -0.1148
16380TIP3    H170555   3.252   0.328  14.648  0.2103  0.0051  0.3790
16380TIP3    H270556   3.290   0.474  14.639  0.0144 -0.0250 -1.0359
16381TIP3   OH270557   2.518   4.154   1.869  0.8467 -0.4925 -0.0616
16381TIP3    H170558   2.505   4.120   1.781 -1.0587 -0.0014 -0.0015
16381TIP3    H270559   2.499   4.248   1.862 -0.0862 -0.5777  0.9891
16382TIP3   OH270560   2.202   7.066   3.402  0.1256 -0.0464  0.2945
16382TIP3    H170561   2.254   7.123   3.458  0.2318 -0.2871  0.4410
16382TIP3    H270562   2.123   7.118   3.383 -1.1648 -0.9587  2.8548
16383TIP3   OH270563   0.571   2.441   2.580 -0.0309  0.2774 -0.1995
16383TIP3    H170564   0.503   2.385   2.616  1.0252 -0.4053  0.7897
16383TIP3    H270565   0.559   2.526   2.623 -0.4439  0.2504 -0.2660
16384TIP3   OH270566   4.099   6.026   4.135 -0.4322  0.6858  0.4294
16384TIP3    H170567   4.048   6.094   4.091 -2.7873 -0.4621  1.3030
16384TIP3    H270568   4.067   5.944   4.098  0.8777 -0.0496  0.9114
16385TIP3   OH270569   1.264   4.808   0.627 -0.1665  0.1360 -0.5500
16385TIP3    H170570   1.262   4.901   0.647  1.5946  0.2900 -1.0174
16385TIP3    H270571   1.173   4.780   0.632 -0.6706  1.8294 -0.1603
16386TIP3   OH270572   5.290   5.233   3.473  0.0285 -0.2083 -0.1112
16386TIP3    H170573   5.374   5.256   3.434 -0.7448  2.0418 -0.5604
16386TIP3    H270574   5.301   5.250   3.567  1.2710 -3.7392  0.4604
16387TIP3   OH270575   2.239   6.636  15.986  0.5059 -0.6982  0.4784
16387TIP3    H170576   2.268   6.725  15.966  2.7143 -1.4130  0.3549
16387TIP3    H270577   2.206   6.641  16.076  0.2153  0.3184  0.3226
16388TIP3   OH270578   0.738   0.906   2.624  0.0647 -0.0762  0.0377
16388TIP3    H170579   0.670   0.973   2.626 -0.1366 -0.2947  0.4413
16388TIP3    H270580   0.819   0.953   2.644  0.0352  0.1817 -0.4331
16389TIP3   OH270581   5.082   1.282   5.528 -0.4746 -0.0175 -0.2664
16389TIP3    H170582   5.045   1.370   5.517 -0.6964 -0.1331 -0.4535
16389TIP3    H270583   5.028   1.226   5.472 -1.7333 -0.6543  1.5229
16390TIP3   OH270584   4.211   1.275   4.899  0.0999  0.1797 -0.2545
16390TIP3    H170585   4.305   1.279   4.919 -0.1722 -3.1892  2.0777
16390TIP3    H270586   4.207   1.286   4.804  2.7128  1.8711 -0.2332
16391TIP3   OH270587   3.828   6.368   4.519  0.2156  0.6043 -0.0750
16391TIP3    H170588   3.865   6.427   4.454 -1.6697  0.7490 -1.0470
16391TIP3    H270589   3.737   6.394   4.526  0.4573  0.8154  2.9152
16392TIP3   OH270590   5.635   5.065   3.979  0.1523  0.1800  0.8355
16392TIP3    H170591   5.709   5.063   4.040  0.3293  2.0919  0.7024
16392TIP3    H270592   5.639   5.152   3.939 -0.2531 -0.8534 -1.5571
16393TIP3   OH270593   1.378   0.645   2.989  0.4301 -0.0753  0.2953
16393TIP3    H170594   1.385   0.589   2.911  0.2952  0.4376 -0.0930
16393TIP3    H270595   1.284   0.665   2.995  0.2148 -1.3744  1.4948
16394TIP3   OH270596   2.557   6.790   4.742  0.9111 -0.1654  0.6440
16394TIP3    H170597   2.554   6.695   4.749 -2.4061 -0.2307 -0.6844
16394TIP3    H270598   2.599   6.807   4.657 -1.4733 -0.5979 -0.6802
16395TIP3   OH270599   2.546   6.976   3.169 -0.2751 -0.4571 -0.1051
16395TIP3    H170600   2.481   7.041   3.143 -0.1296  0.7271  2.3982
16395TIP3    H270601   2.495   6.907   3.212 -0.6362 -2.8935 -4.1499
16396TIP3   OH270602   2.860   7.293   5.393 -0.0344 -0.2159  0.4566
16396TIP3    H170603   2.848   7.229   5.464 -0.4755  0.2887  0.8408
16396TIP3    H270604   2.839   7.245   5.313  0.9537 -0.9343  0.6164
16397TIP3   OH270605   4.187   6.322   4.336  0.4567  0.0016  0.4144
16397TIP3    H170606   4.235   6.288   4.261  1.6365 -0.4488  1.3593
16397TIP3    H270607   4.133   6.248   4.365 -1.1984  0.6535 -0.9426
16398TIP3   OH270608   3.292   0.315   2.903  0.0230  0.3156 -0.4183
16398TIP3    H170609   3.263   0.247   2.841 -1.9344  1.2841 -0.6135
16398TIP3    H270610   3.241   0.298   2.982 -0.0534  1.2084 -0.2775
16399TIP3   OH270611   3.986   0.153   2.042 -0.4506  0.2146 -0.0009
16399TIP3    H170612   3.943   0.230   2.079 -1.2302 -0.7036  1.0466
16399TIP3    H270613   4.004   0.097   2.117  2.4757  0.4937 -0.4389
16400TIP3   OH270614   3.421   0.575   5.857  0.0237  0.2922  0.5663
16400TIP3    H170615   3.368   0.591   5.779  1.1759  0.1649 -0.2597
16400TIP3    H270616   3.425   0.480   5.864 -0.0739  0.3028  0.7843
16401TIP3   OH270617   6.231   5.072   3.492 -0.6208 -0.4352  0.3740
16401TIP3    H170618   6.154   5.127   3.476 -1.2804 -1.4700 -0.0949
16401TIP3    H270619   6.213   5.029   3.575 -0.0100  0.2097  0.8434
16402TIP3   OH270620   2.331   6.574   4.547 -0.6876  0.6018  0.1413
16402TIP3    H170621   2.320   6.668   4.534  2.1160  1.0463  0.7898
16402TIP3    H270622   2.420   6.555   4.517 -1.2158 -1.8661 -0.0319
16403TIP3   OH270623   5.657   2.604   2.466 -0.0426  0.4852  0.1625
16403TIP3    H170624   5.667   2.568   2.379  1.2508 -1.9628  1.3002
16403TIP3    H270625   5.567   2.582   2.491 -1.4137  3.6312 -1.5522
16404TIP3   OH270626   5.551   0.559   4.807  0.2162 -0.1593 -0.0592
16404TIP3    H170627   5.493   0.554   4.883 -1.1638  0.3366 -1.0628
16404TIP3    H270628   5.592   0.646   4.814 -0.6775  0.2985 -0.4241
16405TIP3   OH270629   6.569   2.725   0.107 -0.7610 -0.3761  0.3366
16405TIP3    H170630   6.559   2.738   0.012  1.5386 -0.6001  0.0396
16405TIP3    H270631   6.606   2.638   0.115 -0.1014  0.0049  1.4014
16406TIP3   OH270632   6.318   6.029   0.294 -0.0961  0.0155 -0.1156
16406TIP3    H170633   6.344   5.953   0.345 -0.0520 -0.8724 -1.4280
16406TIP3    H270634   6.366   6.102   0.333 -0.5006 -0.5422  1.4416
16407TIP3   OH270635   5.047   0.618   3.675  0.4045  0.0841  1.0568
16407TIP3    H170636   5.143   0.614   3.677  0.5235  1.4441 -0.9558
16407TIP3    H270637   5.027   0.710   3.659 -1.1847 -0.5811 -0.8753
16408TIP3   OH270638   6.768   6.021   5.026  0.2026 -0.1442 -0.2681
16408TIP3    H170639   6.721   6.067   5.096 -0.1233 -0.7277 -0.1050
16408TIP3    H270640   6.745   6.070   4.947  0.6151  0.5512  0.0350
16409TIP3   OH270641   4.733   6.519   2.737 -0.1710 -0.5882 -0.0128
16409TIP3    H170642   4.695   6.595   2.781  0.1991  0.1546 -0.9600
16409TIP3    H270643   4.698   6.523   2.648  0.0045 -1.4209 -0.1261
16410TIP3   OH270644   6.386   4.148   5.386 -0.3231  0.2418  0.5028
16410TIP3    H170645   6.442   4.158   5.463 -0.6412  0.8568  0.6585
16410TIP3    H270646   6.445   4.162   5.311  0.0126 -0.4866  0.6302
16411TIP3   OH270647   5.338   7.206   4.176 -0.2200  0.2465 -0.0662
16411TIP3    H170648   5.418   7.154   4.163 -0.6607 -0.4234 -0.1013
16411TIP3    H270649   5.280   7.148   4.225 -1.9438 -0.4735 -2.8825
16412TIP3   OH270650   4.869   5.359   3.677  0.1056  0.4076  0.0175
16412TIP3    H170651   4.871   5.446   3.716  1.5522 -0.5764  2.2037
16412TIP3    H270652   4.815   5.370   3.598  0.8261  3.4177 -0.1356
16413TIP3   OH270653   0.082   4.831   3.052  0.4351  0.5435 -0.7972
16413TIP3    H170654   0.078   4.843   3.147  3.1580 -0.5456 -0.5144
16413TIP3    H270655   0.020   4.760   3.035 -2.0607  2.4835 -0.2298
16414TIP3   OH270656   5.693   4.648   5.762  1.0825 -0.1386 -0.0867
16414TIP3    H170657   5.765   4.709   5.748  1.0391  0.7266  3.0963
16414TIP3    H270658   5.721   4.596   5.837 -0.7546 -1.1694 -0.0999
16415TIP3   OH270659   3.904   1.976   3.325 -0.7181 -0.6497  0.5559
16415TIP3    H170660   3.818   1.984   3.366 -0.7379 -0.5831  0.4999
16415TIP3    H270661   3.962   2.029   3.380 -0.3853 -1.9824  1.5463
16416TIP3   OH270662   2.966   4.542   4.699  0.6578 -0.2111 -0.8728
16416TIP3    H170663   3.011   4.458   4.687  0.7720 -0.7482  2.7815
16416TIP3    H270664   2.875   4.518   4.719 -0.4309  0.7563 -4.2086
16417TIP3   OH270665   2.796   0.569   2.006  0.0323 -0.1034  0.3047
16417TIP3    H170666   2.860   0.528   1.948  0.4017  1.5290 -0.4703
16417TIP3    H270667   2.846   0.589   2.085  0.8559  2.3106 -0.7652
16418TIP3   OH270668   7.102   6.231   4.435  0.0515 -0.7648  0.5680
16418TIP3    H170669   7.177   6.281   4.467 -0.6951  0.6097  0.2031
16418TIP3    H270670   7.038   6.298   4.409 -0.8301 -1.9079 -0.2352
16419TIP3   OH270671   6.580   6.062   5.900  0.1401  0.5668 -0.3362
16419TIP3    H170672   6.546   6.025   5.819  1.8372  0.5949 -1.0969
16419TIP3    H270673   6.534   6.016   5.969 -0.7158 -0.0648 -1.3195
16420TIP3   OH270674   7.082   0.950   3.885  0.2862 -0.1746 -0.0655
16420TIP3    H170675   7.030   0.970   3.963  1.6164  0.2115  0.7431
16420TIP3    H270676   7.059   1.018   3.822  0.9350  0.8998  0.8376
16421TIP3   OH270677   5.944   4.817   2.803 -0.1463 -0.3280  0.8200
16421TIP3    H170678   5.897   4.899   2.819 -1.8687 -1.3732  1.2641
16421TIP3    H270679   6.036   4.843   2.793 -0.2034  1.3569  3.9685
16422TIP3   OH270680   1.372   5.248   3.390 -0.1448 -0.8328 -0.3057
16422TIP3    H170681   1.409   5.208   3.469  0.9260 -0.4919 -0.6220
16422TIP3    H270682   1.372   5.342   3.409 -0.8384 -0.8231 -0.3244
16423TIP3   OH270683   4.737   1.680   1.559  0.0048 -0.3154  0.0640
16423TIP3    H170684   4.655   1.653   1.518  1.3266 -0.4412 -2.6035
16423TIP3    H270685   4.754   1.613   1.625 -2.3657  0.0802  1.1192
16424TIP3   OH270686   2.719   1.536   3.200 -0.0513 -0.1034 -0.2639
16424TIP3    H170687   2.750   1.526   3.290  0.0992  2.0121 -0.0740
16424TIP3    H270688   2.793   1.575   3.154 -0.4800 -0.2674 -1.0870
16425TIP3   OH270689   3.954   0.583   4.175  0.1741 -0.1005  0.4007
16425TIP3    H170690   3.947   0.509   4.115  1.0885 -0.4808  0.7523
16425TIP3    H270691   3.931   0.659   4.122  0.3059 -0.5062 -0.2461
16426TIP3   OH270692   0.561   2.025   4.039  0.0289  0.3857  0.0769
16426TIP3    H170693   0.604   2.082   4.103 -0.4007  0.1707  0.5594
16426TIP3    H270694   0.589   1.937   4.062  0.7410  0.3987 -0.7101
16427TIP3   OH270695   3.003   0.414   3.432  0.3322  0.1954  0.0439
16427TIP3    H170696   2.915   0.402   3.396  1.0814 -1.0395 -1.4435
16427TIP3    H270697   3.021   0.507   3.420 -0.5033  0.3221 -0.2938
16428TIP3   OH270698   5.159   4.741   0.954  0.0909 -0.1272 -0.5342
16428TIP3    H170699   5.207   4.823   0.944  1.7055 -0.7656  1.5722
16428TIP3    H270700   5.067   4.767   0.960  0.4990  1.4284 -0.9380
16429TIP3   OH270701   6.167   0.442   4.564  0.1366  0.0009  0.0125
16429TIP3    H170702   6.099   0.509   4.561 -1.9883 -1.6654  5.2879
16429TIP3    H270703   6.127   0.366   4.522 -0.6700 -0.4945  1.6643
16430TIP3   OH270704   4.884   0.894  15.942 -0.0267 -0.2035  0.1815
16430TIP3    H170705   4.790   0.884  15.960 -0.4707 -0.6103 -2.1587
16430TIP3    H270706   4.888   0.924  15.851  2.1051  0.0984  0.3534
16431TIP3   OH270707   6.042   0.897  14.931 -0.4034  0.2373 -0.3461
16431TIP3    H170708   6.011   0.900  14.840 -0.5732 -0.9516 -0.3317
16431TIP3    H270709   6.120   0.842  14.928 -0.8390 -0.4246  0.3516
16432TIP3   OH270710   1.195   1.155   1.967  0.1481  0.4995 -0.0171
16432TIP3    H170711   1.142   1.180   1.891 -1.1114 -4.7316 -1.0068
16432TIP3    H270712   1.131   1.133   2.034  1.2310  1.2522  1.2952
16433TIP3   OH270713   4.855   0.865   4.976 -0.0527 -0.1119 -0.2907
16433TIP3    H170714   4.946   0.849   4.949  0.5661  1.0262  1.0839
16433TIP3    H270715   4.854   0.957   5.003 -1.7477  0.0262 -0.7888
16434TIP3   OH270716   3.581   5.836   4.640  0.7551 -0.0093  0.1456
16434TIP3    H170717   3.609   5.879   4.721 -0.5229  0.5031  0.3301
16434TIP3    H270718   3.530   5.761   4.669 -1.5819  1.4145 -0.1469
16435TIP3   OH270719   5.466   4.493   4.070  0.3323 -0.6179  0.1530
16435TIP3    H170720   5.492   4.404   4.092  0.5972 -0.9759 -1.6040
16435TIP3    H270721   5.524   4.548   4.122  2.7263 -1.4393 -1.5685
16436TIP3   OH270722   0.352   4.953   1.528  0.0042  0.0045  0.3264
16436TIP3    H170723   0.275   5.005   1.552 -1.0610 -1.3803 -0.0281
16436TIP3    H270724   0.401   4.944   1.610 -0.2344  0.8219  0.5668
16437TIP3   OH270725   2.081   6.865   3.066 -0.0471 -0.0611  0.1441
16437TIP3    H170726   2.002   6.916   3.048 -0.8435 -0.4577  2.3389
16437TIP3    H270727   2.054   6.774   3.055  0.3548 -0.1682  0.0226
16438TIP3   OH270728   6.688   6.210   1.503 -0.6058 -0.0848  0.0301
16438TIP3    H170729   6.606   6.259   1.499 -0.8602 -0.4592  0.5315
16438TIP3    H270730   6.739   6.243   1.429 -0.3839  1.6195  0.9306
16439TIP3   OH270731   0.405   0.533   1.533 -0.4320  0.0001  0.1477
16439TIP3    H170732   0.321   0.556   1.494 -0.1900 -0.6973 -0.7944
16439TIP3    H270733   0.468   0.539   1.462  0.3995  0.9360  0.9418
16440TIP3   OH270734   0.076   1.483   0.934  0.3379  0.6880  0.3179
16440TIP3    H170735   0.084   1.423   0.859  1.8708  0.9683  0.2435
16440TIP3    H270736   0.116   1.436   1.007 -0.8403  0.5583  0.8859
16441TIP3   OH270737   2.830   6.635  14.845  0.2856  0.0206 -0.3553
16441TIP3    H170738   2.836   6.545  14.878 -1.2785  0.5601  1.5567
16441TIP3    H270739   2.757   6.633  14.783  0.5226 -0.1304 -0.6269
16442TIP3   OH270740   4.775   0.760   4.743 -0.4226  0.7750  0.7537
16442TIP3    H170741   4.827   0.786   4.819 -1.4235  1.3709  1.2273
16442TIP3    H270742   4.775   0.837   4.686  0.7500  0.1662 -0.0981
16443TIP3   OH270743   6.953   0.380   1.289 -0.3058  0.2062 -0.3390
16443TIP3    H170744   6.956   0.354   1.381  0.7039  0.0323 -0.4140
16443TIP3    H270745   6.865   0.417   1.277 -0.1495  1.0034  0.8932
16444TIP3   OH270746   4.538   5.085   4.320 -0.2833  0.8542 -0.0404
16444TIP3    H170747   4.584   5.048   4.395 -0.4493  1.6389  0.4604
16444TIP3    H270748   4.446   5.064   4.337 -0.0868 -0.9937 -1.2011
16445TIP3   OH270749   6.367   3.468   5.471 -0.2176  0.0249  0.2455
16445TIP3    H170750   6.453   3.459   5.430 -1.0177 -0.1029 -1.4516
16445TIP3    H270751   6.323   3.384   5.453 -0.6987  0.0809  1.1136
16446TIP3   OH270752   5.804   6.853   2.765 -0.6238 -0.0892  0.7230
16446TIP3    H170753   5.870   6.922   2.769 -2.4156  1.8264 -1.3041
16446TIP3    H270754   5.767   6.860   2.677 -2.2267 -2.3382  1.1689
16447TIP3   OH270755   3.175   1.565   0.128  0.1194  0.3869  0.5421
16447TIP3    H170756   3.084   1.555   0.155 -0.0570 -1.3731 -0.6567
16447TIP3    H270757   3.226   1.535   0.204 -0.3177 -0.3235  0.5550
16448TIP3   OH270758   4.714   6.205   4.620 -0.0964 -0.0722  0.2223
16448TIP3    H170759   4.638   6.162   4.660  0.2994 -2.0476 -1.0796
16448TIP3    H270760   4.676   6.269   4.559 -0.7307 -1.3012 -0.6847
16449TIP3   OH270761   3.746   5.872   1.611  0.0122 -0.2251 -0.1266
16449TIP3    H170762   3.818   5.910   1.561  1.6441 -1.1340  1.4418
16449TIP3    H270763   3.675   5.935   1.604  1.1213  0.9032 -1.3409
16450TIP3   OH270764   3.687   7.239   3.471  0.1479 -0.0155 -0.0202
16450TIP3    H170765   3.733   7.322   3.484 -0.1806  0.4089 -1.5543
16450TIP3    H270766   3.595   7.260   3.483  0.0596 -0.1419 -0.4593
16451TIP3   OH270767   6.248   5.767   5.730  0.4630 -0.3617  0.3759
16451TIP3    H170768   6.161   5.746   5.763  0.0052  2.0200  0.8103
16451TIP3    H270769   6.271   5.694   5.673 -0.9378 -2.0210  1.8715
16452TIP3   OH270770   1.698   6.670   3.571  0.1995 -0.3209 -0.3936
16452TIP3    H170771   1.787   6.640   3.589  0.2378  0.2496  0.4389
16452TIP3    H270772   1.703   6.711   3.485  0.7537 -0.2645 -0.3345
16453TIP3   OH270773   5.262   5.919   1.454  0.4733 -0.0005  0.6954
16453TIP3    H170774   5.228   5.952   1.537 -1.0868  0.0747  0.0362
16453TIP3    H270775   5.348   5.960   1.445  0.0832  1.0363  1.6385
16454TIP3   OH270776   1.478   6.526   3.128 -0.0137  0.3193  0.3948
16454TIP3    H170777   1.409   6.474   3.168  1.6887 -1.2496  1.3588
16454TIP3    H270778   1.461   6.615   3.159 -1.9902  0.0970  0.0460
16455TIP3   OH270779   2.926   4.330   2.055 -0.2870  0.7595  0.3742
16455TIP3    H170780   2.990   4.269   2.017 -1.2083 -0.0998  0.1887
16455TIP3    H270781   2.972   4.369   2.129  0.6473  0.5517 -0.0798
16456TIP3   OH270782   6.258   0.296   3.667  1.1328 -0.4020  0.0788
16456TIP3    H170783   6.269   0.340   3.582  1.4759 -2.1324 -0.8064
16456TIP3    H270784   6.283   0.205   3.650 -0.6428 -1.2089  1.5737
16457TIP3   OH270785   3.604   6.413   2.483 -0.6107  0.0953  0.2490
16457TIP3    H170786   3.630   6.498   2.519 -1.8947  0.6280 -0.0769
16457TIP3    H270787   3.563   6.367   2.557  0.1631 -0.2961  0.4496
16458TIP3   OH270788   2.356   1.252   1.662  0.2322 -0.2157  0.3007
16458TIP3    H170789   2.283   1.255   1.600 -0.7176 -2.0166  1.2612
16458TIP3    H270790   2.340   1.326   1.721 -2.9936 -2.6477  2.7328
16459TIP3   OH270791   6.319   7.193   3.849  0.4289 -0.2819  0.3097
16459TIP3    H170792   6.328   7.275   3.898  1.3783  0.7253 -1.4630
16459TIP3    H270793   6.358   7.127   3.905 -0.2248  0.4808  1.7166
16460TIP3   OH270794   6.705   5.840   4.251  0.2028 -0.3909  0.2320
16460TIP3    H170795   6.694   5.901   4.177  0.7569 -0.0373  0.4343
16460TIP3    H270796   6.757   5.889   4.314  1.4713 -1.4197 -0.0034
16461TIP3   OH270797   0.797   4.439   1.910 -0.3824  0.1136 -0.0476
16461TIP3    H170798   0.708   4.475   1.912  0.0517  1.1498  0.8378
16461TIP3    H270799   0.810   4.402   1.997  0.5864  1.2976  0.3278
16462TIP3   OH270800   4.996   4.576   3.478 -0.0679  0.0643  0.2460
16462TIP3    H170801   4.984   4.573   3.383  1.0676 -1.3683  0.1406
16462TIP3    H270802   5.041   4.658   3.494  2.2572 -0.9702 -0.7621
16463TIP3   OH270803   1.023   5.271   1.539 -0.4504 -0.1931 -0.1714
16463TIP3    H170804   1.071   5.283   1.457  0.4521 -0.3663  0.3230
16463TIP3    H270805   0.977   5.188   1.528  1.6273 -1.4656  0.4303
16464TIP3   OH270806   7.217   1.127   4.227  0.0310  0.1794 -1.0284
16464TIP3    H170807   7.153   1.061   4.254  0.8818 -0.5152 -0.7099
16464TIP3    H270808   7.190   1.151   4.139 -1.8397  1.3281 -0.1777
16465TIP3   OH270809   1.819   6.228   4.631 -0.5200 -0.2253 -0.3121
16465TIP3    H170810   1.846   6.144   4.593 -0.5965 -0.3863 -0.0082
16465TIP3    H270811   1.744   6.255   4.577 -1.7833 -1.3256  0.8324
16466TIP3   OH270812   7.300   1.101   2.836 -0.2205  0.0231 -0.0803
16466TIP3    H170813   7.284   1.013   2.869 -0.9713  0.9282  2.0430
16466TIP3    H270814   7.348   1.145   2.906  0.0644  1.3462 -1.0785
16467TIP3   OH270815   4.994   0.064   2.137 -0.2277 -0.4092 -0.1377
16467TIP3    H170816   5.034   0.077   2.051  1.0615  1.2462  0.6862
16467TIP3    H270817   5.056   0.009   2.184  0.0712  0.3971  0.4215
16468TIP3   OH270818   1.081   1.656   4.511 -0.4259 -0.0096 -0.2404
16468TIP3    H170819   1.130   1.657   4.593 -1.7411  1.5733  0.5385
16468TIP3    H270820   1.133   1.710   4.452 -0.3771  0.2923  0.0765
16469TIP3   OH270821   3.515   3.463   2.072  0.4098  0.1221 -0.3909
16469TIP3    H170822   3.494   3.466   2.165  1.4518 -0.2503 -0.1298
16469TIP3    H270823   3.531   3.554   2.048 -0.8532  0.3340 -0.4515
16470TIP3   OH270824   7.286   0.537   5.406  0.3373  0.1856  0.4923
16470TIP3    H170825   7.290   0.621   5.362 -0.2701 -0.4576 -0.8075
16470TIP3    H270826   7.355   0.484   5.364 -1.5280 -1.0652 -1.0660
16471TIP3   OH270827   5.302   5.657   3.833 -0.0474  0.5601 -0.0461
16471TIP3    H170828   5.354   5.612   3.899 -0.5477  0.0176 -0.0163
16471TIP3    H270829   5.249   5.718   3.883  0.6534  1.2074 -0.0892
16472TIP3   OH270830   4.743   4.338   1.012 -0.3858  0.3361  0.3551
16472TIP3    H170831   4.824   4.380   1.043 -1.1221  1.6105  0.5926
16472TIP3    H270832   4.756   4.326   0.919  0.1389  0.4297  0.4156
16473TIP3   OH270833   0.879   5.614   2.155  0.3741 -0.2307  0.2429
16473TIP3    H170834   0.804   5.666   2.127  0.4308 -0.2376  0.0750
16473TIP3    H270835   0.925   5.670   2.217  2.3363  1.3408 -2.4883
16474TIP3   OH270836   6.277   6.821   1.749 -0.6031  0.5510 -0.4650
16474TIP3    H170837   6.329   6.814   1.829  1.8941  0.6441 -2.0010
16474TIP3    H270838   6.187   6.831   1.779  0.2485  0.3128  2.3098
16475TIP3   OH270839   3.819   0.443   1.283 -0.3030  0.2455  0.1002
16475TIP3    H170840   3.879   0.494   1.227  0.7703 -0.3970  0.6506
16475TIP3    H270841   3.816   0.493   1.365 -1.9914  1.2649 -0.5645
16476TIP3   OH270842   5.633   2.238   3.168  0.1314 -0.5660 -0.0683
16476TIP3    H170843   5.681   2.203   3.094  2.6820 -1.8115  2.1157
16476TIP3    H270844   5.670   2.325   3.182  0.6661 -0.8982  0.6223
16477TIP3   OH270845   1.828   4.496   1.109  0.7276 -0.2066 -0.0802
16477TIP3    H170846   1.842   4.573   1.165 -2.1615 -0.8565  1.5734
16477TIP3    H270847   1.880   4.515   1.031  1.8462  2.4174  1.2324
16478TIP3   OH270848   7.016   2.055   2.660 -0.3429  0.0140  0.0125
16478TIP3    H170849   7.000   2.020   2.747 -0.0726  0.4509  0.2399
16478TIP3    H270850   7.016   1.978   2.602  1.3904 -0.4962  0.6645
16479TIP3   OH270851   4.573   7.005   2.053 -0.1652  0.2284  0.2219
16479TIP3    H170852   4.643   7.053   2.099 -0.8007  1.8826 -0.5147
16479TIP3    H270853   4.498   7.010   2.112 -0.8544  1.9787 -0.7755
16480TIP3   OH270854   2.398   4.477   4.538 -0.2877  0.5560 -0.5395
16480TIP3    H170855   2.491   4.485   4.517 -0.4148  2.8843 -0.3382
16480TIP3    H270856   2.374   4.562   4.576 -2.2154 -0.4136  0.5070
16481TIP3   OH270857   0.422   4.033   2.666 -1.1498  0.6844 -0.1074
16481TIP3    H170858   0.408   4.099   2.734 -3.7118  0.4496 -0.3743
16481TIP3    H270859   0.350   3.972   2.676 -0.3419 -0.5648 -1.6586
16482TIP3   OH270860   2.627   5.747   3.093  0.3974  0.0080 -0.0723
16482TIP3    H170861   2.537   5.717   3.081  0.1992  0.2376  0.7957
16482TIP3    H270862   2.659   5.761   3.004 -1.4431  2.8560 -0.3854
16483TIP3   OH270863   3.392   6.604   2.057  0.5101  0.3355 -0.3616
16483TIP3    H170864   3.446   6.527   2.071 -0.6938 -1.0744 -3.1778
16483TIP3    H270865   3.303   6.575   2.073  0.3646  2.2006  2.5218
16484TIP3   OH270866   2.345   6.006   1.007  0.7888 -0.3429 -0.2706
16484TIP3    H170867   2.412   6.000   0.938 -1.3712 -2.4464 -2.2530
16484TIP3    H270868   2.379   5.951   1.078  1.9985  0.0578 -0.5270
16485TIP3   OH270869   2.758   6.231  15.559  0.5528  0.0678  0.0813
16485TIP3    H170870   2.693   6.282  15.510 -1.9020 -3.3035 -0.3975
16485TIP3    H270871   2.828   6.215  15.496 -0.7757 -0.9266 -1.1958
16486TIP3   OH270872   4.764   5.999   3.015  0.1584 -0.1478  0.0353
16486TIP3    H170873   4.855   5.994   3.045 -0.5859 -2.2683  2.1270
16486TIP3    H270874   4.746   6.093   3.010  1.7379  0.3102  1.9541
16487TIP3   OH270875   6.161   6.871   1.215 -0.9507 -0.2706 -0.3945
16487TIP3    H170876   6.140   6.941   1.154 -0.2588  1.3386  1.1802
16487TIP3    H270877   6.182   6.916   1.297  1.7427 -2.1887  0.0290
16488TIP3   OH270878   3.917   5.605   5.437  0.4825  0.0704 -0.9430
16488TIP3    H170879   3.822   5.595   5.430  0.7026 -1.4613 -1.8928
16488TIP3    H270880   3.938   5.576   5.526  0.1891 -0.6260 -1.0987
16489TIP3   OH270881   6.811   2.542   2.785 -0.6405  0.1897  0.2343
16489TIP3    H170882   6.806   2.560   2.691  0.9257 -1.4654 -0.1812
16489TIP3    H270883   6.812   2.447   2.791  0.1802  0.2893  1.8755
16490TIP3   OH270884   2.800   0.337   2.836 -0.9663  0.0437  0.1203
16490TIP3    H170885   2.874   0.350   2.777 -1.1875 -0.3491 -0.2498
16490TIP3    H270886   2.839   0.304   2.916 -0.7439 -0.2300 -0.0993
16491TIP3   OH270887   7.235   0.016   4.027 -0.3148 -0.4743  0.5632
16491TIP3    H170888   7.313   0.055   4.068 -1.1441  1.6203  0.1963
16491TIP3    H270889   7.263  -0.007   3.939 -0.8838  3.1195 -0.6375
16492TIP3   OH270890   5.115   4.192   3.814 -0.1578 -0.8140  0.7022
16492TIP3    H170891   5.058   4.192   3.891 -2.5860  1.5715 -0.9945
16492TIP3    H270892   5.149   4.282   3.809 -0.4602 -0.7924 -1.3042
16493TIP3   OH270893   3.059   5.436  15.916  0.1165 -0.4827  0.2969
16493TIP3    H170894   3.076   5.479  15.832  0.1227 -0.7346  0.1690
16493TIP3    H270895   2.975   5.391  15.903  0.6870 -1.4984  0.0353
16494TIP3   OH270896   1.659   6.310   4.403 -0.0056  0.3402 -0.2250
16494TIP3    H170897   1.701   6.369   4.340  0.0836  0.1255 -0.3702
16494TIP3    H270898   1.595   6.365   4.449  0.0667  0.5455 -0.3689
16495TIP3   OH270899   7.150   6.265   4.056 -0.4562  0.8299  0.0734
16495TIP3    H170900   7.156   6.326   4.129  1.0331  2.4365 -1.3648
16495TIP3    H270901   7.195   6.186   4.087 -0.8332  1.0825  1.2863
16496TIP3   OH270902   6.386   1.430   2.099  0.2047  0.3324  0.0282
16496TIP3    H170903   6.336   1.416   2.179 -1.5653  2.8987 -0.5569
16496TIP3    H270904   6.329   1.395   2.030 -0.1770  1.9509 -0.4992
16497TIP3   OH270905   1.254   3.183   3.020  0.4557 -0.5099  0.1190
16497TIP3    H170906   1.273   3.236   2.943 -0.8056 -0.1814  0.0308
16497TIP3    H270907   1.295   3.098   3.002  2.8470  0.5322  0.4405
16498TIP3   OH270908   1.458   0.342  13.540  0.2726  0.5509 -0.5155
16498TIP3    H170909   1.438   0.278  13.472  0.9825  1.6537 -1.7941
16498TIP3    H270910   1.487   0.420  13.492  1.3136  1.1700  1.0588
16499TIP3   OH270911   5.193   5.971   2.498  0.3578  0.0211  0.0293
16499TIP3    H170912   5.188   5.911   2.573  2.3657  0.7029  0.7443
16499TIP3    H270913   5.157   6.053   2.531  1.4036  0.3717  0.3115
16500TIP3   OH270914   6.851   6.305   3.822  0.9161 -0.1119  0.2042
16500TIP3    H170915   6.812   6.315   3.735  1.7772 -0.8681 -0.2727
16500TIP3    H270916   6.931   6.255   3.807  2.4476  1.9871  1.0817
16501TIP3   OH270917   7.005   2.497   3.228  0.3280 -0.5336  0.1404
16501TIP3    H170918   7.034   2.429   3.167  0.3373 -1.2513  0.9338
16501TIP3    H270919   7.076   2.505   3.291  0.7249  0.8717 -0.4657
16502TIP3   OH270920   7.004   6.981   4.621  0.4121 -0.4112  0.0051
16502TIP3    H170921   7.048   7.063   4.641 -0.8555  0.0375  1.0724
16502TIP3    H270922   6.957   6.959   4.702  0.4945 -2.0259 -0.3632
16503TIP3   OH270923   1.475   7.272   0.884  0.4656  0.1426 -0.3774
16503TIP3    H170924   1.433   7.285   0.969  1.4194 -0.9672  0.2748
16503TIP3    H270925   1.535   7.346   0.875  0.4323  0.2114 -0.0378
16504TIP3   OH270926   1.834   1.649   1.275 -0.6688 -0.1388  0.0445
16504TIP3    H170927   1.860   1.633   1.184 -0.8468 -0.1402 -0.0060
16504TIP3    H270928   1.788   1.570   1.301 -0.4253 -0.2290  0.2085
16505TIP3   OH270929   0.655   2.380   0.764  0.2590 -0.5094  1.0956
16505TIP3    H170930   0.677   2.339   0.680 -1.2982 -0.3468  0.6000
16505TIP3    H270931   0.576   2.431   0.746  0.5161  0.3824  2.4114
16506TIP3   OH270932   0.276   5.276   3.433 -0.1335 -0.4431  0.0918
16506TIP3    H170933   0.318   5.221   3.500  0.3733 -1.3573 -0.9619
16506TIP3    H270934   0.297   5.366   3.460 -0.8675 -0.7534  1.7709
16507TIP3   OH270935   2.088   3.927   3.146 -0.5893 -0.1077  0.0324
16507TIP3    H170936   2.141   4.005   3.157 -0.3574 -0.3067  0.3311
16507TIP3    H270937   2.004   3.959   3.112  0.9611 -0.1265 -4.1639
16508TIP3   OH270938   2.174   1.705   2.845  0.3931 -0.0587 -0.0479
16508TIP3    H170939   2.225   1.626   2.862  1.7066  0.5915 -0.8690
16508TIP3    H270940   2.209   1.770   2.906  2.0526  0.9877 -2.0092
16509TIP3   OH270941   6.755   1.920   0.077  0.0981  0.5381 -0.2109
16509TIP3    H170942   6.684   1.945   0.018  2.5455  3.0428 -2.2711
16509TIP3    H270943   6.773   1.829   0.056 -3.2266 -0.5280  1.2054
16510TIP3   OH270944   6.318   0.393  15.233 -0.3693 -0.4748 -0.1858
16510TIP3    H170945   6.234   0.384  15.278 -0.1992  1.3744  0.5417
16510TIP3    H270946   6.383   0.363  15.296 -0.2587  0.7211  0.2827
16511TIP3   OH270947   1.077   6.502   5.937  0.3655  0.1979 -0.1597
16511TIP3    H170948   1.088   6.543   6.023  0.1122  0.1424 -0.1024
16511TIP3    H270949   1.070   6.409   5.955 -1.0244  0.3044 -0.1284
16512TIP3   OH270950   1.468   6.003   4.506  0.6697  0.0474  0.3650
16512TIP3    H170951   1.410   5.934   4.538  0.4689  0.3763  0.7203
16512TIP3    H270952   1.546   5.997   4.561 -0.5284  1.9683  2.3638
16513TIP3   OH270953   5.364   6.250   2.463 -0.2752  0.5486 -0.1374
16513TIP3    H170954   5.314   6.258   2.382  0.2008  0.5944 -0.4314
16513TIP3    H270955   5.298   6.235   2.531 -0.7153  1.0842 -0.4467
16514TIP3   OH270956   5.292   7.258   3.905 -1.0249 -0.8121  0.3546
16514TIP3    H170957   5.308   7.250   3.999  0.4180  2.7914  0.4919
16514TIP3    H270958   5.377   7.244   3.865 -1.3619 -0.9326 -0.3244
16515TIP3   OH270959   4.635   5.283   2.839 -0.0081 -0.1265  0.3244
16515TIP3    H170960   4.587   5.204   2.818 -0.0854 -0.3858  1.4387
16515TIP3    H270961   4.579   5.331   2.900  0.1299  0.6846 -0.1703
16516TIP3   OH270962   4.921   4.106   5.452  0.2649 -0.6027  0.2186
16516TIP3    H170963   4.874   4.082   5.373  0.4228  0.4727 -0.2057
16516TIP3    H270964   4.853   4.134   5.513  0.3482  0.9196 -0.3833
16517TIP3   OH270965   4.620   6.282  15.397  0.5411 -0.1383  0.3559
16517TIP3    H170966   4.559   6.329  15.454  1.3171  1.6592 -0.2606
16517TIP3    H270967   4.695   6.263  15.453  0.2135 -0.7065  0.6141
16518TIP3   OH270968   6.651   7.095   2.959  0.1090 -0.4853 -0.2866
16518TIP3    H170969   6.586   7.025   2.958  1.2712 -1.5731  0.0897
16518TIP3    H270970   6.652   7.125   3.050 -0.0230 -0.3147 -0.3404
16519TIP3   OH270971   5.254   6.633   3.095  0.8919 -0.3889 -0.3314
16519TIP3    H170972   5.209   6.717   3.095  0.5906 -0.5310  1.0346
16519TIP3    H270973   5.221   6.588   3.018 -0.1327  0.1352 -0.2017
16520TIP3   OH270974   6.738   4.116   3.157  0.6059  0.6150 -0.0262
16520TIP3    H170975   6.750   4.072   3.073 -0.3032  1.0524 -0.3888
16520TIP3    H270976   6.825   4.114   3.197  0.8880 -0.2361 -0.6555
16521TIP3   OH270977   0.156   5.791   2.539  0.0400 -0.4819  0.5903
16521TIP3    H170978   0.179   5.835   2.620  0.4314 -0.8941  0.7009
16521TIP3    H270979   0.176   5.855   2.470 -2.3451  0.6969  0.9502
16522TIP3   OH270980   6.032   4.396   0.013  0.5523 -0.5624  0.1426
16522TIP3    H170981   5.978   4.449  -0.045 -1.5371 -0.2829  2.2826
16522TIP3    H270982   6.062   4.457   0.080  1.0839 -1.3435  0.6231
16523TIP3   OH270983   5.024   6.103   1.426  0.3541 -0.2816  0.4601
16523TIP3    H170984   4.994   6.042   1.494 -2.7723  0.0086 -0.5876
16523TIP3    H270985   4.970   6.181   1.438  0.4863  0.1630 -1.6978
16524TIP3   OH270986   6.042   1.043   2.748 -0.2054  0.1774  0.2641
16524TIP3    H170987   6.033   1.017   2.840 -0.6244 -0.9498 -0.0852
16524TIP3    H270988   6.080   0.966   2.705  1.2523  1.1852 -0.2556
16525TIP3   OH270989   2.933   6.316   4.780  0.2926  0.4933 -0.2947
16525TIP3    H170990   2.965   6.244   4.834  1.8181  0.6633 -0.9487
16525TIP3    H270991   2.854   6.281   4.738  0.5951 -0.5360 -0.0254
16526TIP3   OH270992   1.088   5.042   3.410  0.8120 -0.1582 -0.7317
16526TIP3    H170993   1.027   5.084   3.350  0.2237  0.7538  0.4715
16526TIP3    H270994   1.135   5.115   3.451  2.0032 -0.8102 -0.9073
16527TIP3   OH270995   5.750   6.235   3.168  0.5107  0.4313  0.0368
16527TIP3    H170996   5.843   6.237   3.145  0.0604  1.2704 -1.7934
16527TIP3    H270997   5.704   6.241   3.084 -1.2111  0.5955  0.9602
16528TIP3   OH270998   5.599   7.033   0.707  0.1716 -0.1355  0.3845
16528TIP3    H170999   5.525   6.974   0.695  0.0546 -0.3171  1.9800
16528TIP3    H271000   5.591   7.066   0.796  1.2439  0.9100  0.1163
16529TIP3   OH271001   5.082   6.005   4.012  0.5338  0.1432  0.4094
16529TIP3    H171002   5.135   6.065   4.065  0.5750  0.2924  0.1996
16529TIP3    H271003   5.140   5.981   3.939 -0.2022  1.4622 -0.6302
16530TIP3   OH271004   7.131   1.633   0.793  0.3760 -0.3931  0.2208
16530TIP3    H171005   7.218   1.609   0.825  1.2200  0.3498 -1.4555
16530TIP3    H271006   7.136   1.621   0.699 -0.7104  1.6040 -0.1176
16531TIP3   OH271007   2.218   5.526   0.326  0.1360 -0.3122  0.2235
16531TIP3    H171008   2.245   5.541   0.417 -2.8343  1.3446  0.9075
16531TIP3    H271009   2.224   5.431   0.315 -0.7133 -0.6819  2.6075
16532TIP3   OH271010   5.014   5.515   1.317  0.5417  0.6307  0.2706
16532TIP3    H171011   5.093   5.508   1.263 -0.2583  2.2514 -1.1797
16532TIP3    H271012   5.009   5.608   1.340 -1.5994  0.7890 -0.7103
16533TIP3   OH271013   0.718   4.965   4.234 -0.2839  0.2084  0.2790
16533TIP3    H171014   0.677   5.047   4.260 -0.6273  0.3446 -0.6577
16533TIP3    H271015   0.811   4.978   4.251 -0.5053  0.2742  1.4457
16534TIP3   OH271016   0.937   6.574   3.893  0.0930 -0.3514 -0.3111
16534TIP3    H171017   0.898   6.661   3.885  0.7528 -0.1709 -1.7320
16534TIP3    H271018   1.031   6.589   3.882  0.0052 -1.5091 -2.9331
16535TIP3   OH271019   2.549   7.211   2.120 -0.1527 -0.1713  0.3834
16535TIP3    H171020   2.524   7.186   2.031  0.2604 -0.0346  0.2284
16535TIP3    H271021   2.485   7.278   2.145  0.5718  0.8157 -0.3419
16536TIP3   OH271022   6.429   0.920   4.202 -0.7645 -0.5230  0.2880
16536TIP3    H171023   6.388   1.005   4.185  1.1985 -0.1392 -2.9974
16536TIP3    H271024   6.481   0.933   4.281 -0.3365  1.4131 -0.2796
16537TIP3   OH271025   0.426   7.292   2.350 -0.7994  0.0792  0.5717
16537TIP3    H171026   0.383   7.268   2.433  1.7090  1.6841  2.4045
16537TIP3    H271027   0.511   7.250   2.355 -0.8167 -0.2427 -1.4879
16538TIP3   OH271028   6.172   6.997   1.466  0.2441 -0.2669 -0.4174
16538TIP3    H171029   6.122   6.967   1.541  1.2017 -2.9086 -0.8098
16538TIP3    H271030   6.121   7.071   1.431 -2.3138 -1.6167  0.3851
16539TIP3   OH271031   7.150   2.320   2.522 -1.0175 -0.1510 -0.4211
16539TIP3    H171032   7.100   2.334   2.441 -2.8830  1.0079  0.9006
16539TIP3    H271033   7.134   2.229   2.545 -0.7561 -0.3905 -1.1728
16540TIP3   OH271034   1.063   4.032   1.719  0.2644 -0.1970  0.4735
16540TIP3    H171035   1.048   3.942   1.692 -0.4919 -0.4483  1.6913
16540TIP3    H271036   1.115   4.026   1.799 -1.5737  0.3497  1.7437
16541TIP3   OH271037   2.035   6.853   1.687  0.6934  0.3106 -0.2332
16541TIP3    H171038   1.995   6.921   1.633 -0.9882  0.1712  0.7965
16541TIP3    H271039   2.004   6.771   1.648 -1.3430  0.2165  1.4796
16542TIP3   OH271040   5.740   5.227   2.808  0.0986  0.1983  0.2217
16542TIP3    H171041   5.824   5.254   2.770 -0.1537  0.0325 -0.4606
16542TIP3    H271042   5.758   5.219   2.902  0.3733  1.9515  0.3225
16543TIP3   OH271043   5.926   6.011   5.538  0.2617 -0.1027  0.0443
16543TIP3    H171044   5.988   5.953   5.494 -0.3237  0.2341 -1.2397
16543TIP3    H271045   5.946   6.001   5.631 -0.5536 -3.1720 -0.0566
16544TIP3   OH271046   4.456   2.047  15.885  0.3659  0.4094  0.1650
16544TIP3    H171047   4.526   2.062  15.822  1.1955  1.7335  1.3883
16544TIP3    H271048   4.425   1.958  15.866  1.5175  0.2900 -1.1981
16545TIP3   OH271049   4.783   6.463   1.587 -0.5895  0.0554 -0.1190
16545TIP3    H171050   4.724   6.397   1.624  1.0532 -2.0333 -1.1367
16545TIP3    H271051   4.753   6.475   1.497 -1.4189  1.3830  0.3119
16546TIP3   OH271052   7.007   5.500   0.392 -0.2067  0.4582 -0.0142
16546TIP3    H171053   6.946   5.443   0.345 -0.6846  0.3932  0.6903
16546TIP3    H271054   7.069   5.528   0.324  0.4828 -1.4818 -0.2166
16547TIP3   OH271055   4.465   4.394   3.952  0.1202 -0.5179 -0.3005
16547TIP3    H171056   4.417   4.311   3.947 -1.5414  0.3819  0.2258
16547TIP3    H271057   4.457   4.431   3.864  1.5649 -1.2725 -0.7682
16548TIP3   OH271058   2.761   5.837   0.794 -0.7247  0.3627 -0.1353
16548TIP3    H171059   2.712   5.772   0.744  0.1221  2.1227 -3.4026
16548TIP3    H271060   2.694   5.897   0.827 -1.0049  1.2855 -2.3552
16549TIP3   OH271061   4.049   1.272   0.946 -0.1805 -0.1180  0.3827
16549TIP3    H171062   4.033   1.246   0.855 -0.1453  0.9099  0.0790
16549TIP3    H271063   4.080   1.362   0.940 -0.9877  0.2373  1.4884
16550TIP3   OH271064   5.840   5.989  15.651  0.1816  0.1880 -0.0350
16550TIP3    H171065   5.778   5.989  15.579  0.0475 -0.5849  0.0754
16550TIP3    H271066   5.879   6.076  15.650 -0.4236  0.4517 -0.5177
16551TIP3   OH271067   6.118   5.929   1.060 -0.3969  0.4338  0.3544
16551TIP3    H171068   6.202   5.973   1.050 -0.9479  1.9057  2.0603
16551TIP3    H271069   6.088   5.952   1.148 -3.0188  0.7064 -0.5561
16552TIP3   OH271070   0.887   6.166  15.225  0.7088 -0.3959  0.0989
16552TIP3    H171071   0.897   6.088  15.170  1.8450  0.6161 -1.1511
16552TIP3    H271072   0.792   6.183  15.226  0.8034  0.5364 -2.9223
16553TIP3   OH271073   1.302   5.909   5.504  0.5983  0.1654 -0.2432
16553TIP3    H171074   1.248   5.959   5.564  1.2344 -0.5233  0.9207
16553TIP3    H271075   1.351   5.848   5.560  1.8759  0.1335 -1.3520
16554TIP3   OH271076   1.167   5.040   3.755 -0.2330 -0.5388  0.1506
16554TIP3    H171077   1.210   5.001   3.678  1.3941  0.8057  0.3533
16554TIP3    H271078   1.177   5.135   3.742  1.5592 -0.3314  2.8477
16555TIP3   OH271079   7.264   6.051   3.034  0.3469 -0.0452  0.0007
16555TIP3    H171080   7.261   6.013   3.122 -0.4830 -0.8379 -0.3628
16555TIP3    H271081   7.334   6.116   3.038  0.3390 -0.1073  1.2380
16556TIP3   OH271082   4.846   5.604   0.046  0.1533 -0.1520  0.7913
16556TIP3    H171083   4.919   5.654   0.009  0.9121 -0.6069  1.6429
16556TIP3    H271084   4.888   5.532   0.092 -0.9229 -1.6750 -0.5301
16557TIP3   OH271085   0.205   0.389   2.945  0.0587  0.0944  0.6017
16557TIP3    H171086   0.197   0.465   2.887  0.8382 -0.2957 -0.0180
16557TIP3    H271087   0.263   0.420   3.016  1.0834 -0.1877 -0.1046
16558TIP3   OH271088   3.194   4.951   2.076 -0.1201  0.0080 -0.5442
16558TIP3    H171089   3.195   4.867   2.121 -0.6546  0.1009 -0.3586
16558TIP3    H271090   3.247   4.937   1.997  1.9552  0.2134  0.7843
16559TIP3   OH271091   0.034   6.001   4.462 -0.5290  0.0848 -0.0453
16559TIP3    H171092   0.089   5.950   4.521 -1.5509 -1.9477 -0.7907
16559TIP3    H271093   0.008   6.078   4.513  0.9526 -0.1749  1.1255
16560TIP3   OH271094   4.211   2.198  14.345 -0.6861 -0.2754 -0.1992
16560TIP3    H171095   4.286   2.144  14.321 -1.1726 -0.6960 -0.7583
16560TIP3    H271096   4.243   2.252  14.417  0.6349  0.6649 -1.4648
16561TIP3   OH271097   1.521   1.875   4.042 -0.0632  0.3771  0.1215
16561TIP3    H171098   1.441   1.910   4.003 -1.2473 -0.0270  2.1138
16561TIP3    H271099   1.491   1.827   4.119  2.1262  0.3434  0.9905
16562TIP3   OH271100   0.932   0.344  14.840  0.3881  1.1296  0.0940
16562TIP3    H171101   0.989   0.276  14.805 -0.7058 -0.2931  1.0344
16562TIP3    H271102   0.967   0.364  14.926 -1.4652 -0.9664  1.3940
16563TIP3   OH271103   7.070   2.521   0.724 -0.0988  0.4542  0.5453
16563TIP3    H171104   7.114   2.605   0.717 -1.2350  0.9729 -0.3483
16563TIP3    H271105   7.119   2.463   0.666  0.1948  0.6857  0.5608
16564TIP3   OH271106   5.408   6.672  15.984 -0.1477 -0.3139  0.1391
16564TIP3    H171107   5.395   6.749  16.039 -0.0494 -0.3214  0.1731
16564TIP3    H271108   5.389   6.703  15.895 -1.0793 -0.5046  0.2709
16565TIP3   OH271109   6.914   5.809   1.692 -0.5463  1.0218 -0.5542
16565TIP3    H171110   6.827   5.771   1.678 -0.4609  0.5655  0.1085
16565TIP3    H271111   6.902   5.871   1.763 -0.5065  1.6222 -1.0632
16566TIP3   OH271112   4.964   6.902   1.393  0.1054 -0.4695  0.4747
16566TIP3    H171113   4.940   6.840   1.462  0.2935  2.4820  3.3331
16566TIP3    H271114   5.056   6.922   1.410 -0.3188  1.6186  0.4667
16567TIP3   OH271115   5.484   0.234   5.903 -0.3576 -0.1240  0.0499
16567TIP3    H171116   5.425   0.160   5.892 -0.2684 -0.1135 -0.5069
16567TIP3    H271117   5.568   0.203   5.869 -0.8350  0.9224 -2.1566
16568TIP3   OH271118   1.226   3.589   1.917 -0.0812  0.1929  0.4953
16568TIP3    H171119   1.134   3.586   1.946 -0.0878 -1.6867  0.3481
16568TIP3    H271120   1.221   3.577   1.822  0.2966  0.7163  0.4050
16569TIP3   OH271121   6.584   0.965   4.416  0.0013  0.5238  0.4466
16569TIP3    H171122   6.549   1.006   4.496  0.0467  0.0201  0.7266
16569TIP3    H271123   6.647   0.900   4.448  0.8933  1.1384 -0.0432
16570TIP3   OH271124   7.297   0.015   0.732 -0.0663 -0.5212  0.1098
16570TIP3    H171125   7.221   0.059   0.694 -0.4623 -1.4606 -0.1929
16570TIP3    H271126   7.353  -0.004   0.657  1.1556  1.4307  0.4765
16571TIP3   OH271127   2.804   5.681   1.675 -0.2871  0.1909 -0.1206
16571TIP3    H171128   2.772   5.757   1.723  0.1602 -0.4198  1.1753
16571TIP3    H271129   2.875   5.714   1.621 -1.7250  1.1620 -1.4737
16572TIP3   OH271130   2.791   0.481   3.107  0.4873  0.1022 -0.0723
16572TIP3    H171131   2.840   0.561   3.125  1.3826 -0.1425 -1.3810
16572TIP3    H271132   2.711   0.510   3.063 -0.2408  0.4467  1.4547
16573TIP3   OH271133   0.312   0.317   4.841  0.0738  0.0533  0.1776
16573TIP3    H171134   0.252   0.362   4.900  2.4822  1.3912  1.6828
16573TIP3    H271135   0.322   0.230   4.880 -1.4377 -0.4573 -0.5129
16574TIP3   OH271136   6.894   6.440   1.944 -0.0128  0.1507  0.5751
16574TIP3    H171137   6.966   6.482   1.895 -0.4282  0.6153  0.3615
16574TIP3    H271138   6.874   6.502   2.014  0.0986 -0.1887  0.9036
16575TIP3   OH271139   4.254   6.160   4.871 -0.4960  0.1311 -0.0459
16575TIP3    H171140   4.286   6.185   4.957  0.6090 -1.0370 -0.1064
16575TIP3    H271141   4.229   6.068   4.880  2.0813 -0.7639 -1.6262
16576TIP3   OH271142   4.095   6.477   3.094  0.1936  0.6400 -0.8326
16576TIP3    H171143   4.121   6.430   3.015  0.1660  1.6301 -1.4427
16576TIP3    H271144   4.000   6.474   3.095  0.2014  0.4309 -0.7126
16577TIP3   OH271145   1.309   6.579   5.502 -0.4911  0.2030  0.4501
16577TIP3    H171146   1.315   6.564   5.596  2.4542  0.4434  0.3592
16577TIP3    H271147   1.320   6.674   5.492 -3.3624  0.5314 -0.0060
16578TIP3   OH271148   4.345   6.260   2.682 -0.0848  0.1696  0.4164
16578TIP3    H171149   4.259   6.237   2.645 -0.4880  1.6979  0.3713
16578TIP3    H271150   4.408   6.212   2.628 -0.9375 -1.5946  0.9419
16579TIP3   OH271151   7.073   5.145   2.972 -0.1619 -0.2869 -0.7065
16579TIP3    H171152   7.157   5.118   2.936  1.4579  1.7400  1.3609
16579TIP3    H271153   7.078   5.122   3.065 -1.0481  1.6304 -0.1372
16580TIP3   OH271154   5.928   6.674   4.645  0.4117 -0.3073  0.2231
16580TIP3    H171155   5.980   6.746   4.680  0.8314  0.3558 -1.6938
16580TIP3    H271156   5.962   6.660   4.557 -0.8830 -1.6495 -0.0962
16581TIP3   OH271157   0.964   3.203   2.401  0.0380 -0.1876  0.0493
16581TIP3    H171158   0.971   3.268   2.471 -0.4576  1.0697 -1.0442
16581TIP3    H271159   0.924   3.127   2.442  2.1446 -0.4242  1.7522
16582TIP3   OH271160   6.446   4.210   3.668  0.0743  0.5840  0.0345
16582TIP3    H171161   6.425   4.125   3.629  1.1578  0.8658 -1.1880
16582TIP3    H271162   6.524   4.240   3.621  0.9943  1.2657  1.9536
16583TIP3   OH271163   3.051   0.023   3.464 -0.8007 -0.0240 -0.2239
16583TIP3    H171164   2.969  -0.016   3.433 -1.4071  0.9507  0.1070
16583TIP3    H271165   3.085   0.069   3.387  0.0130 -1.3396 -0.6671
16584TIP3   OH271166   5.762   0.918   1.543  0.1670 -0.5739 -0.1761
16584TIP3    H171167   5.721   0.851   1.489  0.3265 -0.5091 -0.3783
16584TIP3    H271168   5.798   0.981   1.480  0.7664 -0.7438 -0.0016
16585TIP3   OH271169   0.777   0.500   1.753 -0.3598  0.0914 -0.5519
16585TIP3    H171170   0.844   0.453   1.802 -2.5712 -2.8067 -0.1487
16585TIP3    H271171   0.737   0.558   1.818  1.1660  1.2164 -0.5956
16586TIP3   OH271172   7.107   4.616   4.770 -0.0389 -0.1757  0.0438
16586TIP3    H171173   7.031   4.660   4.733  1.0734  0.1872 -1.8590
16586TIP3    H271174   7.072   4.534   4.806 -1.2319 -0.3316 -1.4211
16587TIP3   OH271175   0.198   0.603   1.360  0.2051 -0.0204 -0.6162
16587TIP3    H171176   0.123   0.651   1.395  1.1758  0.8830  0.2693
16587TIP3    H271177   0.161   0.525   1.320 -0.9916 -0.6973  1.7657
16588TIP3   OH271178   1.263   0.607   3.957  0.3689  0.1878  0.2288
16588TIP3    H171179   1.348   0.602   3.913 -0.3125 -1.8978 -0.8933
16588TIP3    H271180   1.271   0.547   4.031  0.1280  0.5946  0.5871
16589TIP3   OH271181   5.713   4.304   4.810  0.4227 -0.1295 -0.0377
16589TIP3    H171182   5.694   4.272   4.897 -1.5533 -0.5905 -0.6159
16589TIP3    H271183   5.719   4.226   4.755  0.4141  0.2270 -0.5590
16590TIP3   OH271184   1.812   5.477   2.532 -0.1320 -0.2622  0.3918
16590TIP3    H171185   1.855   5.423   2.466 -0.7662  1.9413 -1.9034
16590TIP3    H271186   1.751   5.418   2.576  0.3791 -1.7926 -0.9133
16591TIP3   OH271187   5.593   5.845   1.551 -0.3734 -0.4500  0.4372
16591TIP3    H171188   5.669   5.862   1.495 -1.0678  0.4133 -0.2657
16591TIP3    H271189   5.622   5.869   1.639  0.1042  0.0575  0.1430
16592TIP3   OH271190   2.675   3.636   3.202 -0.1979 -0.4592 -0.2576
16592TIP3    H171191   2.613   3.609   3.271 -1.0397  1.3060 -0.3005
16592TIP3    H271192   2.757   3.651   3.249  0.0732 -2.2729 -0.1157
16593TIP3   OH271193   0.451   7.192   1.419  1.1200 -0.0120  0.1233
16593TIP3    H171194   0.457   7.102   1.451 -0.2822  0.2289  1.1237
16593TIP3    H271195   0.470   7.186   1.325 -2.5514 -1.9066 -0.5952
16594TIP3   OH271196   5.684   3.285   4.127 -0.5185 -0.0936  0.1748
16594TIP3    H171197   5.589   3.283   4.116 -0.6578  2.2264  0.6378
16594TIP3    H271198   5.712   3.365   4.082  0.7484  1.1938  3.1188
16595TIP3   OH271199   0.717   2.562   3.978  0.0950 -0.7882  0.0893
16595TIP3    H171200   0.730   2.650   4.015  2.0591 -0.6608 -0.8334
16595TIP3    H271201   0.657   2.519   4.038  0.5019  0.6018  1.5215
16596TIP3   OH271202   5.214   4.281   2.109 -0.6738  0.2191  0.5832
16596TIP3    H171203   5.310   4.277   2.108 -0.6941 -0.2314  0.4379
16596TIP3    H271204   5.191   4.267   2.201 -0.6056  0.2652  0.6077
16597TIP3   OH271205   1.986   7.049   1.485  0.3952 -0.4388  0.0265
16597TIP3    H171206   1.982   7.046   1.389 -1.3426  2.4111 -0.0442
16597TIP3    H271207   2.071   7.090   1.504  0.7784 -1.0850 -0.2820
16598TIP3   OH271208   5.860   0.028   2.139 -0.3469  0.2832  0.2699
16598TIP3    H171209   5.940   0.076   2.120 -0.7372 -0.1816 -2.8064
16598TIP3    H271210   5.887  -0.064   2.142 -0.9330  0.0002 -2.1083
16599TIP3   OH271211   1.298   6.929   4.380 -0.0838 -0.2617  0.7048
16599TIP3    H171212   1.249   6.872   4.440 -0.5583 -1.9805 -1.2603
16599TIP3    H271213   1.375   6.878   4.356 -1.2164 -0.7062 -2.1768
16600TIP3   OH271214   1.842   6.859   1.890 -0.4563 -0.2720  1.0064
16600TIP3    H171215   1.904   6.868   1.817 -1.3900  0.2136  0.2632
16600TIP3    H271216   1.888   6.896   1.965 -0.2472  1.1037  0.2233
16601TIP3   OH271217   3.909   1.116   1.873  0.2354 -0.4220  0.3940
16601TIP3    H171218   3.849   1.103   1.947  0.5573 -2.7003  0.3151
16601TIP3    H271219   3.875   1.057   1.806 -0.4270  2.1089 -1.5392
16602TIP3   OH271220   5.458   6.995   2.549  0.1086  0.0735  0.6037
16602TIP3    H171221   5.459   7.089   2.565  0.8118  0.3986 -1.1652
16602TIP3    H271222   5.407   6.958   2.621 -1.5614  1.9667  0.4197
16603TIP3   OH271223   3.383   6.349   4.763  0.0184  0.3623 -0.5416
16603TIP3    H171224   3.371   6.366   4.856  2.0614  0.2295 -0.2245
16603TIP3    H271225   3.357   6.258   4.751  0.9890 -0.0080  0.1525
16604TIP3   OH271226   3.302   5.938   0.694  0.1723 -0.2319 -0.2266
16604TIP3    H171227   3.222   5.990   0.702 -0.3726 -1.2726  1.3029
16604TIP3    H271228   3.358   5.990   0.637 -0.8916  1.3790  0.1450
16605TIP3   OH271229   2.092   5.009   0.124 -0.1768 -0.2157 -0.5249
16605TIP3    H171230   2.017   4.966   0.165 -0.5911  0.7254 -0.2609
16605TIP3    H271231   2.064   5.100   0.113  0.5407 -0.0886 -1.3982
16606TIP3   OH271232   6.411   4.738   0.382  0.0945 -0.4236 -0.5387
16606TIP3    H171233   6.495   4.717   0.341  0.1384 -0.5117 -0.4065
16606TIP3    H271234   6.366   4.653   0.390 -1.1310 -0.0595 -3.0486
16607TIP3   OH271235   6.013   6.696   2.219 -0.3340  0.4472  0.1407
16607TIP3    H171236   5.995   6.624   2.159  0.0196  0.5619 -0.1082
16607TIP3    H271237   5.958   6.679   2.295 -0.7188  0.2559 -0.1835
16608TIP3   OH271238   5.941   6.438   2.088  0.2662 -0.5135 -0.0417
16608TIP3    H171239   5.948   6.389   2.005  0.8901 -0.7944  0.1718
16608TIP3    H271240   5.981   6.380   2.153  2.1086  0.7617  0.0201
16609TIP3   OH271241   3.922   2.613   4.334  0.0368 -0.2556 -0.4063
16609TIP3    H171242   3.928   2.677   4.406 -0.6201  0.0262 -0.6025
16609TIP3    H271243   3.881   2.536   4.374  0.1781 -0.3001 -0.3454
16610TIP3   OH271244   6.907   6.921   3.380  0.3182 -0.6104  0.3143
16610TIP3    H171245   6.985   6.868   3.394  0.5531 -0.3772 -0.1007
16610TIP3    H271246   6.926   6.971   3.301  1.1013  1.9387  2.0423
16611TIP3   OH271247   2.152   6.092   3.778 -0.0010  0.1042  0.4002
16611TIP3    H171248   2.168   6.135   3.694 -0.4429  0.4539  0.4894
16611TIP3    H271249   2.087   6.025   3.759 -1.2464  1.1938  0.7416
16612TIP3   OH271250   4.626   5.678   1.845  0.2543  0.0385  0.4540
16612TIP3    H171251   4.710   5.717   1.872  0.0294  0.7722  0.1055
16612TIP3    H271252   4.639   5.584   1.857  0.6455  0.2466  1.7373
16613TIP3   OH271253   0.148   5.786   0.766  0.4910  0.6173  0.3347
16613TIP3    H171254   0.243   5.783   0.754  0.2895  0.2584 -1.1640
16613TIP3    H271255   0.130   5.718   0.831  1.2791  0.8197  0.7686
16614TIP3   OH271256   6.056   6.605   1.174 -0.5424  0.2171  0.0103
16614TIP3    H171257   6.132   6.562   1.213 -0.1992 -1.1931 -2.0956
16614TIP3    H271258   6.075   6.699   1.182 -0.0215 -0.0560  2.2352
16615TIP3   OH271259   4.149   0.498  14.964  0.3820  0.0337 -0.0311
16615TIP3    H171260   4.139   0.429  15.030 -0.8921  0.5139  0.2994
16615TIP3    H271261   4.230   0.542  14.986 -0.7727  1.1357  2.1166
16616TIP3   OH271262   6.053   2.188   4.293 -0.3566  0.6468  0.0111
16616TIP3    H171263   6.044   2.229   4.207 -1.6096 -1.6394 -0.9656
16616TIP3    H271264   6.147   2.189   4.310 -0.0936  1.0834 -1.3832
16617TIP3   OH271265   1.017   5.937   4.482 -0.1395 -0.0790  0.3129
16617TIP3    H171266   1.038   5.856   4.529  0.1008 -0.2407 -0.0760
16617TIP3    H271267   0.950   5.979   4.537 -2.1039 -1.7448 -0.7336
16618TIP3   OH271268   0.287   1.391  15.884  0.0489  0.3745 -0.2161
16618TIP3    H171269   0.198   1.421  15.900  0.2307 -0.2900  2.4009
16618TIP3    H271270   0.338   1.471  15.872 -0.6162  0.8386  0.0157
16619TIP3   OH271271   0.291   5.445   0.732  0.3841  0.1648 -0.0550
16619TIP3    H171272   0.314   5.387   0.805 -0.2927  0.4311  0.3720
16619TIP3    H271273   0.373   5.458   0.685  0.1847 -2.7919 -1.3511
16620TIP3   OH271274   5.097   3.817   3.785  0.0038 -0.7148  0.0838
16620TIP3    H171275   5.175   3.782   3.743 -0.1918 -2.0643  0.8172
16620TIP3    H271276   5.129   3.862   3.863  0.1314 -0.3536 -0.1724
16621TIP3   OH271277   5.106   4.446   2.848  0.2767 -0.5676 -0.3010
16621TIP3    H171278   5.166   4.372   2.856  0.4137 -0.8185 -3.1156
16621TIP3    H271279   5.019   4.407   2.852  0.3410 -0.6520  0.1994
16622TIP3   OH271280   6.381   5.097   1.543  0.3406 -0.0586 -0.1588
16622TIP3    H171281   6.348   5.180   1.577 -0.4032 -0.8336  1.0413
16622TIP3    H271282   6.331   5.030   1.590  1.4735 -1.2026 -0.5516
16623TIP3   OH271283   0.182   5.139   1.630  0.0946  0.0247  0.1597
16623TIP3    H171284   0.167   5.174   1.718  3.0512 -1.5222  1.3641
16623TIP3    H271285   0.182   5.217   1.574 -1.2818  1.0936  1.6015
16624TIP3   OH271286   1.370   2.511   4.601 -0.2086 -0.0562 -0.0744
16624TIP3    H171287   1.288   2.472   4.569 -0.1707 -1.3937  1.3928
16624TIP3    H271288   1.374   2.485   4.693  1.4233  0.7806  0.1055
16625TIP3   OH271289   1.945   2.025   3.754  0.2796 -0.9812  0.7039
16625TIP3    H171290   2.007   2.016   3.826 -1.0207  1.2243  2.1511
16625TIP3    H271291   1.861   1.997   3.790 -0.3866  0.1347  0.0594
16626TIP3   OH271292   1.063   5.437   0.394 -0.1260 -0.0815 -0.0736
16626TIP3    H171293   1.055   5.518   0.445 -0.4919 -0.7304  0.9124
16626TIP3    H271294   0.976   5.422   0.359 -0.1694 -0.3192  0.1425
16627TIP3   OH271295   7.070   1.541   5.720  0.0183 -0.5272  0.0617
16627TIP3    H171296   7.010   1.473   5.751 -0.7860 -1.1198 -2.6399
16627TIP3    H271297   7.134   1.551   5.790  0.9539 -5.0100  0.0046
16628TIP3   OH271298   1.329   1.583   3.374 -0.4598 -0.2915  0.1118
16628TIP3    H171299   1.402   1.633   3.410  0.9288 -0.6722 -2.1104
16628TIP3    H271300   1.278   1.556   3.451  1.2330  0.7364  1.6236
16629TIP3   OH271301   5.305   2.473   4.550  0.3079  0.5627 -0.6290
16629TIP3    H171302   5.348   2.460   4.635  1.2066  0.2997 -1.1222
16629TIP3    H271303   5.242   2.543   4.566 -1.0708 -0.9457  0.8034
16630TIP3   OH271304   5.434   0.181   2.964 -0.8315  0.0101 -0.0370
16630TIP3    H171305   5.378   0.104   2.954  0.1929 -0.9208  1.2416
16630TIP3    H271306   5.494   0.177   2.889 -0.4044 -0.7824  0.3341
16631TIP3   OH271307   0.309   0.795   3.761  0.0715  0.7057 -0.1185
16631TIP3    H171308   0.322   0.715   3.711 -1.9161  1.0676 -1.2447
16631TIP3    H271309   0.251   0.769   3.832  0.1899  0.9510  0.0700
16632TIP3   OH271310   2.698   2.713   5.834  0.0052  0.3565 -0.0571
16632TIP3    H171311   2.654   2.646   5.782  0.0665  0.3930 -0.1556
16632TIP3    H271312   2.657   2.707   5.920 -1.1604  1.3321 -0.5428
16633TIP3   OH271313   0.930   4.394   5.405 -0.1666  0.7627 -0.1409
16633TIP3    H171314   1.008   4.448   5.393  1.1957 -1.7396 -3.0932
16633TIP3    H271315   0.964   4.308   5.427 -2.0699 -0.4671 -1.8715
16634TIP3   OH271316   6.312   0.005   4.251 -0.2925  0.3824 -0.3190
16634TIP3    H171317   6.322  -0.075   4.304  0.4749  0.0843 -0.9081
16634TIP3    H271318   6.385   0.060   4.277 -0.1879  0.4328 -0.7277
16635TIP3   OH271319   0.210   0.201   4.628 -0.2964 -0.2576 -0.2006
16635TIP3    H171320   0.234   0.245   4.710 -3.0209  0.2369  0.3665
16635TIP3    H271321   0.179   0.115   4.656  0.2214 -0.6665 -0.8720
16636TIP3   OH271322   3.871   0.292   4.094 -0.1403  0.0863 -0.2136
16636TIP3    H171323   3.832   0.290   4.181 -0.4256 -0.2654 -0.3514
16636TIP3    H271324   3.960   0.258   4.106  0.7183  2.4026  0.3972
16637TIP3   OH271325   7.139   5.200   2.041  0.7952 -0.3127 -0.1017
16637TIP3    H171326   7.204   5.156   2.095  0.9990 -1.1002 -0.9942
16637TIP3    H271327   7.091   5.130   1.997  0.4920  0.3195 -0.7946
16638TIP3   OH271328   1.479   1.436   0.661  0.5166  0.1928  0.6370
16638TIP3    H171329   1.532   1.485   0.599  2.0664 -1.3991  0.6521
16638TIP3    H271330   1.504   1.344   0.647 -2.7115 -0.6863  0.2209
16639TIP3   OH271331   0.903   6.910   4.647  0.2183  0.0295  0.0531
16639TIP3    H171332   0.912   7.002   4.622 -0.2543  0.1669  0.3864
16639TIP3    H271333   0.949   6.902   4.730  1.9252 -0.4652 -0.9085
16640TIP3   OH271334   5.253   6.263   5.373  0.3265 -0.3370  0.1454
16640TIP3    H171335   5.290   6.177   5.392 -0.6594 -0.3640  2.1237
16640TIP3    H271336   5.317   6.305   5.315  2.0902 -1.3987  1.2753
16641TIP3   OH271337   5.787   2.131   5.295  0.5042 -0.8936 -0.7680
16641TIP3    H171338   5.738   2.167   5.369  0.9555  0.4125 -1.0792
16641TIP3    H271339   5.849   2.201   5.271 -0.0442 -1.0542 -2.7486
16642TIP3   OH271340   0.663   0.648   6.136 -0.3601  0.4934 -0.4204
16642TIP3    H171341   0.572   0.665   6.161 -0.4225 -0.4657  0.0320
16642TIP3    H271342   0.673   0.554   6.146  0.3175  0.4164 -1.7339
16643TIP3   OH271343   1.041   2.227   4.912 -0.0159  0.2068 -0.0122
16643TIP3    H171344   1.112   2.163   4.918  0.2480  0.6307  1.4047
16643TIP3    H271345   1.021   2.251   5.002 -0.7873  1.3890 -0.4753
16644TIP3   OH271346   5.599   0.188   2.494 -0.2790  0.9772  0.0704
16644TIP3    H171347   5.668   0.206   2.558  1.4853 -0.0766 -1.4861
16644TIP3    H271348   5.575   0.275   2.460 -1.2904  1.5521  2.1764
16645TIP3   OH271349   6.999   1.427   4.312  0.0203  0.1802 -0.4099
16645TIP3    H171350   6.927   1.425   4.249  1.0956  1.8397 -1.7508
16645TIP3    H271351   6.956   1.443   4.396 -1.2121  0.8991 -1.1458
16646TIP3   OH271352   1.939   1.014   3.245 -0.0780 -0.0315  0.2320
16646TIP3    H171353   1.916   1.098   3.283  0.0771 -0.7333  1.9243
16646TIP3    H271354   1.857   0.964   3.245 -0.0070 -0.1494 -0.0485
16647TIP3   OH271355   7.030   0.690   3.800  0.3396 -0.1790  0.2315
16647TIP3    H171356   7.060   0.771   3.841 -0.1278 -0.3433  0.8933
16647TIP3    H271357   7.110   0.641   3.781  0.6709  0.7304 -0.7928
16648TIP3   OH271358   1.194   6.732   4.543 -0.5329  0.2715  0.1210
16648TIP3    H171359   1.137   6.655   4.539  0.0382 -0.0745 -2.1918
16648TIP3    H271360   1.224   6.736   4.634 -3.2682 -0.2426  1.0761
16649TIP3   OH271361   0.534   6.575   2.988  0.4962 -0.2566  0.1183
16649TIP3    H171362   0.612   6.628   2.968 -0.1466  1.0060  0.8980
16649TIP3    H271363   0.524   6.582   3.083 -0.9563  0.1446 -0.0547
16650TIP3   OH271364   5.610   0.181   4.924 -0.5395 -0.5023 -0.7085
16650TIP3    H171365   5.519   0.203   4.947 -0.1266 -1.5215  2.1298
16650TIP3    H271366   5.647   0.263   4.891 -2.2552  0.1450 -1.0806
16651TIP3   OH271367   3.012   0.828   4.077 -0.5144 -0.1625  0.2020
16651TIP3    H171368   3.040   0.799   3.990 -1.5403 -0.9697  0.1400
16651TIP3    H271369   3.085   0.804   4.135  0.7797  1.6284 -0.6286
16652TIP3   OH271370   0.330   1.119   4.394  0.5430  0.5553  0.2071
16652TIP3    H171371   0.309   1.207   4.363 -0.2268  0.4925  0.5462
16652TIP3    H271372   0.304   1.061   4.323  2.5226  0.7013 -0.6823
16653TIP3   OH271373   7.172   2.372   5.355 -0.1171  0.0089  0.1129
16653TIP3    H171374   7.195   2.330   5.438 -0.0916 -0.5711 -0.1832
16653TIP3    H271375   7.216   2.457   5.358 -0.8286  0.3496  1.0632
16654TIP3   OH271376   2.345   1.413   4.068 -0.1437 -0.0997  0.0687
16654TIP3    H171377   2.394   1.387   3.990 -0.6672  0.4392 -0.4424
16654TIP3    H271378   2.391   1.370   4.141  0.3640 -0.5764 -0.5286
16655TIP3   OH271379   1.923   0.267   5.772  0.2668 -0.0695 -0.1503
16655TIP3    H171380   1.923   0.317   5.690 -1.2634 -0.1655 -0.2267
16655TIP3    H271381   1.945   0.178   5.745  3.4976  0.6210  0.0529
16656TIP3   OH271382   6.492   6.117   3.425  0.1883 -0.4553  0.1874
16656TIP3    H171383   6.481   6.041   3.368  1.3685 -0.4952  0.0018
16656TIP3    H271384   6.404   6.134   3.460 -0.5971 -0.2770 -1.8119
16657TIP3   OH271385   1.007   0.923   5.755  0.1355  0.1358 -0.3181
16657TIP3    H171386   1.012   0.981   5.830  0.1423  0.7696 -0.8076
16657TIP3    H271387   1.052   0.970   5.685  0.7273 -0.7365 -0.5373
16658TIP3   OH271388   4.505   3.785   3.038 -0.7259 -0.6903 -0.4798
16658TIP3    H171389   4.566   3.715   3.063 -0.5264 -0.6150 -0.7645
16658TIP3    H271390   4.513   3.850   3.107 -1.1428 -1.0910 -0.0440
16659TIP3   OH271391   0.246   1.438   1.147 -0.0483  0.2476 -0.1351
16659TIP3    H171392   0.176   1.450   1.210  0.1593  0.5048  0.0468
16659TIP3    H271393   0.311   1.506   1.169  0.3374 -0.1021 -0.1881
16660TIP3   OH271394   0.349   1.778   4.280  0.1604  0.2735  0.0071
16660TIP3    H171395   0.278   1.720   4.305 -0.8254  1.0637 -0.9414
16660TIP3    H271396   0.425   1.720   4.271  0.0124 -0.3533  2.4801
16661TIP3   OH271397   7.028   1.186   3.054 -0.0434 -0.3930  0.2286
16661TIP3    H171398   6.936   1.214   3.048  0.4897  1.1281 -1.5270
16661TIP3    H271399   7.056   1.214   3.141 -0.2630  2.4506 -0.5476
16662TIP3   OH271400   5.576   0.950   5.242  0.1968 -0.1843  0.0120
16662TIP3    H171401   5.482   0.953   5.222  0.2524 -0.3937 -0.2896
16662TIP3    H271402   5.581   0.907   5.327  0.0172 -0.2118  0.0085
16663TIP3   OH271403   0.477   1.947   3.287 -0.2097 -0.0074  0.5900
16663TIP3    H171404   0.493   1.928   3.379  1.0439  0.9593  0.5881
16663TIP3    H271405   0.387   1.979   3.283  0.5381  2.3217  1.8475
16664TIP3   OH271406   6.832   0.019   5.098 -0.0661 -0.1651  0.0960
16664TIP3    H171407   6.833   0.086   5.029  0.0451 -2.0534 -1.8049
16664TIP3    H271408   6.797  -0.059   5.055  0.3541 -1.5048  2.1041
16665TIP3   OH271409   1.086   5.795   4.260  0.2490  0.0941 -0.4423
16665TIP3    H171410   1.078   5.872   4.318 -0.6233 -2.1094  2.4948
16665TIP3    H271411   1.150   5.740   4.304 -0.0257 -1.4029 -1.9071
16666TIP3   OH271412   3.047   0.167   3.838 -0.1299 -0.6059  0.1512
16666TIP3    H171413   3.083   0.095   3.890 -0.0069 -1.3552 -0.9525
16666TIP3    H271414   3.091   0.245   3.871 -1.1197 -0.8738  2.1715
16667TIP3   OH271415   1.811   6.611   5.528 -0.0695  0.9459 -0.1241
16667TIP3    H171416   1.774   6.594   5.615 -0.0106  1.4664  0.0075
16667TIP3    H271417   1.777   6.540   5.473 -2.8983  2.4882 -0.4775
16668TIP3   OH271418   6.744   2.793   4.361  0.3585  0.5254  0.0314
16668TIP3    H171419   6.758   2.861   4.296  0.8527 -1.0822 -1.5939
16668TIP3    H271420   6.715   2.717   4.311  0.5364 -0.6845  1.7126
16669TIP3   OH271421   1.059   3.566   1.459  0.0522  0.2089 -0.0049
16669TIP3    H171422   1.145   3.562   1.417  0.2030 -0.8903  0.3942
16669TIP3    H271423   1.030   3.475   1.463 -0.2449  0.3616  1.7041
16670TIP3   OH271424   7.292   0.950   5.868  0.8299 -0.0188 -0.5290
16670TIP3    H171425   7.377   0.906   5.870  1.0766  0.4727  1.1522
16670TIP3    H271426   7.235   0.895   5.923  0.6121  0.6983 -0.0246
16671TIP3   OH271427   7.142   0.142   4.453  0.0971  0.5580 -0.3513
16671TIP3    H171428   7.167   0.231   4.428 -0.6460  0.2109 -2.3544
16671TIP3    H271429   7.062   0.153   4.503  1.0569  1.1664  1.0956
16672TIP3   OH271430   6.135   2.097   5.484 -0.2568 -0.1440 -0.2827
16672TIP3    H171431   6.044   2.082   5.509 -0.0662 -2.0713 -0.6838
16672TIP3    H271432   6.145   2.192   5.488 -2.9101  0.2921 -2.3197
16673TIP3   OH271433   2.155   2.268   5.931  0.1615  0.5308  0.0701
16673TIP3    H171434   2.093   2.234   5.867  1.6961  1.0149 -1.7205
16673TIP3    H271435   2.176   2.193   5.987 -0.0925 -0.2806 -0.9016
16674TIP3   OH271436   5.987   3.736   3.406 -0.7776  0.6572  0.2252
16674TIP3    H171437   5.944   3.651   3.406  0.7197 -0.1280  0.1417
16674TIP3    H271438   5.922   3.796   3.372 -1.2492 -0.7866 -1.4874
16675TIP3   OH271439   6.954   3.327  15.759  0.2546  0.0506  0.4291
16675TIP3    H171440   7.039   3.290  15.736  1.3560  3.2487 -0.8892
16675TIP3    H271441   6.953   3.414  15.719 -4.3667 -0.5653 -1.1666
16676TIP3   OH271442   6.542   0.298   1.732 -0.1138 -0.3359 -0.1015
16676TIP3    H171443   6.561   0.344   1.814 -1.6704  2.4580 -1.2383
16676TIP3    H271444   6.448   0.283   1.734 -0.4519  1.2839 -2.0831
16677TIP3   OH271445   1.428   2.765   5.559 -0.7059 -0.6840  0.0951
16677TIP3    H171446   1.449   2.796   5.471 -1.5605 -0.8447 -0.1706
16677TIP3    H271447   1.340   2.799   5.577 -1.8147 -3.1773 -0.3309
16678TIP3   OH271448   5.133   3.223   1.493 -0.2766  0.3519 -0.0871
16678TIP3    H171449   5.135   3.282   1.568 -2.1235 -0.7472  0.8688
16678TIP3    H271450   5.045   3.184   1.496  0.4378 -1.4212 -1.4850
16679TIP3   OH271451   6.331   2.152   4.356  0.1750 -0.1441 -0.1559
16679TIP3    H171452   6.307   2.068   4.397 -0.5452 -0.3798 -1.0488
16679TIP3    H271453   6.381   2.128   4.279 -2.1080  0.1437 -1.7795
16680TIP3   OH271454   6.614   4.894   3.006  0.6296  0.4234  0.1441
16680TIP3    H171455   6.542   4.918   2.948  0.1119  0.4723  0.8074
16680TIP3    H271456   6.684   4.957   2.985  0.1745  0.9195  0.1165
16681TIP3   OH271457   6.506   6.739   5.462 -0.3981  0.8226 -0.2970
16681TIP3    H171458   6.515   6.790   5.382 -1.1478 -0.1155 -0.9850
16681TIP3    H271459   6.456   6.662   5.437  1.6468 -0.8099  0.4789
16682TIP3   OH271460   3.344   0.906   2.928 -0.6345 -0.3517  0.2156
16682TIP3    H171461   3.281   0.881   2.995 -1.3714  0.5496 -0.1305
16682TIP3    H271462   3.419   0.939   2.977  0.0967 -2.5930  0.6619
16683TIP3   OH271463   7.233   6.620   2.515  0.4521 -0.0567  0.0128
16683TIP3    H171464   7.322   6.611   2.481  0.7450 -1.0654  1.0342
16683TIP3    H271465   7.237   6.696   2.572  1.0786 -1.0878  1.3674
16684TIP3   OH271466   3.369   1.770   0.535  0.7939  0.0907 -0.6599
16684TIP3    H171467   3.274   1.758   0.544  0.1295  3.9781 -1.4902
16684TIP3    H271468   3.399   1.795   0.623  1.1665 -1.7721 -0.2530
16685TIP3   OH271469   7.168   2.969   2.834 -0.0297 -0.0258 -0.1001
16685TIP3    H171470   7.093   2.996   2.886 -0.7129 -1.5448 -0.2748
16685TIP3    H271471   7.206   3.051   2.802 -0.4914  0.8412  1.5302
16686TIP3   OH271472   1.987   1.624   4.710  0.3122 -0.0734  0.1879
16686TIP3    H171473   2.058   1.682   4.683  0.1598 -0.1205 -0.3130
16686TIP3    H271474   1.936   1.610   4.631 -0.8711  0.8178  0.7664
16687TIP3   OH271475   6.274   0.883   5.224 -0.0720  0.2977 -0.3436
16687TIP3    H171476   6.184   0.872   5.196  0.2747 -0.5924 -1.1138
16687TIP3    H271477   6.285   0.822   5.297 -0.0309  0.2652 -0.3773
16688TIP3   OH271478   0.868   0.877   6.369 -0.0759 -0.4160 -0.1883
16688TIP3    H171479   0.842   0.901   6.280 -2.2784 -0.0872  0.5216
16688TIP3    H271480   0.908   0.791   6.360 -0.4202 -0.4479 -1.4857
16689TIP3   OH271481   0.165   0.641   3.241  0.3087 -0.4016 -0.1110
16689TIP3    H171482   0.083   0.691   3.251 -0.1771 -1.0958 -0.5960
16689TIP3    H271483   0.138   0.549   3.245  0.9785 -0.6430 -0.9784
16690TIP3   OH271484   2.725   6.817   5.474 -0.2965  0.1736  0.9841
16690TIP3    H171485   2.637   6.828   5.438 -0.8069  0.6696  2.3390
16690TIP3    H271486   2.736   6.723   5.483  1.1471 -0.2121 -3.5619
16691TIP3   OH271487   3.625   3.696   2.703  0.2592 -0.6107 -0.4697
16691TIP3    H171488   3.688   3.633   2.669 -0.3632 -0.9010 -1.0787
16691TIP3    H271489   3.670   3.781   2.696  0.3307 -0.7345 -1.5239
16692TIP3   OH271490   3.227   2.002   1.833  0.0194 -0.1274  0.1401
16692TIP3    H171491   3.278   1.988   1.753  2.8726  0.2176  1.8189
16692TIP3    H271492   3.258   2.086   1.867 -2.7622  0.8098  0.4733
16693TIP3   OH271493   0.329   4.427   3.609 -0.5081 -0.0184  0.0373
16693TIP3    H171494   0.409   4.436   3.557  0.1095 -2.1980  0.5213
16693TIP3    H271495   0.260   4.413   3.545 -0.8606  3.6475 -0.4878
16694TIP3   OH271496   0.823   1.050   4.427  0.1673  0.0018  0.0503
16694TIP3    H171497   0.823   0.986   4.355 -0.9268 -0.5792  0.5531
16694TIP3    H271498   0.912   1.046   4.462  0.3861 -0.5383 -0.5458
16695TIP3   OH271499   0.532   7.070   4.737  0.1308  0.2540 -0.0350
16695TIP3    H171500   0.562   7.141   4.680 -0.2755 -1.4108 -2.3930
16695TIP3    H271501   0.493   7.006   4.678  0.5852 -2.0200  2.0123
16696TIP3   OH271502   0.552   5.615   4.570  0.2785  0.1235 -0.5187
16696TIP3    H171503   0.498   5.605   4.649 -1.1645  1.8064 -1.2578
16696TIP3    H271504   0.618   5.546   4.578 -0.2026 -0.1259  1.8603
16697TIP3   OH271505   2.131   5.197   5.729  0.1852  0.2069  1.3539
16697TIP3    H171506   2.052   5.250   5.740  0.3076  0.4791  0.9487
16697TIP3    H271507   2.100   5.118   5.684  0.2731  0.6743  0.4605
16698TIP3   OH271508   1.442   0.806   4.401 -0.0285  0.2703  0.1871
16698TIP3    H171509   1.531   0.811   4.364 -0.3887 -0.0943 -0.7520
16698TIP3    H271510   1.389   0.859   4.341 -0.8061 -1.1134 -0.3665
16699TIP3   OH271511   5.515   6.212   3.289 -0.1606 -0.0140  0.0240
16699TIP3    H171512   5.447   6.256   3.239  0.7943  0.3981 -0.9237
16699TIP3    H271513   5.597   6.254   3.262  0.4434 -0.2642  1.4000
16700TIP3   OH271514   3.446   4.112   5.015 -1.2796 -0.4872 -0.2489
16700TIP3    H171515   3.521   4.117   4.956 -1.8325  1.0412 -0.8429
16700TIP3    H271516   3.386   4.050   4.973 -1.0213 -0.5552 -0.5193
16701TIP3   OH271517   7.172   2.560   5.100  0.1775  0.4825  0.8559
16701TIP3    H171518   7.252   2.512   5.080  0.5245  1.2633  0.3408
16701TIP3    H271519   7.103   2.514   5.051  0.6298  0.9501 -0.2221
16702TIP3   OH271520   6.253   4.966   0.395 -0.1556 -0.2095 -0.0449
16702TIP3    H171521   6.314   4.891   0.392  0.3345  0.1849 -0.0502
16702TIP3    H271522   6.176   4.933   0.440 -0.0634 -0.8129 -0.3214
16703TIP3   OH271523   5.834   0.906   3.560  0.5430 -0.5727  0.7926
16703TIP3    H171524   5.765   0.865   3.508 -0.2107 -0.8055  1.9661
16703TIP3    H271525   5.789   0.942   3.636  1.6277 -0.1722  1.2536
16704TIP3   OH271526   5.754   2.902   3.269 -0.5546  0.0736  0.2477
16704TIP3    H171527   5.721   2.812   3.275  0.4464 -0.2977  0.2776
16704TIP3    H271528   5.725   2.944   3.350  0.1550 -0.6216  0.8682
16705TIP3   OH271529   4.942   3.252   3.327  0.4694  0.2625  0.6666
16705TIP3    H171530   4.886   3.241   3.250  1.6637  0.8608 -0.3053
16705TIP3    H271531   4.885   3.232   3.401 -1.0407  0.8463 -0.3048
16706TIP3   OH271532   0.569   1.222   5.283 -0.5146 -0.2151 -0.1502
16706TIP3    H171533   0.526   1.299   5.244 -2.5164 -1.1156  0.2130
16706TIP3    H271534   0.580   1.244   5.375  0.4245  0.2765 -0.3747
16707TIP3   OH271535   3.183   5.653   3.544  0.1401  0.5771 -0.5809
16707TIP3    H171536   3.232   5.583   3.501  0.3868  1.5647 -1.9442
16707TIP3    H271537   3.135   5.696   3.473 -0.6128  1.3044  0.3553
16708TIP3   OH271538   0.463   4.747   2.609  0.7179 -0.0765 -0.8896
16708TIP3    H171539   0.431   4.820   2.662  1.8268 -1.2178  1.4143
16708TIP3    H271540   0.420   4.670   2.644  0.0998 -0.6688 -2.8578
16709TIP3   OH271541   6.357   3.122   2.926 -0.1854 -0.2288 -0.1521
16709TIP3    H171542   6.282   3.145   2.870 -0.6481  1.0861  0.9564
16709TIP3    H271543   6.360   3.193   2.991  1.8832 -0.3947 -0.0355
16710TIP3   OH271544   0.022   4.438   1.364 -0.6255  0.3309 -0.1197
16710TIP3    H171545   0.010   4.470   1.453  0.3887 -1.1357  0.5782
16710TIP3    H271546   0.011   4.343   1.371 -0.1476  0.1601 -1.4898
16711TIP3   OH271547   6.597   1.889   4.912  0.3274  0.6948 -0.1375
16711TIP3    H171548   6.537   1.835   4.860  0.1803  0.4460  0.2816
16711TIP3    H271549   6.634   1.828   4.976  1.0019  0.8567 -0.3673
16712TIP3   OH271550   0.358   6.642   2.546 -0.2911 -0.1293  0.0853
16712TIP3    H171551   0.453   6.635   2.531 -0.0865  2.5129 -0.0728
16712TIP3    H271552   0.346   6.619   2.638  0.5182 -0.3774  0.1326
16713TIP3   OH271553   3.275   0.417   5.375  0.0754 -0.3652 -0.3075
16713TIP3    H171554   3.187   0.427   5.339  0.5832  1.9585 -0.9838
16713TIP3    H271555   3.333   0.415   5.299  0.7269 -0.4150  0.1793
16714TIP3   OH271556   3.582   2.443   5.415  0.1758 -0.3577  0.4016
16714TIP3    H171557   3.619   2.445   5.503 -1.5093  2.4437  1.0941
16714TIP3    H271558   3.525   2.519   5.411 -1.2129 -1.4777 -2.5108
16715TIP3   OH271559   0.703   2.757   0.025  0.0255 -0.4701  0.1800
16715TIP3    H171560   0.743   2.673   0.003 -2.6885 -2.0726  1.1465
16715TIP3    H271561   0.662   2.743   0.110 -3.7230  0.6399 -1.3422
16716TIP3   OH271562   1.130   4.786   2.962  0.1752  0.7585 -0.0640
16716TIP3    H171563   1.085   4.756   3.041  2.2009 -2.8888 -0.1859
16716TIP3    H271564   1.078   4.751   2.890 -0.6068  2.4749 -0.3619
16717TIP3   OH271565   4.516   2.341   3.174 -0.1454  0.2240 -0.4605
16717TIP3    H171566   4.478   2.274   3.231 -0.6237  0.2968 -0.6874
16717TIP3    H271567   4.597   2.367   3.217 -1.8572  2.2931  1.6157
16718TIP3   OH271568   1.512   1.581   6.260 -0.2179  0.1645  0.4126
16718TIP3    H171569   1.496   1.559   6.168 -0.4924  0.0306  0.4933
16718TIP3    H271570   1.443   1.535   6.308 -1.3274  1.8946  0.5099
16719TIP3   OH271571   3.197   7.229   5.596  0.0301 -0.4604  0.3854
16719TIP3    H171572   3.248   7.301   5.560 -1.0642  0.6254  0.9891
16719TIP3    H271573   3.171   7.259   5.683 -0.4109 -1.6011  0.6574
16720TIP3   OH271574   5.992   1.569   5.088 -0.3332  0.0484  0.1708
16720TIP3    H171575   5.957   1.648   5.047  0.8878  0.5316  0.0447
16720TIP3    H271576   5.915   1.515   5.106 -0.9665  0.0840 -2.2264
16721TIP3   OH271577   7.167   3.749   4.791  0.2109 -0.1101 -0.2412
16721TIP3    H171578   7.104   3.812   4.824 -0.1021 -0.6143  0.1325
16721TIP3    H271579   7.114   3.673   4.765  0.7314 -0.8516  0.8372
16722TIP3   OH271580   1.204   6.569   6.245 -0.4953 -0.1883  0.0428
16722TIP3    H171581   1.198   6.577   6.340 -0.0443  0.1658  0.0413
16722TIP3    H271582   1.120   6.601   6.212  0.4375  2.5256  0.1504
16723TIP3   OH271583   1.542   3.004   4.129 -0.2762 -0.2220 -0.2992
16723TIP3    H171584   1.615   2.944   4.142 -0.0070  0.3527  0.9454
16723TIP3    H271585   1.464   2.949   4.136 -0.0595 -0.3122  1.6637
16724TIP3   OH271586   0.049   4.043   5.426  0.6232  0.1327  0.8924
16724TIP3    H171587   0.089   4.120   5.466  1.7500  0.1152 -0.1715
16724TIP3    H271588  -0.002   4.003   5.497  1.7433  0.6793  2.0280
16725TIP3   OH271589   2.450   3.156   0.237  0.0804 -0.5198  0.2241
16725TIP3    H171590   2.404   3.140   0.320 -0.0241 -0.6128  0.1492
16725TIP3    H271591   2.483   3.070   0.212  0.2137 -0.4692  0.2300
16726TIP3   OH271592   5.940   3.178   4.616 -0.2747  0.0885 -0.1092
16726TIP3    H171593   6.003   3.114   4.583 -3.1019 -2.2929 -1.0474
16726TIP3    H271594   5.891   3.206   4.539 -1.9807  0.0908  0.9571
16727TIP3   OH271595   1.227   3.821   5.257  0.7049 -0.3602  0.0456
16727TIP3    H171596   1.227   3.832   5.352  1.5679 -0.0578  0.0172
16727TIP3    H271597   1.181   3.898   5.225 -1.2462 -1.3916  0.3014
16728TIP3   OH271598   6.203   5.120   4.652 -0.4712  0.2471  0.0364
16728TIP3    H171599   6.284   5.159   4.684  0.2613 -0.9167 -0.3736
16728TIP3    H271600   6.232   5.056   4.586 -1.6838 -0.5865  0.3049
16729TIP3   OH271601   2.396   1.159   3.179 -0.8852 -0.3734  0.6071
16729TIP3    H171602   2.401   1.150   3.275  1.4804  0.2307  0.5649
16729TIP3    H271603   2.483   1.188   3.153 -0.8558 -2.5442 -1.9608
16730TIP3   OH271604   2.798   7.165  15.782  0.4243 -0.4752 -0.9828
16730TIP3    H171605   2.768   7.168  15.873  2.0665 -1.2765 -0.3896
16730TIP3    H271606   2.800   7.257  15.755 -0.8905 -0.2990 -0.4831
16731TIP3   OH271607   1.632   2.987   5.753  0.2685 -0.0972 -0.1447
16731TIP3    H171608   1.672   2.920   5.698 -0.5416  0.0792 -0.9595
16731TIP3    H271609   1.630   2.948   5.841  1.1903 -0.5353 -0.3119
16732TIP3   OH271610   1.367   2.809   0.943 -0.2783  0.0600 -0.3931
16732TIP3    H171611   1.413   2.745   0.996 -1.1103  1.3154  1.9410
16732TIP3    H271612   1.434   2.872   0.917 -0.0836  0.1450  0.3024
16733TIP3   OH271613   6.793   1.986   4.521  0.6441 -0.1782 -0.3160
16733TIP3    H171614   6.808   1.995   4.616  0.7983 -0.3814 -0.3211
16733TIP3    H271615   6.851   2.051   4.482  1.5881 -1.0203 -0.3401
16734TIP3   OH271616   1.588   5.167   3.170 -0.6558  1.0496 -0.3637
16734TIP3    H171617   1.512   5.125   3.212 -0.6714  0.7834 -0.6585
16734TIP3    H271618   1.573   5.155   3.076  0.4283 -0.2073 -0.3940
16735TIP3   OH271619   0.947   5.815   3.568 -0.1714 -0.0343 -0.1747
16735TIP3    H171620   0.958   5.728   3.606 -0.8227  0.0068  0.0952
16735TIP3    H271621   0.863   5.812   3.523  0.8090 -0.2504 -2.0529
16736TIP3   OH271622   0.518   1.647   2.915 -0.3126  0.5293 -0.2495
16736TIP3    H171623   0.563   1.675   2.996  1.3797 -1.5606 -0.4238
16736TIP3    H271624   0.567   1.691   2.845 -1.4339  1.8959 -0.2008
16737TIP3   OH271625   6.537   6.837   2.618  0.3682 -0.4395 -0.2321
16737TIP3    H171626   6.492   6.887   2.550 -1.2190 -0.4675  0.7857
16737TIP3    H271627   6.489   6.856   2.698  2.3143 -0.2913  0.9207
16738TIP3   OH271628   3.914   1.818   2.186 -0.1249 -0.0965 -0.0098
16738TIP3    H171629   3.906   1.760   2.262  0.5615 -1.3409 -0.8762
16738TIP3    H271630   3.851   1.784   2.122 -0.3367  0.6416 -0.2091
16739TIP3   OH271631   4.222   6.449   2.843 -0.4029 -0.4623 -0.9711
16739TIP3    H171632   4.255   6.531   2.808  1.9931 -1.6887 -1.6743
16739TIP3    H271633   4.254   6.382   2.782 -0.3572 -2.1463  0.8457
16740TIP3   OH271634   0.783   3.735   5.451 -0.0882  1.1223  0.4573
16740TIP3    H171635   0.815   3.776   5.531  2.2662 -1.1428  0.7696
16740TIP3    H271636   0.767   3.644   5.476 -0.8284  0.7562 -1.2779
16741TIP3   OH271637   0.922   1.022   4.723 -0.1215  0.7673 -0.1910
16741TIP3    H171638   0.953   0.932   4.722 -1.3588  0.3112  0.6634
16741TIP3    H271639   0.995   1.073   4.760  0.1953 -0.0407  0.3101
16742TIP3   OH271640   6.917   1.916   5.469  0.3187 -0.3228  0.3280
16742TIP3    H171641   6.854   1.855   5.508 -1.1617  0.1806 -1.2129
16742TIP3    H271642   6.997   1.866   5.461 -1.6127 -3.0481 -3.5127
16743TIP3   OH271643   1.512   0.813   5.716  0.2811  0.1343 -0.2081
16743TIP3    H171644   1.527   0.742   5.778 -1.2145  0.1206  0.1730
16743TIP3    H271645   1.534   0.892   5.765  2.4799 -0.0832 -0.8111
16744TIP3   OH271646   1.910   4.148   4.284 -0.0229 -0.1936 -0.1608
16744TIP3    H171647   1.974   4.100   4.232  0.5897  0.3312  0.0989
16744TIP3    H271648   1.854   4.081   4.322  0.9081 -0.7017  0.3046
16745TIP3   OH271649   1.297   5.258   3.993  0.0899 -0.5924 -0.2614
16745TIP3    H171650   1.227   5.203   4.027  0.8929 -1.9958 -0.8223
16745TIP3    H271651   1.319   5.317   4.066 -1.3314 -0.4610  0.0690
16746TIP3   OH271652   1.968   2.708   5.178  0.1068  0.1109  0.0791
16746TIP3    H171653   2.053   2.678   5.210  0.9569  0.6951 -1.5697
16746TIP3    H271654   1.914   2.629   5.178  0.9568 -0.4811  0.1655
16747TIP3   OH271655   1.407   1.074   1.745 -0.3232 -0.0463 -0.1434
16747TIP3    H171656   1.344   1.078   1.817 -0.8215  1.7782 -0.6556
16747TIP3    H271657   1.481   1.026   1.781 -0.7302  0.4837  1.4535
16748TIP3   OH271658   7.158   3.759   3.116  0.3207 -0.0356  0.2554
16748TIP3    H171659   7.243   3.739   3.156  0.8568  1.0509 -0.3090
16748TIP3    H271660   7.163   3.722   3.028  0.2430  0.1002  0.1937
16749TIP3   OH271661   6.575   2.490   3.759 -0.2149  0.3035 -0.1529
16749TIP3    H171662   6.598   2.542   3.836  0.8476  3.0693 -2.2542
16749TIP3    H271663   6.658   2.450   3.732 -0.4765 -0.2098 -0.2066
16750TIP3   OH271664   0.456   3.400   6.116 -0.5014 -0.1845  0.9808
16750TIP3    H171665   0.394   3.364   6.179 -1.4248 -0.3781 -0.0188
16750TIP3    H271666   0.539   3.407   6.164 -1.0800 -0.7471  2.0664
16751TIP3   OH271667   6.327   0.742   2.857  0.4011  0.1837 -0.0167
16751TIP3    H171668   6.324   0.822   2.910 -0.6639  0.1978 -0.0835
16751TIP3    H271669   6.409   0.701   2.881  0.1911  0.4788  1.2441
16752TIP3   OH271670   6.229   1.036  15.538 -0.2003 -0.3698  0.0777
16752TIP3    H171671   6.242   1.126  15.507  0.3000  0.0754  1.5460
16752TIP3    H271672   6.308   0.990  15.511 -0.8228 -0.5911 -1.4155
16753TIP3   OH271673   6.401   0.625   5.211 -0.0165 -0.5890 -0.1594
16753TIP3    H171674   6.332   0.561   5.231 -1.7653  1.5710  0.8548
16753TIP3    H271675   6.388   0.645   5.118 -0.2176 -0.8045 -0.1785
16754TIP3   OH271676   5.527   2.539   3.575 -0.2177 -0.2770 -0.8479
16754TIP3    H171677   5.593   2.491   3.625 -2.0538 -1.8316  0.1548
16754TIP3    H271678   5.492   2.603   3.637  1.6726  1.9009 -1.9533
16755TIP3   OH271679   2.618   1.084   4.250 -0.3912  0.4677 -0.0544
16755TIP3    H171680   2.705   1.069   4.212 -1.0229 -0.6779 -1.1168
16755TIP3    H271681   2.582   0.996   4.263 -2.0463  0.9268 -1.2229
16756TIP3   OH271682   0.145   0.055   5.342 -0.0325  0.1775 -0.2278
16756TIP3    H171683   0.112   0.145   5.337  0.5608  0.4033 -0.0214
16756TIP3    H271684   0.107   0.021   5.423  0.5023  0.5457  0.1838
16757TIP3   OH271685   0.396   3.013   1.295  0.5448  0.0391  0.1155
16757TIP3    H171686   0.435   2.952   1.232 -0.1097  0.5080 -0.7553
16757TIP3    H271687   0.367   3.087   1.242  0.0900  0.4969  0.9910
16758TIP3   OH271688   0.770   3.548   5.195 -0.1092  0.0590 -0.4420
16758TIP3    H171689   0.799   3.639   5.190 -1.7509  0.6973  1.1864
16758TIP3    H271690   0.729   3.531   5.110 -0.6458  1.1475 -0.4020
16759TIP3   OH271691   0.441   0.333   1.069 -0.7817 -0.4286 -0.0750
16759TIP3    H171692   0.357   0.377   1.083 -0.4535  0.4126 -0.7457
16759TIP3    H271693   0.430   0.247   1.110 -1.5118  0.1792  1.0121
16760TIP3   OH271694   0.083   2.282   6.113  0.3561 -0.2683  0.2871
16760TIP3    H171695   0.171   2.295   6.150  0.4089  0.9252 -0.2383
16760TIP3    H271696   0.089   2.199   6.065  1.9564  1.0643 -1.9242
16761TIP3   OH271697   1.325   6.484   4.997  0.1360 -0.4191 -0.4465
16761TIP3    H171698   1.236   6.462   4.972 -0.3373  0.7402  0.1841
16761TIP3    H271699   1.375   6.403   4.984 -1.3178 -1.4990  0.6857
16762TIP3   OH271700   1.461   3.930   2.242 -0.2325  0.5517 -0.0572
16762TIP3    H171701   1.460   3.909   2.148  1.7210 -1.7237  0.3793
16762TIP3    H271702   1.453   3.845   2.285 -0.4646  1.5243  1.8635
16763TIP3   OH271703   2.781   4.399   3.151 -0.0431 -0.1742 -0.5404
16763TIP3    H171704   2.712   4.412   3.216  1.1095 -1.0043  0.8940
16763TIP3    H271705   2.806   4.488   3.126  1.8771  0.3153  2.7943
16764TIP3   OH271706   6.293   5.167   5.644  0.2661  0.3275  0.2615
16764TIP3    H171707   6.366   5.164   5.582 -1.0984  1.0659 -1.4394
16764TIP3    H271708   6.328   5.129   5.725  2.0333 -0.9017 -1.0358
16765TIP3   OH271709   0.396   1.785   3.512 -0.9042  0.4243  0.4169
16765TIP3    H171710   0.375   1.747   3.598  2.2047 -0.6902  0.7362
16765TIP3    H271711   0.324   1.757   3.456 -1.5100 -1.2948  1.9945
16766TIP3   OH271712   6.171   2.824   6.023  0.8270  0.5651 -0.0444
16766TIP3    H171713   6.126   2.769   5.959  2.4390 -0.1680 -0.5660
16766TIP3    H271714   6.246   2.772   6.051  0.3215  1.0190  2.2097
16767TIP3   OH271715   7.289   0.576   5.664  0.2397  0.1982 -0.7084
16767TIP3    H171716   7.198   0.605   5.662 -0.0141 -0.5545 -0.4847
16767TIP3    H271717   7.310   0.556   5.572 -0.3511 -1.1834 -0.5678
16768TIP3   OH271718   6.956   0.131   5.489  0.3160 -0.0134 -1.1258
16768TIP3    H171719   6.997   0.205   5.534 -0.3576 -0.3153  0.0130
16768TIP3    H271720   6.994   0.132   5.401  0.2208  1.7593 -1.1644
16769TIP3   OH271721   6.193   1.976   2.979 -0.2126 -0.0200 -0.3866
16769TIP3    H171722   6.141   2.032   2.922 -0.9169  1.0092  1.2329
16769TIP3    H271723   6.282   1.983   2.945 -0.8103 -0.3280 -2.0474
16770TIP3   OH271724   6.403   5.636   2.910  0.6575 -0.4322 -0.2656
16770TIP3    H171725   6.431   5.717   2.953 -1.7713  0.7532 -0.8193
16770TIP3    H271726   6.319   5.616   2.951  0.6892 -2.0442 -0.9639
16771TIP3   OH271727   5.769   1.201   4.373 -0.4390 -0.6640  0.0690
16771TIP3    H171728   5.771   1.295   4.357  0.7589 -1.0415 -2.2970
16771TIP3    H271729   5.687   1.171   4.335  0.8655 -1.0625 -2.5896
16772TIP3   OH271730   2.721   1.877   4.357 -0.3565 -0.6998  0.2870
16772TIP3    H171731   2.675   1.802   4.320  0.5477 -0.6910 -0.9024
16772TIP3    H271732   2.773   1.912   4.284  1.2141 -0.4634  1.4759
16773TIP3   OH271733   1.017   0.369   6.298 -0.6036  0.1870  0.1425
16773TIP3    H171734   0.998   0.318   6.219  1.8340 -1.8050  0.7959
16773TIP3    H271735   1.110   0.389   6.292 -0.5088  0.4259  2.3189
16774TIP3   OH271736   0.603   1.985   6.133  0.3122 -0.3644  0.2440
16774TIP3    H171737   0.624   1.893   6.144  0.2713 -0.4238 -0.1519
16774TIP3    H271738   0.616   2.024   6.219 -1.5803 -1.1233  0.9101
16775TIP3   OH271739   0.908   7.113   5.101  0.2933 -0.8436  0.0098
16775TIP3    H171740   0.838   7.151   5.048  0.5104  1.1001  1.0741
16775TIP3    H271741   0.979   7.178   5.096  0.5084 -0.8804  2.2260
16776TIP3   OH271742   0.816   2.251   0.061  0.5087 -0.0346 -0.3671
16776TIP3    H171743   0.815   2.168   0.107 -0.7166 -0.6734 -1.5240
16776TIP3    H271744   0.879   2.239  -0.010  1.6177  0.6050  0.4923
16777TIP3   OH271745   6.657   1.408   1.450  0.7697 -0.5477  0.0574
16777TIP3    H171746   6.681   1.325   1.409  0.1698 -0.8870  0.3764
16777TIP3    H271747   6.719   1.418   1.523  1.1366 -0.4845 -0.2648
16778TIP3   OH271748   1.197   2.206   5.891  0.5509  0.2655 -0.4541
16778TIP3    H171749   1.221   2.145   5.821  0.9897  1.0022 -0.9485
16778TIP3    H271750   1.201   2.152   5.971  1.7180 -0.1715 -0.7918
16779TIP3   OH271751   6.199   2.958   3.316 -0.0652 -0.0732 -0.1527
16779TIP3    H171752   6.290   2.968   3.343  0.5472 -3.8612 -0.5145
16779TIP3    H271753   6.203   2.950   3.220 -0.9154  0.7134 -0.2700
16780TIP3   OH271754   0.402   1.709   5.014  0.1320  0.2390 -0.0173
16780TIP3    H171755   0.486   1.746   5.043  0.0317  1.4724 -1.2627
16780TIP3    H271756   0.345   1.785   5.003 -1.5077 -0.6790  1.8595
16781TIP3   OH271757   1.621   4.364   4.337 -0.4335  0.0945  0.3532
16781TIP3    H171758   1.678   4.338   4.264  1.3798  1.4528  1.2290
16781TIP3    H271759   1.612   4.285   4.390  2.1097  0.2602  1.1090
16782TIP3   OH271760   1.189   1.698   6.316  0.1721 -0.4874 -0.1133
16782TIP3    H171761   1.227   1.696   6.228  0.8200  0.1811  0.1450
16782TIP3    H271762   1.221   1.618   6.358  0.7317 -0.2756 -0.1290
16783TIP3   OH271763   7.063   1.363   0.328 -0.5106  0.2990 -0.0425
16783TIP3    H171764   7.047   1.292   0.266 -0.7056 -0.1275  0.4984
16783TIP3    H271765   7.056   1.322   0.414  0.1122  0.8173  0.2565
16784TIP3   OH271766   1.081   1.434   4.758  0.1249  0.0974  0.3307
16784TIP3    H171767   1.128   1.370   4.812  0.3049  0.1984  0.2948
16784TIP3    H271768   1.032   1.381   4.694  0.1120 -0.0113  0.4318
16785TIP3   OH271769   1.359   0.244   4.652 -0.5566  0.1756 -0.0095
16785TIP3    H171770   1.439   0.283   4.616 -0.2295  1.2598  1.8204
16785TIP3    H271771   1.387   0.159   4.685 -0.8796 -0.8694 -2.3352
16786TIP3   OH271772   3.667   1.957   3.484 -0.0354 -0.3094 -0.2638
16786TIP3    H171773   3.599   1.961   3.552 -0.0846  0.4525 -0.3502
16786TIP3    H271774   3.640   1.885   3.428 -0.3462 -0.5281  0.1619
16787TIP3   OH271775   7.288   6.309   1.716 -0.2272  0.1324  0.5961
16787TIP3    H171776   7.364   6.357   1.685 -1.5475  2.1232  0.3725
16787TIP3    H271777   7.281   6.234   1.657 -0.7187  2.0516 -1.8542
16788TIP3   OH271778   1.129   1.095   1.512 -0.5358  0.5875  0.5557
16788TIP3    H171779   1.053   1.141   1.547  1.0183  1.9914  2.1194
16788TIP3    H271780   1.201   1.156   1.521  0.6953 -0.4751 -1.5406
16789TIP3   OH271781   0.518   2.075   2.227  0.4372  0.8169  0.5378
16789TIP3    H171782   0.523   1.994   2.176 -0.3454  0.2813  1.2911
16789TIP3    H271783   0.464   2.133   2.173  0.1747  0.4889  0.4436
16790TIP3   OH271784   0.126   2.013   5.867  0.2135  0.4062 -0.0480
16790TIP3    H171785   0.117   1.942   5.803  0.5420 -0.2151  0.5983
16790TIP3    H271786   0.133   2.092   5.813  0.1256 -0.0750 -0.7766
16791TIP3   OH271787   0.227   3.574   2.223  0.1498 -0.7264  0.0227
16791TIP3    H171788   0.177   3.648   2.190  0.9297  0.7294  2.0356
16791TIP3    H271789   0.170   3.534   2.289 -0.1746 -1.7924 -0.8875
16792TIP3   OH271790   7.018   1.251   4.013  0.3929  0.2092 -0.1097
16792TIP3    H171791   7.091   1.303   3.981 -0.3536  1.6390  0.4414
16792TIP3    H271792   6.940   1.298   3.983 -0.3128  0.6588  2.3253
16793TIP3   OH271793   2.264   0.861   2.000 -0.4388  0.1845 -0.1464
16793TIP3    H171794   2.193   0.813   1.959  0.1662 -0.2707 -0.6633
16793TIP3    H271795   2.252   0.846   2.094  1.2518 -3.1438 -0.4087
16794TIP3   OH271796   4.604   0.684   5.900 -0.2667  0.5580  0.9333
16794TIP3    H171797   4.696   0.701   5.881  0.0800  0.5701  2.5269
16794TIP3    H271798   4.556   0.743   5.843  0.6670 -0.3373 -0.8437
16795TIP3   OH271799   3.078   7.083   5.408 -0.1202  0.2740  0.4684
16795TIP3    H171800   3.124   7.127   5.480  1.5630 -0.1144 -0.3466
16795TIP3    H271801   3.080   7.146   5.336 -1.5510  0.5486  0.6517
16796TIP3   OH271802   0.369   1.534   2.563 -0.4434 -0.3939  0.5221
16796TIP3    H171803   0.288   1.583   2.551 -0.3824 -0.7420 -1.5052
16796TIP3    H271804   0.430   1.598   2.599 -0.3941  1.0664 -2.0087
16797TIP3   OH271805   5.652   1.278   2.127 -0.2937 -0.3616 -0.3357
16797TIP3    H171806   5.585   1.268   2.059 -0.8041  0.5044  0.0321
16797TIP3    H271807   5.688   1.366   2.113 -0.2066 -0.2839  0.3400
16798TIP3   OH271808   3.486   2.131   5.175 -0.4621  0.7122 -0.4622
16798TIP3    H171809   3.461   2.217   5.141 -1.0581  0.4409 -0.7298
16798TIP3    H271810   3.535   2.149   5.255 -1.5537  1.2634  0.0851
16799TIP3   OH271811   6.161   1.902   4.189  0.1844 -1.0146 -0.5200
16799TIP3    H171812   6.132   1.854   4.112  0.4652 -0.3675 -1.0401
16799TIP3    H271813   6.202   1.981   4.153  0.1084 -0.5990  0.3008
16800TIP3   OH271814   6.507   6.086   4.289 -0.3698  0.3583  0.0878
16800TIP3    H171815   6.457   6.007   4.312  0.9551 -0.5720 -0.1769
16800TIP3    H271816   6.441   6.148   4.257 -1.3022 -1.0163 -0.6871
16801TIP3   OH271817   0.523   6.795   5.194 -0.0703  0.3090  0.3750
16801TIP3    H171818   0.457   6.864   5.200  0.8536  1.1579  0.8700
16801TIP3    H271819   0.505   6.752   5.110  0.1253  1.9595 -0.5412
16802TIP3   OH271820   2.306   1.768   5.361 -0.1625  0.1982  0.2289
16802TIP3    H171821   2.367   1.719   5.416 -1.3347  0.6885  2.0077
16802TIP3    H271822   2.220   1.754   5.401 -0.9650  1.0749 -1.1215
16803TIP3   OH271823   1.594   1.156   3.692  0.4361 -0.4800  0.3652
16803TIP3    H171824   1.618   1.107   3.770  0.4425 -1.2058 -0.0852
16803TIP3    H271825   1.670   1.147   3.634 -0.3856 -1.7104 -0.5576
16804TIP3   OH271826   6.877   0.122   2.871 -0.0322 -0.0202  0.1825
16804TIP3    H171827   6.847   0.057   2.808  1.3575  1.5912 -2.2353
16804TIP3    H271828   6.957   0.084   2.908 -0.3856 -0.6153  0.3291
16805TIP3   OH271829   4.337   7.006   4.577 -0.4134  0.2704 -0.4100
16805TIP3    H171830   4.387   7.071   4.626 -0.3229 -0.3405  0.3223
16805TIP3    H271831   4.389   6.926   4.583 -0.9081 -0.0698 -0.6250
16806TIP3   OH271832   0.570   6.191   4.716  0.3461  0.1991 -0.0475
16806TIP3    H171833   0.574   6.257   4.786  0.0389 -0.3001  0.4400
16806TIP3    H271834   0.532   6.237   4.642  0.8058  0.7745  0.0651
16807TIP3   OH271835   7.087   2.034   4.937  0.0904  0.0314  0.1883
16807TIP3    H171836   7.078   1.948   4.980 -2.1002 -0.2194 -0.7053
16807TIP3    H271837   7.116   2.013   4.848 -1.8352  0.0965 -0.4753
16808TIP3   OH271838   0.185   6.866   5.158  0.1940  0.1848  0.8209
16808TIP3    H171839   0.098   6.864   5.198 -0.9277  1.3042 -1.4657
16808TIP3    H271840   0.190   6.786   5.106 -0.4336  1.2250 -0.9058
16809TIP3   OH271841   0.096   1.136   3.880  0.3256 -0.2364  0.1220
16809TIP3    H171842   0.181   1.144   3.923  0.5902 -1.1786 -0.2270
16809TIP3    H271843   0.091   1.045   3.851 -1.1129 -0.3815  0.7739
16810TIP3   OH271844   2.287   3.079   3.703  0.2464 -0.0251 -0.0686
16810TIP3    H171845   2.288   3.168   3.667  0.9456  1.2485  2.9154
16810TIP3    H271846   2.377   3.061   3.727 -0.2333 -0.6488  1.3574
16811TIP3   OH271847   4.241   5.510   5.357  0.2486 -0.0354 -0.1905
16811TIP3    H171848   4.204   5.518   5.444  0.9234  0.4464  0.0572
16811TIP3    H271849   4.291   5.428   5.359 -0.0816 -0.2366 -0.2518
16812TIP3   OH271850   1.180   3.112   4.730 -0.2499  0.1217 -0.7027
16812TIP3    H171851   1.242   3.125   4.801  1.3898 -1.7498 -1.7109
16812TIP3    H271852   1.205   3.177   4.664 -0.2139  0.2748 -0.5362
16813TIP3   OH271853   5.540   1.092   4.256  0.1224 -0.0473  0.0261
16813TIP3    H171854   5.600   1.071   4.184  1.4673  0.9417  0.8189
16813TIP3    H271855   5.470   1.141   4.215  0.9099  0.5536 -0.6185
16814TIP3   OH271856   2.853   7.206   5.101 -0.1585 -0.0512  0.4128
16814TIP3    H171857   2.808   7.124   5.084 -3.4218  1.7589 -0.1794
16814TIP3    H271858   2.887   7.233   5.016  0.7004 -0.6106  0.5641
16815TIP3   OH271859   1.804   1.559   4.492 -0.7786  0.2241  0.2416
16815TIP3    H171860   1.777   1.477   4.450 -1.3464 -0.5786  2.0979
16815TIP3    H271861   1.807   1.623   4.421  1.8567 -1.8823 -1.6380
16816TIP3   OH271862   0.068   2.137   0.091 -0.3048 -0.3964  0.1717
16816TIP3    H171863   0.114   2.206   0.139  0.0157 -0.5106  0.0296
16816TIP3    H271864  -0.012   2.122   0.142 -0.2693 -0.0752  0.3235
16817TIP3   OH271865   5.330   4.234   2.657 -0.3208  1.0519 -0.0260
16817TIP3    H171866   5.402   4.171   2.652 -0.6133  0.8692 -2.5954
16817TIP3    H271867   5.331   4.264   2.747 -0.2152 -2.6940  1.3187
16818TIP3   OH271868   5.276   5.034   4.211  0.1547 -0.1544 -0.3593
16818TIP3    H171869   5.207   5.044   4.276  0.0291 -0.7933 -0.3937
16818TIP3    H271870   5.278   4.940   4.192 -0.9825  0.2319 -2.5377
16819TIP3   OH271871   4.466   1.790   3.633  0.2617 -0.3803 -0.0700
16819TIP3    H171872   4.533   1.722   3.646 -0.7225 -1.0662  1.6158
16819TIP3    H271873   4.384   1.741   3.622 -0.0060  0.4530 -1.8862
16820TIP3   OH271874   3.862   5.907   4.491  0.8488  0.5809  0.0675
16820TIP3    H171875   3.871   5.848   4.417  0.9404 -1.6180  1.7797
16820TIP3    H271876   3.770   5.898   4.518  1.5874 -1.0435  2.1460
16821TIP3   OH271877   6.501   2.208   3.803 -0.1479  0.1725  0.5019
16821TIP3    H171878   6.533   2.262   3.730 -0.7161  0.6522  0.5953
16821TIP3    H271879   6.509   2.118   3.772  0.0311  0.3548  0.0127
16822TIP3   OH271880   3.248   0.814   4.663  0.5554  0.3354 -0.6786
16822TIP3    H171881   3.339   0.826   4.639  0.7424  1.5595  0.5716
16822TIP3    H271882   3.232   0.878   4.732 -1.2270  0.0827 -0.8116
16823TIP3   OH271883   3.808   4.337   5.311 -0.4488 -0.1725  0.7273
16823TIP3    H171884   3.747   4.268   5.286  0.1218 -0.8841  1.2467
16823TIP3    H271885   3.815   4.393   5.234 -1.2404 -0.4659  0.4447
16824TIP3   OH271886   6.420   7.034   4.070 -0.1304  0.4200 -0.0503
16824TIP3    H171887   6.488   6.980   4.031 -0.8258  0.5741 -1.5035
16824TIP3    H271888   6.464   7.080   4.142  1.7294  1.7822 -2.0122
16825TIP3   OH271889   5.653   0.190   2.803 -0.1254  0.0557  0.2149
16825TIP3    H171890   5.674   0.102   2.773  1.4807  0.8962 -1.2244
16825TIP3    H271891   5.733   0.222   2.844  0.5523  2.1459 -2.5351
16826TIP3   OH271892   7.210   7.011   1.033 -0.0116  0.5143  0.5694
16826TIP3    H171893   7.132   7.009   0.978  0.2320  0.3680  0.2235
16826TIP3    H271894   7.280   7.040   0.974  0.3481 -0.1083  0.6753
16827TIP3   OH271895   1.153   1.536   2.726  0.4153  0.0179  0.0031
16827TIP3    H171896   1.246   1.525   2.745  0.1903 -0.4450  0.8761
16827TIP3    H271897   1.121   1.447   2.708  0.1778  0.1934 -0.4518
16828TIP3   OH271898   1.545   2.643   3.876  0.4591 -0.3187 -0.4917
16828TIP3    H171899   1.560   2.631   3.782 -0.0248  3.1225 -1.0546
16828TIP3    H271900   1.596   2.721   3.899 -0.1563 -0.5809  1.9242
16829TIP3   OH271901   0.807   0.754   5.118  0.2723  0.6415 -0.3499
16829TIP3    H171902   0.771   0.687   5.177 -0.2917  1.7707  0.6051
16829TIP3    H271903   0.803   0.835   5.169  1.9603  1.2119 -1.1087
16830TIP3   OH271904   0.933   0.679   5.523  0.5214 -0.3376  0.0764
16830TIP3    H171905   0.884   0.655   5.445  3.0685 -1.3175 -1.2664
16830TIP3    H271906   0.883   0.639   5.595  0.6251 -3.4273 -1.4703
16831TIP3   OH271907   7.268   3.328   5.498 -0.1765 -0.2242  0.3290
16831TIP3    H171908   7.257   3.260   5.431  1.5190 -0.7963  0.6147
16831TIP3    H271909   7.351   3.371   5.476  0.1925 -0.1397  1.8093
16832TIP3   OH271910   6.813   4.688   4.291 -0.6096 -0.6415 -0.0285
16832TIP3    H171911   6.778   4.610   4.248 -2.3087 -0.6130  1.3025
16832TIP3    H271912   6.816   4.754   4.222 -2.9549 -0.7180 -0.2412
16833TIP3   OH271913   0.602   1.461   5.735  0.5498  0.3349 -0.1161
16833TIP3    H171914   0.607   1.401   5.810 -1.3291 -0.0055 -0.2405
16833TIP3    H271915   0.651   1.538   5.763 -2.3439  1.3370  2.5818
16834TIP3   OH271916   6.600   7.163   3.231  0.7043 -0.9667  0.7367
16834TIP3    H171917   6.529   7.099   3.225 -0.3222  0.2960 -1.1721
16834TIP3    H271918   6.566   7.231   3.289  0.3971 -0.4509 -0.0342
16835TIP3   OH271919   0.210   1.440   4.826 -0.0309  0.3403  0.0152
16835TIP3    H171920   0.205   1.513   4.764  1.1975  0.2878 -0.1725
16835TIP3    H271921   0.287   1.460   4.879 -0.1395 -0.4292  0.4646
16836TIP3   OH271922   0.929   1.672   6.168 -0.3088 -0.4281 -0.1007
16836TIP3    H171923   0.948   1.736   6.099  0.9176 -1.2785 -0.5709
16836TIP3    H271924   1.003   1.679   6.228 -1.5186  0.5225  1.3166
16837TIP3   OH271925   4.913   3.109   5.585  0.6249  0.1449  0.7779
16837TIP3    H171926   4.982   3.045   5.603 -0.0231 -0.9130 -0.4586
16837TIP3    H271927   4.932   3.141   5.497 -0.8360 -0.6356  0.1688
16838TIP3   OH271928   2.646   6.541   2.756 -0.2144 -0.4119 -0.3098
16838TIP3    H171929   2.686   6.548   2.669  2.4916  0.0462  0.9187
16838TIP3    H271930   2.581   6.472   2.748  3.5424 -3.9917 -1.4489
16839TIP3   OH271931   1.256   2.203   3.291 -0.3856  0.4768  0.2089
16839TIP3    H171932   1.167   2.238   3.301  0.1781  1.5256  1.7935
16839TIP3    H271933   1.263   2.137   3.360 -0.1361 -0.0492 -0.3163
16840TIP3   OH271934   3.418   6.990   4.254  0.1066 -0.2083  0.9253
16840TIP3    H171935   3.427   7.026   4.343  1.4859  0.1356  0.6632
16840TIP3    H271936   3.503   6.950   4.236 -0.1373 -0.2026 -0.2732
16841TIP3   OH271937   0.117   1.360   5.977 -0.1983  0.5171 -0.9735
16841TIP3    H171938   0.181   1.362   5.906 -0.6248 -1.8819 -1.4522
16841TIP3    H271939   0.170   1.352   6.056  0.2107  1.8217 -1.0928
16842TIP3   OH271940   7.071   1.933   3.254  0.5276 -0.7437 -0.1383
16842TIP3    H171941   7.144   1.959   3.311  0.4385  1.1904 -0.8935
16842TIP3    H271942   7.112   1.880   3.186  1.0299 -0.7932  0.1991
16843TIP3   OH271943   3.559   0.583   3.192  0.4708 -0.4184  0.1166
16843TIP3    H171944   3.536   0.569   3.100  0.6232 -1.5162  0.2469
16843TIP3    H271945   3.578   0.496   3.226 -0.4818 -0.1253  1.4353
16844TIP3   OH271946   5.020   1.624   5.662  0.3956  0.1721  0.3830
16844TIP3    H171947   4.952   1.608   5.728  0.2366 -1.3755 -0.1402
16844TIP3    H271948   5.091   1.665   5.711  0.7378 -1.9840  1.7526
16845TIP3   OH271949   2.614   0.606   4.502  0.0218 -0.3277 -0.1115
16845TIP3    H171950   2.579   0.600   4.591 -0.9104 -1.8300 -0.5599
16845TIP3    H271951   2.540   0.632   4.449  0.6273  0.7682 -0.4246
16846TIP3   OH271952   3.176   6.477   5.402  0.6110 -0.0422 -0.3965
16846TIP3    H171953   3.261   6.513   5.429  1.0764 -1.0649 -0.4836
16846TIP3    H271954   3.152   6.529   5.325  1.2095  0.1935 -0.4317
16847TIP3   OH271955   3.039   3.698   5.420 -0.6442 -0.3432 -0.6159
16847TIP3    H171956   2.985   3.711   5.498  0.0164  1.1447 -0.3789
16847TIP3    H271957   3.113   3.646   5.452 -0.3120  0.3662 -0.2023
16848TIP3   OH271958   1.335   6.747   4.777 -0.0058 -0.1095 -0.3915
16848TIP3    H171959   1.413   6.753   4.722  0.4349  0.1497  0.2539
16848TIP3    H271960   1.367   6.764   4.866 -0.5037 -1.6790  0.1043
16849TIP3   OH271961   4.360   5.079   1.303 -0.0618 -0.2748 -0.2418
16849TIP3    H171962   4.384   5.091   1.212 -0.2606 -0.9397 -0.3799
16849TIP3    H271963   4.429   5.024   1.340 -0.3903 -0.6538 -0.1872
16850TIP3   OH271964   0.266   4.078   1.112 -0.1192  0.2381 -0.2701
16850TIP3    H171965   0.320   4.079   1.192  1.5115  1.6056 -1.3641
16850TIP3    H271966   0.291   4.157   1.065  0.1859 -1.4151 -2.9613
16851TIP3   OH271967   2.399   0.607   6.261 -0.1644  0.2568 -0.5769
16851TIP3    H171968   2.479   0.603   6.209  0.2054  2.6734 -0.2330
16851TIP3    H271969   2.358   0.690   6.238  0.0056  1.4095  2.9142
16852TIP3   OH271970   4.025   1.135   5.389 -0.1477 -0.6122  0.0344
16852TIP3    H171971   4.052   1.073   5.321 -0.1394 -1.3400  0.6990
16852TIP3    H271972   4.107   1.163   5.430 -0.1960 -0.6195  0.1351
16853TIP3   OH271973   0.520   1.499   5.282 -0.3076  0.3176 -0.8161
16853TIP3    H171974   0.596   1.554   5.265 -0.5860  0.4820 -1.5506
16853TIP3    H271975   0.491   1.525   5.369  0.7074 -0.0247 -0.3698
16854TIP3   OH271976   2.773   1.661   1.462 -0.0826 -0.1681 -0.1163
16854TIP3    H171977   2.708   1.730   1.460 -0.0006 -0.0866  0.0371
16854TIP3    H271978   2.823   1.672   1.381  0.2772  0.2848  0.1666
16855TIP3   OH271979   1.416   1.405   5.752  0.0737  0.7068  0.6640
16855TIP3    H171980   1.469   1.441   5.824  3.4462 -1.9854 -0.3352
16855TIP3    H271981   1.373   1.328   5.789  1.3132 -0.3181  0.0062
16856TIP3   OH271982   1.960   5.828   4.182  0.1895  0.4404  0.3875
16856TIP3    H171983   1.912   5.843   4.101 -0.2824  1.2835  0.8143
16856TIP3    H271984   1.932   5.899   4.241 -0.8461 -1.1787  1.8961
16857TIP3   OH271985   6.376   5.953   2.441  0.1996  0.5334  0.1674
16857TIP3    H171986   6.391   5.864   2.472  2.4004  0.8613  0.0986
16857TIP3    H271987   6.404   6.009   2.514  1.9293  1.2210 -0.9996
16858TIP3   OH271988   1.152   0.863   4.103  0.0228 -0.2863  0.4231
16858TIP3    H171989   1.184   0.776   4.080 -1.1914 -1.1506  1.8880
16858TIP3    H271990   1.124   0.855   4.195  0.2282  1.7410  0.6844
16859TIP3   OH271991   5.996   3.111   3.442  1.1778  0.3214  0.3788
16859TIP3    H171992   6.071   3.066   3.403  2.2073  0.9300  1.6114
16859TIP3    H271993   6.016   3.114   3.536 -0.4361  0.4048  0.7331
16860TIP3   OH271994   2.766   1.951   5.521 -0.2296 -0.4254  0.2814
16860TIP3    H171995   2.776   1.867   5.566  1.1248 -0.5154 -0.1478
16860TIP3    H271996   2.790   2.017   5.587 -2.7945 -0.2636  1.0903
16861TIP3   OH271997   3.096   7.227   5.978 -0.0467  0.3488  0.8239
16861TIP3    H171998   3.145   7.306   5.958 -0.1304  0.5487  1.3792
16861TIP3    H271999   3.138   7.192   6.057  0.6057 -0.6955  0.0177
16862TIP3   OH272000   1.866   3.545   2.986 -0.0250  0.0731 -0.2517
16862TIP3    H172001   1.865   3.637   2.961  1.8853  0.5293  1.3159
16862TIP3    H272002   1.940   3.508   2.938  0.4865 -0.1760  0.7183
16863TIP3   OH272003   6.162   6.761   3.830  0.1593  0.2636 -0.4721
16863TIP3    H172004   6.150   6.856   3.821  1.1378  0.3495 -0.9346
16863TIP3    H272005   6.180   6.731   3.742 -2.9363 -0.7932 -0.8155
16864TIP3   OH272006   2.917   2.617   5.054 -0.3603 -0.0611  0.0158
16864TIP3    H172007   2.963   2.625   4.970 -0.5252 -0.0989 -0.0788
16864TIP3    H272008   2.986   2.610   5.119 -0.2265  0.3352 -0.0813
16865TIP3   OH272009   4.425   0.567   5.653  0.2161 -0.0956  0.6473
16865TIP3    H172010   4.509   0.556   5.609 -0.3148  0.6799 -0.5828
16865TIP3    H272011   4.438   0.528   5.739  1.0566 -2.1930 -0.4094
16866TIP3   OH272012   2.043   1.139   4.522  0.5366 -0.0901  0.3194
16866TIP3    H172013   2.090   1.086   4.587 -1.0719 -0.8163  0.8981
16866TIP3    H272014   1.979   1.188   4.573  0.3732  0.5922 -0.5247
16867TIP3   OH272015   2.542   1.553   4.628 -0.1545  0.7310 -0.0398
16867TIP3    H172016   2.518   1.501   4.705  3.1494 -0.0036  0.5842
16867TIP3    H272017   2.599   1.495   4.577  0.0906  2.2502 -1.5437
16868TIP3   OH272018   0.253   7.261   4.178  0.0511 -0.1536 -0.0285
16868TIP3    H172019   0.199   7.340   4.172 -0.9195 -0.9151 -1.7387
16868TIP3    H272020   0.278   7.256   4.270 -0.1607  1.9527  0.1630
16869TIP3   OH272021   3.388   2.459   4.873  0.0081  0.0483 -0.4920
16869TIP3    H172022   3.393   2.431   4.964  0.9487 -2.2440 -1.2259
16869TIP3    H272023   3.295   2.450   4.850 -0.3738  1.4325  0.4700
16870TIP3   OH272024   3.717   0.992   4.987  0.4121 -0.4948  0.3677
16870TIP3    H172025   3.638   1.020   5.035  1.0751  0.2807  1.0325
16870TIP3    H272026   3.788   1.041   5.028  1.1074 -0.4095 -0.9092
16871TIP3   OH272027   2.289   6.122   4.154  0.0163  0.3290  0.7709
16871TIP3    H172028   2.295   6.054   4.086 -0.0456  0.9848  0.1037
16871TIP3    H272029   2.268   6.074   4.234  1.3122 -0.5862  0.5716
16872TIP3   OH272030   2.433   1.268   4.274 -0.2127  0.5982  0.3113
16872TIP3    H172031   2.442   1.262   4.369 -1.2849 -1.9633  0.3162
16872TIP3    H272032   2.485   1.194   4.240  0.7166  1.8864 -1.1415
16873TIP3   OH272033   1.203   3.426   4.573  0.4719 -0.8663 -0.2722
16873TIP3    H172034   1.211   3.408   4.479 -1.4575 -1.2809 -0.3698
16873TIP3    H272035   1.127   3.484   4.580  0.8945 -0.4491  0.9926
16874TIP3   OH272036   1.849   3.152   4.150 -0.8007 -0.1013 -0.1226
16874TIP3    H172037   1.919   3.183   4.206 -0.1332 -2.9505  0.6851
16874TIP3    H272038   1.892   3.123   4.069 -1.2266 -0.2615 -0.2998
16875TIP3   OH272039   4.950   0.240   4.459  0.8383  0.3829 -0.3024
16875TIP3    H172040   4.937   0.317   4.404 -1.2441  0.1340 -0.1641
16875TIP3    H272041   4.888   0.250   4.531  1.1070 -1.0281  0.1489
16876TIP3   OH272042   5.255   2.075   5.280 -0.0239 -0.0697  0.2046
16876TIP3    H172043   5.206   2.031   5.210  0.1100 -0.3402  0.2802
16876TIP3    H272044   5.333   2.020   5.292 -0.1238 -0.1074  0.6745
16877TIP3   OH272045   4.457   2.320   5.479 -0.1625  0.0474  0.3027
16877TIP3    H172046   4.436   2.256   5.547  1.8646  0.4160  1.3144
16877TIP3    H272047   4.438   2.405   5.520 -1.4503  0.1669 -0.5236
16878TIP3   OH272048   3.030   0.381   2.706 -0.1979 -0.1755  0.3057
16878TIP3    H172049   3.101   0.342   2.655 -0.0791  0.5136 -0.0498
16878TIP3    H272050   3.060   0.469   2.727 -1.4752  0.5944 -0.9553
16879TIP3   OH272051   6.560   0.999   3.199  0.1421 -0.6589 -0.4062
16879TIP3    H172052   6.633   1.036   3.149  0.0917 -0.2304 -0.1667
16879TIP3    H272053   6.551   1.057   3.275  0.8312 -1.8412  0.6026
16880TIP3   OH272054   2.829   2.359   5.686 -0.0752 -0.0884  0.2630
16880TIP3    H172055   2.901   2.417   5.663  0.9080 -1.6058 -0.5759
16880TIP3    H272056   2.755   2.418   5.700  1.2994  1.4989  1.1342
16881TIP3   OH272057   5.705   2.488   3.083  0.3304  0.0143 -0.3583
16881TIP3    H172058   5.699   2.527   2.996  4.8442  1.2503 -0.2384
16881TIP3    H272059   5.662   2.550   3.141  1.0987  1.3207 -1.1619
16882TIP3   OH272060   4.704   2.123   5.445 -0.1331  0.2691  0.5554
16882TIP3    H172061   4.672   2.071   5.519 -0.2312  0.9885  1.0328
16882TIP3    H272062   4.774   2.071   5.407  1.5615  0.9335  2.6320
16883TIP3   OH272063   2.248   2.045   3.659 -0.7055  0.2190  0.0024
16883TIP3    H172064   2.284   2.087   3.737  1.2130 -1.9088  0.3460
16883TIP3    H272065   2.193   2.111   3.618  0.9607  2.4788  1.3406
16884TIP3   OH272066   6.804   2.671   3.226 -0.3601  0.1046  0.1968
16884TIP3    H172067   6.732   2.620   3.189  0.0471 -1.4638  1.5390
16884TIP3    H272068   6.879   2.613   3.223  0.5128  1.2066  0.2266
16885TIP3   OH272069   3.459   0.368   5.160  0.1053  0.6919 -0.9842
16885TIP3    H172070   3.385   0.319   5.125  0.5939 -2.5239  2.2603
16885TIP3    H272071   3.536   0.327   5.120  0.4473 -0.1787  0.5715
16886TIP3   OH272072   2.085   6.986   5.683 -0.0303 -0.2821  0.6674
16886TIP3    H172073   2.026   6.967   5.755  0.9307 -2.0490  1.0275
16886TIP3    H272074   2.080   6.909   5.627  2.5046 -0.8444  1.1307
16887TIP3   OH272075   4.698   2.639   2.021 -0.0627  0.1812  0.0865
16887TIP3    H172076   4.715   2.625   2.114  0.0240 -0.5781 -0.0441
16887TIP3    H272077   4.776   2.686   1.990  0.0381  0.1802  0.3378
16888TIP3   OH272078   2.314   1.619   4.451  0.2485 -0.0607  0.8406
16888TIP3    H172079   2.303   1.642   4.543  0.1676 -2.2355  1.4165
16888TIP3    H272080   2.251   1.548   4.437  2.7517 -2.1976  0.0931
16889TIP3   OH272081   5.751   1.917   3.317 -0.4204  0.1963 -0.3208
16889TIP3    H172082   5.798   2.000   3.322 -0.0469  0.1587 -2.5382
16889TIP3    H272083   5.817   1.853   3.290 -0.9736 -0.5788  0.1358
16890TIP3   OH272084   4.756   0.912   4.461 -0.0455  0.2710 -0.4622
16890TIP3    H172085   4.827   0.935   4.401  0.7893  0.3232  0.5342
16890TIP3    H272086   4.752   0.986   4.523  1.3464 -1.3010  1.5739
16891TIP3   OH272087   3.159   1.458   3.111 -0.0929 -0.0057 -0.3281
16891TIP3    H172088   3.212   1.400   3.166 -1.1832 -1.7143 -1.0372
16891TIP3    H272089   3.212   1.473   3.033 -1.0568 -2.6273 -1.5409
16892TIP3   OH272090   6.366   6.464   5.339  0.6480 -0.3021  0.0142
16892TIP3    H172091   6.337   6.532   5.278  0.8564 -0.6674 -0.4933
16892TIP3    H272092   6.301   6.395   5.330  0.3634 -0.1216  0.6265
16893TIP3   OH272093   3.599   0.092   5.657 -0.4919 -0.5705  0.0514
16893TIP3    H172094   3.557   0.172   5.626 -1.1702 -0.4097  1.3456
16893TIP3    H272095   3.527   0.037   5.687 -0.1762 -2.3952 -2.4101
16894TIP3   OH272096   5.265   6.202   4.668  0.0599  0.3332 -0.3576
16894TIP3    H172097   5.170   6.188   4.665  0.3601 -1.4854 -2.3552
16894TIP3    H272098   5.293   6.190   4.577  2.3831 -0.4333  0.4493
16895TIP3   OH272099   3.177   6.873   5.209  0.6486  0.2676 -0.4212
16895TIP3    H172100   3.116   6.813   5.167 -1.0335  0.6596  1.3945
16895TIP3    H272101   3.124   6.949   5.232  1.2750 -0.2992  3.2193
16896TIP3   OH272102   0.354   0.263   4.391  0.2349  0.3813  0.8116
16896TIP3    H172103   0.302   0.293   4.466  0.8084  1.1140  0.9258
16896TIP3    H272104   0.333   0.170   4.382 -0.1639  0.3933  1.6195
16897TIP3   OH272105   0.870   0.261   4.234  0.4286  0.2843 -0.3897
16897TIP3    H172106   0.867   0.253   4.139 -0.3735 -0.6451 -0.3000
16897TIP3    H272107   0.847   0.352   4.252 -3.7302 -0.5405 -0.9216
16898TIP3   OH272108   2.550   3.090   3.762 -0.1733  0.4560 -0.7685
16898TIP3    H172109   2.587   3.006   3.734  1.9439  1.5062 -1.2701
16898TIP3    H272110   2.575   3.151   3.693 -2.4844  1.3230 -0.8593
16899TIP3   OH272111   3.039   3.354   4.396 -0.4768 -0.2063  0.0060
16899TIP3    H172112   3.060   3.443   4.369  2.4159 -1.0984 -0.8651
16899TIP3    H272113   2.972   3.325   4.333  1.2081  0.1228 -1.9823
16900TIP3   OH272114   3.615   0.074   5.327  0.2708  0.4650 -0.3047
16900TIP3    H172115   3.535   0.068   5.380  0.6183 -0.3631  0.1355
16900TIP3    H272116   3.684   0.040   5.384  1.1097  2.0637 -0.3469
16901TIP3   OH272117   3.616   5.766   4.296  0.2529  0.6328 -0.3144
16901TIP3    H172118   3.543   5.737   4.351  0.9356  0.3148  0.4289
16901TIP3    H272119   3.587   5.850   4.261 -0.6937  0.2506 -0.4619
16902TIP3   OH272120   5.746   1.828   4.729 -0.1775  0.4073 -0.2150
16902TIP3    H172121   5.652   1.809   4.735 -0.1985  0.1206 -1.3169
16902TIP3    H272122   5.756   1.914   4.769 -0.6365 -0.3254  1.5383
16903TIP3   OH272123   3.785   1.473   4.743 -0.3454 -0.2658  0.2167
16903TIP3    H172124   3.775   1.564   4.715  0.1502 -0.0265  0.7991
16903TIP3    H272125   3.696   1.439   4.750 -0.5228  0.1040 -0.2110
16904TIP3   OH272126   1.795   1.658   3.866  0.4693  0.2792  0.2959
16904TIP3    H172127   1.745   1.586   3.905 -2.0952  2.2905  0.9204
16904TIP3    H272128   1.887   1.634   3.879 -0.3291 -2.6451  0.8544
16905TIP3   OH272129   1.366   2.103   3.906  0.2808 -0.3846 -0.0410
16905TIP3    H172130   1.413   2.186   3.903  0.8150 -0.6678  0.2883
16905TIP3    H272131   1.405   2.050   3.837  0.0155 -0.3989 -0.1801
16906TIP3   OH272132   5.778   0.512   3.043  0.5777 -0.1291  0.0943
16906TIP3    H172133   5.701   0.463   3.073  0.7889 -1.1916 -1.0549
16906TIP3    H272134   5.741   0.587   2.996  0.2466 -0.2207  0.2052
16907TIP3   OH272135   2.707   7.192   4.469  0.4307  0.0586 -0.4819
16907TIP3    H172136   2.612   7.186   4.461  0.3220 -1.9668  1.8553
16907TIP3    H272137   2.731   7.266   4.412 -2.5213  0.6776 -1.0057
16908TIP3   OH272138   2.450   1.244   4.557  0.5154  0.8345 -0.2527
16908TIP3    H172139   2.415   1.156   4.576 -1.2169  1.4087 -0.7356
16908TIP3    H272140   2.413   1.300   4.625  3.5806  0.8019  1.5660
16909TIP3   OH272141   0.079   2.241   0.367  0.2886  0.2275 -0.0499
16909TIP3    H172142   0.039   2.169   0.415 -0.9417  1.1689  0.3405
16909TIP3    H272143   0.103   2.305   0.434  1.1311  0.3164 -0.4211
16910TIP3   OH272144   2.916   0.743   5.339  0.1279 -0.1273  0.3950
16910TIP3    H172145   2.824   0.723   5.359 -0.3841  0.6497 -1.0940
16910TIP3    H272146   2.913   0.787   5.254  2.1871 -3.5930 -1.6144
16911TIP3   OH272147   3.913   1.217   6.184  0.3305  0.5248 -0.0257
16911TIP3    H172148   3.982   1.227   6.119  0.0831  0.9984 -0.2263
16911TIP3    H272149   3.958   1.197   6.265  0.5306 -2.1264 -0.7472
16912TIP3   OH272150   7.299   0.300   3.811 -0.3030  0.0202 -0.1253
16912TIP3    H172151   7.347   0.351   3.746  1.1125  0.2386  1.0466
16912TIP3    H272152   7.217   0.277   3.769 -0.2396  1.8341 -1.2797
16913TIP3   OH272153   3.553   1.638   5.863 -0.4763  0.3842 -0.5592
16913TIP3    H172154   3.558   1.733   5.851  1.3083  0.0794 -2.4932
16913TIP3    H272155   3.553   1.626   5.958 -0.3466  2.3023 -0.2960
16914TIP3   OH272156   2.445   1.059   5.841  0.0919 -0.0528 -0.2428
16914TIP3    H172157   2.389   1.127   5.805  0.4444  0.9693  1.0814
16914TIP3    H272158   2.424   1.058   5.935  1.0313 -0.8589 -0.0262
16915TIP3   OH272159   6.008   0.210   4.243  0.2244  0.7178  0.0602
16915TIP3    H172160   6.084   0.267   4.227 -0.0617  0.7567 -1.1425
16915TIP3    H272161   5.945   0.233   4.175  0.2882 -1.3761 -0.7248
16916TIP3   OH272162   4.731   1.276   3.620  0.1215  0.1011 -0.3138
16916TIP3    H172163   4.718   1.232   3.704  0.6613 -0.9161 -0.7473
16916TIP3    H272164   4.825   1.295   3.617  0.1221  0.0369 -0.7353
16917TIP3   OH272165   3.416   0.544   1.765 -0.4790 -0.2406  0.1472
16917TIP3    H172166   3.475   0.619   1.763 -1.8759  0.9701  1.9366
16917TIP3    H272167   3.347   0.565   1.702  1.4657 -2.1058 -2.6791
16918TIP3   OH272168   3.057   2.911   4.229 -0.0300 -0.2593  0.2868
16918TIP3    H172169   2.972   2.953   4.216 -0.5583 -1.0396  1.1268
16918TIP3    H272170   3.122   2.978   4.207 -0.8624  0.5375  0.2603
16919TIP3   OH272171   2.127   3.788   4.475  0.0392 -0.9151  0.1298
16919TIP3    H172172   2.187   3.862   4.469 -0.9782 -0.1079 -0.3328
16919TIP3    H272173   2.183   3.711   4.476  1.1582 -0.1066  1.4754
16920TIP3   OH272174   3.772   0.028   4.318 -0.3821  0.3892 -0.2361
16920TIP3    H172175   3.699   0.016   4.257 -1.2262 -0.6326  0.9290
16920TIP3    H272176   3.767   0.120   4.344 -1.7031  0.1696  0.3432
16921TIP3   OH272177   0.879   5.910   5.345  0.1514 -0.2870  0.0582
16921TIP3    H172178   0.959   5.896   5.294  0.6154 -0.0114  0.7053
16921TIP3    H272179   0.895   5.863   5.427  0.4869  1.4889  1.0266
16922TIP3   OH272180   6.566   1.413   3.670 -0.0995  0.5119 -0.2216
16922TIP3    H172181   6.643   1.358   3.657 -0.2011  0.1645  0.6542
16922TIP3    H272182   6.522   1.376   3.746 -0.8009  1.0903 -0.3379
16923TIP3   OH272183   1.091   7.232   2.058 -0.0843 -0.0181 -0.0553
16923TIP3    H172184   1.109   7.317   2.097  0.7766 -0.6425  0.9217
16923TIP3    H272185   1.172   7.183   2.069 -1.4302 -1.9025  1.8631
16924TIP3   OH272186   0.115   3.691   2.732  0.1465 -0.0820  0.9632
16924TIP3    H172187   0.194   3.705   2.680 -1.4253 -0.7910 -1.7246
16924TIP3    H272188   0.109   3.768   2.789  1.4825  1.1356 -0.5070
16925TIP3   OH272189   2.459   0.786   5.728  0.0352  0.3112  0.4931
16925TIP3    H172190   2.484   0.722   5.794 -0.9694 -1.3067 -0.6441
16925TIP3    H272191   2.451   0.869   5.775  2.4924 -0.1541  1.7906
16926TIP3   OH272192   3.191   2.741   5.810  0.1773 -0.2198 -0.6033
16926TIP3    H172193   3.261   2.770   5.868 -2.3421  2.5395  1.1862
16926TIP3    H272194   3.120   2.715   5.868 -0.9994 -1.1569 -2.4077
16927TIP3   OH272195   0.161   2.254   5.722 -0.2604  0.1760  0.0738
16927TIP3    H172196   0.226   2.277   5.788 -0.0334  2.5024 -0.9486
16927TIP3    H272197   0.196   2.288   5.640 -1.3432 -1.2200 -0.9895
16928TIP3   OH272198   3.564   1.056   3.508 -0.0945  0.1385  0.6181
16928TIP3    H172199   3.569   1.042   3.603 -0.9732 -0.2201  0.6157
16928TIP3    H272200   3.555   0.968   3.472  0.6069  0.2457  0.1738
16929TIP3   OH272201   5.268   1.464   4.457  0.7660 -0.6342  0.2177
16929TIP3    H172202   5.221   1.539   4.495 -0.1684 -1.4115  0.6006
16929TIP3    H272203   5.341   1.504   4.409 -1.0697  0.6669 -1.5478
16930TIP3   OH272204   3.830   1.629   2.815  0.3346 -0.8134  0.3837
16930TIP3    H172205   3.872   1.601   2.734 -1.3095 -0.0911 -0.7329
16930TIP3    H272206   3.745   1.587   2.815 -0.7123  1.2252  0.4515
16931TIP3   OH272207   3.662   3.423   4.627  0.4293 -0.4113 -0.2528
16931TIP3    H172208   3.636   3.335   4.655  0.0410 -0.3724 -0.4902
16931TIP3    H272209   3.583   3.461   4.589  0.8874 -0.3552 -1.1586
16932TIP3   OH272210   0.411   0.430   2.165  0.2228  0.5403  0.1765
16932TIP3    H172211   0.415   0.399   2.074  2.3433 -1.3680  0.8829
16932TIP3    H272212   0.319   0.423   2.189 -0.1449 -0.1677 -1.4030
16933TIP3   OH272213   6.817   2.497   2.521 -0.5075 -0.4520  0.1974
16933TIP3    H172214   6.780   2.562   2.461 -1.9235  0.6164  2.1401
16933TIP3    H272215   6.877   2.445   2.467 -1.2731  0.8426 -1.9750
16934TIP3   OH272216   2.867   7.285   6.195 -0.0215  0.8930 -0.5288
16934TIP3    H172217   2.834   7.199   6.222  2.7937 -0.0531  0.0462
16934TIP3    H272218   2.907   7.270   6.110  0.8427  1.5314 -0.2483
16935TIP3   OH272219   0.788   2.860   6.159  0.4869  0.1621  0.4240
16935TIP3    H172220   0.870   2.867   6.209  1.0747  1.0801 -0.6564
16935TIP3    H272221   0.795   2.776   6.114  1.4425  0.8486 -0.7244
16936TIP3   OH272222   3.200   1.004   5.679  0.3411 -0.7344 -0.0810
16936TIP3    H172223   3.150   1.017   5.759  0.4659  0.6476 -0.2106
16936TIP3    H272224   3.157   0.931   5.634 -1.8338  0.7028 -0.4100
16937TIP3   OH272225   4.127   2.404   5.441 -0.2129 -0.1853  0.7493
16937TIP3    H172226   4.166   2.442   5.520  1.3836 -0.7799  0.2599
16937TIP3    H272227   4.201   2.374   5.389 -1.3574 -2.3129  0.2770
16938TIP3   OH272228   3.337   4.015   4.459 -0.3890 -0.0699 -0.1275
16938TIP3    H172229   3.253   4.006   4.504 -0.8050 -0.6139 -1.0136
16938TIP3    H272230   3.402   3.990   4.525 -0.8803  0.7845  0.7017
16939TIP3   OH272231   7.276   0.760   5.270 -0.0175  0.0358 -0.5062
16939TIP3    H172232   7.256   0.824   5.339  1.1186  0.7227 -0.7931
16939TIP3    H272233   7.247   0.801   5.189  0.9783  0.3289 -0.7264
16940TIP3   OH272234   4.167   1.661   3.564  0.2725  0.2868  0.0044
16940TIP3    H172235   4.131   1.702   3.486 -2.5634  1.1789  1.7227
16940TIP3    H272236   4.121   1.577   3.571  1.9520 -0.6894 -0.3452
16941TIP3   OH272237   3.700   1.777   5.113 -0.0538 -0.1140  0.6742
16941TIP3    H172238   3.702   1.826   5.194  4.0134 -0.0427  0.6461
16941TIP3    H272239   3.737   1.691   5.135  0.1186 -0.4660 -0.8566
16942TIP3   OH272240   4.435   7.168   4.804  0.2311  0.5274 -0.5410
16942TIP3    H172241   4.346   7.199   4.785  0.0992 -0.1958 -1.1215
16942TIP3    H272242   4.445   7.181   4.899 -1.2116 -1.2101 -0.1348
16943TIP3   OH272243   1.466   6.057   5.031 -0.3286  0.0421 -0.0877
16943TIP3    H172244   1.492   6.148   5.047 -1.3366  0.4307 -0.5999
16943TIP3    H272245   1.473   6.046   4.936  0.1858 -0.5410  0.0169
16944TIP3   OH272246   2.306   2.837   3.327  0.2621 -0.5584 -0.6769
16944TIP3    H172247   2.233   2.775   3.324 -1.0376  0.8500  0.8095
16944TIP3    H272248   2.278   2.910   3.273 -0.2013  0.7694  1.3153
16945TIP3   OH272249   5.271   0.851   3.903 -0.5423  0.0369  0.1039
16945TIP3    H172250   5.228   0.927   3.943  0.8276 -0.1165  1.9295
16945TIP3    H272251   5.245   0.777   3.958  1.8987 -0.0808  1.1748
16946TIP3   OH272252   2.339   1.763   5.080  0.3567 -0.6693 -0.2755
16946TIP3    H172253   2.299   1.792   5.163 -0.4485  0.3667 -1.0116
16946TIP3    H272254   2.403   1.831   5.059  0.4309 -0.8393 -0.5995
16947TIP3   OH272255   3.021   0.645   5.786  0.2200  0.1062 -0.4323
16947TIP3    H172256   2.986   0.582   5.723 -3.2035 -1.5270  2.8277
16947TIP3    H272257   3.072   0.591   5.847 -1.0445  0.7405  1.2282
16948TIP3   OH272258   5.619   4.787   4.456  0.2455 -0.4654 -0.9057
16948TIP3    H172259   5.531   4.750   4.452  0.1361 -0.3480  0.1461
16948TIP3    H272260   5.604   4.882   4.458  0.2110 -0.4769  2.3482
16949TIP3   OH272261   3.569   0.727   5.033  0.6211 -0.0613 -0.1307
16949TIP3    H172262   3.621   0.807   5.038 -0.9765  0.9914  0.0162
16949TIP3    H272263   3.558   0.700   5.124 -0.7862  0.8578 -0.0105
16950TIP3   OH272264   3.690   0.245   5.075  0.3618 -0.0614 -0.3936
16950TIP3    H172265   3.774   0.227   5.033  0.5026  0.8088 -0.4852
16950TIP3    H272266   3.694   0.197   5.158  1.1608  0.3877 -0.1608
16951TIP3   OH272267   5.750   6.820   4.799 -0.3909  0.1144  0.1496
16951TIP3    H172268   5.800   6.789   4.724 -0.2353 -0.4015  0.4635
16951TIP3    H272269   5.737   6.913   4.783 -0.2212  0.0365 -0.4381
16952TIP3   OH272270   4.039   0.736   5.006  0.1963  0.2409 -0.0917
16952TIP3    H172271   3.953   0.697   5.019 -0.5104  1.3069 -1.4484
16952TIP3    H272272   4.022   0.815   4.956  2.0758 -0.1356 -1.3911
16953TIP3   OH272273   3.462   2.037   3.841 -0.5561  0.2106 -0.4419
16953TIP3    H172274   3.552   2.060   3.816 -0.5866  1.3506  0.4478
16953TIP3    H272275   3.421   2.009   3.759  0.7884 -0.9468 -0.7485
16954TIP3   OH272276   4.659   0.877   4.017 -0.2288 -0.4738 -0.4400
16954TIP3    H172277   4.594   0.813   4.044 -1.1831 -0.8662 -3.4775
16954TIP3    H272278   4.612   0.960   4.013 -0.0149 -0.3561 -0.5573
16955TIP3   OH272279   3.139   0.972   4.455  0.0402 -0.1797  0.6927
16955TIP3    H172280   3.156   0.909   4.525 -0.7994  0.4704  1.4935
16955TIP3    H272281   3.068   1.027   4.488  0.2966  0.7613 -0.2692
16956TIP3   OH272282   2.795   0.406   5.223 -0.2238  0.3778  0.7786
16956TIP3    H172283   2.730   0.385   5.291 -0.0366 -0.3680  0.7288
16956TIP3    H272284   2.743   0.427   5.146 -0.3910 -0.8482  0.5581
16957TIP3   OH272285   2.250   7.098   4.033 -0.0377 -0.6937 -0.1546
16957TIP3    H172286   2.265   7.126   3.943 -0.2385  0.3602  0.1373
16957TIP3    H272287   2.334   7.112   4.078  0.0725 -1.2482 -0.1786
16958TIP3   OH272288   2.905   2.500   6.147 -0.3768  0.5679 -0.0600
16958TIP3    H172289   2.940   2.555   6.217 -0.3650  0.5670 -0.0650
16958TIP3    H272290   2.871   2.423   6.193 -2.0771  1.4224  0.1232
16959TIP3   OH272291   5.768   4.262   3.127 -0.0993 -0.1488  0.8100
16959TIP3    H172292   5.846   4.207   3.123 -0.0837 -0.0308 -0.9537
16959TIP3    H272293   5.786   4.326   3.196  1.2987 -0.2038  0.4995
16960TIP3   OH272294   3.472   1.636   5.602 -0.0106 -0.0836 -0.7110
16960TIP3    H172295   3.437   1.548   5.590  1.7322 -0.7193 -1.3240
16960TIP3    H272296   3.482   1.646   5.697  1.2629 -1.1556 -0.7172
16961TIP3   OH272297   3.449   5.420   5.464 -0.6565 -0.1226  0.7578
16961TIP3    H172298   3.402   5.347   5.503 -0.3439 -0.4326  0.5554
16961TIP3    H272299   3.498   5.382   5.391 -0.7036  0.3339  0.4822
16962TIP3   OH272300   2.821   4.621   5.591  0.2612  0.5503  0.1458
16962TIP3    H172301   2.744   4.643   5.539 -0.3438 -1.4324  0.1449
16962TIP3    H272302   2.857   4.544   5.548 -0.2168 -1.0904  2.5882
16963TIP3   OH272303   1.790   4.125   3.259  0.2872  0.0737 -0.2309
16963TIP3    H172304   1.776   4.219   3.249 -1.3493  0.0251  1.3427
16963TIP3    H272305   1.868   4.117   3.314 -0.5440  0.5335  1.0117
16964TIP3   OH272306   3.387   1.803   6.255  0.0652 -0.0090 -0.3185
16964TIP3    H172307   3.439   1.734   6.212  0.2701  0.9639 -1.6895
16964TIP3    H272308   3.418   1.884   6.214 -1.2248  0.7579  0.2168
16965TIP3   OH272309   2.440   1.108   5.446  0.1538 -0.0780 -0.4423
16965TIP3    H172310   2.474   1.168   5.380  0.7708 -0.4562 -0.4732
16965TIP3    H272311   2.447   1.022   5.405  0.9198 -0.3573  0.2729
16966TIP3   OH272312   1.338   2.414   5.274  0.8533  0.2673 -0.3529
16966TIP3    H172313   1.248   2.431   5.246  0.5348  1.4420  1.2942
16966TIP3    H272314   1.392   2.459   5.210  0.2031  0.9851 -0.3991
16967TIP3   OH272315   2.228   1.078   5.602  0.0106 -0.1764 -0.5133
16967TIP3    H172316   2.155   1.069   5.541 -0.3342  1.0366 -0.2823
16967TIP3    H272317   2.306   1.081   5.546 -0.3908  2.1525 -0.9874
16968TIP3   OH272318   6.657   1.800   3.491  0.2497 -0.2369 -0.7736
16968TIP3    H172319   6.643   1.883   3.446  0.9060  0.4624  0.3170
16968TIP3    H272320   6.732   1.760   3.446 -1.1705 -1.0877 -2.4701
16969TIP3   OH272321   4.721   3.086   5.764 -0.0909  0.6032 -0.3460
16969TIP3    H172322   4.789   3.100   5.698  5.0254 -0.2199  4.3224
16969TIP3    H272323   4.686   3.173   5.783  0.3478  1.1860 -2.1612
16970TIP3   OH272324   1.457   1.334   6.064 -0.5964  0.1986  0.2337
16970TIP3    H172325   1.386   1.316   6.003  0.7105  0.2451 -1.3433
16970TIP3    H272326   1.509   1.403   6.021 -0.0284  0.7019  1.6956
16971TIP3   OH272327   2.285   2.352   5.434 -0.4282  0.1885 -0.2039
16971TIP3    H172328   2.255   2.415   5.500  1.2061 -0.1456  0.9002
16971TIP3    H272329   2.206   2.304   5.409 -0.9549 -0.2451  2.1546
16972TIP3   OH272330   3.022   1.778   5.775  0.5116 -0.0784 -0.1403
16972TIP3    H172331   2.964   1.758   5.702  1.3134  1.8080 -1.3122
16972TIP3    H272332   3.021   1.698   5.828 -1.6542 -0.7544 -1.1183
16973TIP3   OH272333   5.785   1.741   4.443 -0.3596  0.3695 -0.0231
16973TIP3    H172334   5.853   1.794   4.402  1.4629 -1.5496  0.4535
16973TIP3    H272335   5.764   1.788   4.524  1.3763  0.2682  0.4974
16974TIP3   OH272336   3.755   3.338   5.691  0.0235 -0.1857 -0.6081
16974TIP3    H172337   3.767   3.419   5.741 -0.5008 -0.1672 -0.5123
16974TIP3    H272338   3.660   3.325   5.689  0.1544 -1.5078  0.5142
16975TIP3   OH272339   3.165   1.305   3.579  0.1322  0.0512 -0.6386
16975TIP3    H172340   3.150   1.257   3.497  1.3111  1.3209 -1.6234
16975TIP3    H272341   3.140   1.395   3.559 -0.2681  0.2364  0.6343
16976TIP3   OH272342   7.096   1.179   4.800 -0.3249 -0.0208  0.2253
16976TIP3    H172343   7.185   1.191   4.833  0.1663 -0.2825 -0.9650
16976TIP3    H272344   7.041   1.175   4.878  0.7203  0.0598  0.9703
16977TIP3   OH272345   5.004   2.795   5.821  0.0255 -0.0858  0.0115
16977TIP3    H172346   4.912   2.816   5.832  0.0082 -0.2845  0.2683
16977TIP3    H272347   5.005   2.705   5.787  0.1357 -0.3635  0.7306
16978TIP3   OH272348   1.470   4.917   5.072  0.4296  0.6042 -0.7438
16978TIP3    H172349   1.493   4.826   5.091 -0.2072  0.5009 -0.4538
16978TIP3    H272350   1.403   4.911   5.004 -0.6831  0.7897  0.3121
16979TIP3   OH272351   6.909   0.328   4.304  0.1457 -0.3619 -0.1844
16979TIP3    H172352   6.918   0.289   4.390  0.9234  1.2749  0.4967
16979TIP3    H272353   6.842   0.396   4.315  0.6194  0.1991 -0.7416
16980TIP3   OH272354   3.595   0.860   5.548  0.4482 -0.1526  0.1031
16980TIP3    H172355   3.576   0.881   5.639 -0.1564  1.2121 -0.3163
16980TIP3    H272356   3.509   0.863   5.505  0.7388 -0.7175 -0.5209
16981TIP3   OH272357   2.590   4.984   5.857  0.1253 -0.2776 -0.1781
16981TIP3    H172358   2.608   5.038   5.934  0.3818 -0.9899  0.2617
16981TIP3    H272359   2.677   4.964   5.821  0.1357 -1.9700  0.7468
16982TIP3   OH272360   3.433   1.155   5.739 -0.0057  0.0216 -0.2656
16982TIP3    H172361   3.361   1.093   5.732  0.7135 -0.7035 -1.5094
16982TIP3    H272362   3.394   1.233   5.778 -1.1277 -0.8673  0.4448
16983TIP3   OH272363   4.072   0.151   3.271  0.2698  0.2109 -0.2121
16983TIP3    H172364   4.073   0.165   3.366  3.2486 -1.8175  0.1298
16983TIP3    H272365   4.001   0.088   3.256  0.7311 -0.5780  0.8703
16984TIP3   OH272366   4.501   5.529   3.942 -0.1814  0.2888  0.2091
16984TIP3    H172367   4.464   5.515   4.029 -0.4995  1.7483  0.3304
16984TIP3    H272368   4.581   5.579   3.959 -1.3472  2.4599 -0.4443
16985TIP3   OH272369   7.179   1.949   4.690  0.9585 -0.1111 -0.1479
16985TIP3    H172370   7.137   2.004   4.624 -0.4652  0.3346  1.1058
16985TIP3    H272371   7.206   1.870   4.643 -0.7236 -0.1264 -1.1097
16986TIP3   OH272372   1.968   0.005   5.662  0.1235 -0.0193 -0.0600
16986TIP3    H172373   1.919  -0.075   5.683 -0.2574  0.5402  1.2172
16986TIP3    H272374   2.060  -0.021   5.667  0.0172 -0.1843  1.1912
16987TIP3   OH272375   2.625   0.221   5.349 -0.5118 -0.6520 -0.1430
16987TIP3    H172376   2.562   0.185   5.288  1.1108 -0.5785 -1.9247
16987TIP3    H272377   2.694   0.155   5.355 -0.3528 -0.3923  1.1563
16988TIP3   OH272378   2.609   0.787   3.740  0.0811 -0.2290  0.2753
16988TIP3    H172379   2.514   0.773   3.751 -0.2817  1.8532 -0.0270
16988TIP3    H272380   2.633   0.843   3.813  0.8917  0.1095 -0.2549
16989TIP3   OH272381   7.168   0.727   3.305 -0.2743 -0.7458  0.2785
16989TIP3    H172382   7.123   0.649   3.339  1.6638 -2.1540 -0.3206
16989TIP3    H272383   7.108   0.762   3.239 -1.0037 -1.9290  0.2958
16990TIP3   OH272384   5.684   3.961   3.983 -0.8490 -0.1641  0.9025
16990TIP3    H172385   5.746   3.913   4.038  4.3842  1.8913 -2.7869
16990TIP3    H272386   5.643   3.894   3.929  1.9734 -1.1343 -0.1113
16991TIP3   OH272387   5.931   1.700   3.277 -0.2477 -0.0248 -0.3078
16991TIP3    H172388   6.013   1.693   3.229  0.4955 -0.0814  0.9526
16991TIP3    H272389   5.908   1.609   3.298  0.7073  0.1410  1.5497
16992TIP3   OH272390   3.515   2.138   5.595 -0.2780  0.1632  0.7234
16992TIP3    H172391   3.536   2.230   5.612  0.3544 -0.1465  1.6023
16992TIP3    H272392   3.600   2.096   5.582 -0.5682 -0.3030  0.2829
16993TIP3   OH272393   2.141   0.159   4.299  0.3140 -0.3639 -0.1835
16993TIP3    H172394   2.073   0.222   4.277 -0.6844 -1.4868 -0.3614
16993TIP3    H272395   2.094   0.082   4.331  1.5752 -0.4284  1.6131
16994TIP3   OH272396   4.231   3.909   5.614 -0.4434 -0.0026  0.1205
16994TIP3    H172397   4.228   3.864   5.699 -1.5335  0.0462  0.1175
16994TIP3    H272398   4.154   3.877   5.567  1.9487 -2.6084 -2.2161
16995TIP3   OH272399   3.662   0.820   4.789 -0.2901 -0.3319 -0.3131
16995TIP3    H172400   3.722   0.877   4.838 -0.6801  0.6750 -0.9993
16995TIP3    H272401   3.600   0.789   4.855 -0.1456  0.1371  0.0530
16996TIP3   OH272402   0.081   0.377   3.250  0.0699  0.1554  0.1995
16996TIP3    H172403   0.050   0.292   3.280 -0.9268  1.0928  1.9488
16996TIP3    H272404   0.030   0.394   3.170  1.1082 -1.3687 -0.8137
16997TIP3   OH272405   4.327   2.282   3.372  0.3207 -0.5012  0.0371
16997TIP3    H172406   4.405   2.318   3.413 -0.3717  0.0701  0.8600
16997TIP3    H272407   4.306   2.205   3.424  1.3122 -1.6513 -1.2140
16998TIP3   OH272408   1.925   1.433   3.642 -0.2708  0.8949  0.3006
16998TIP3    H172409   1.959   1.448   3.731  2.3958 -0.3130 -0.4784
16998TIP3    H272410   1.956   1.509   3.592 -0.9333  1.0756  0.1615
16999TIP3   OH272411   6.065   1.325   4.137 -0.2205  0.0817  0.5242
16999TIP3    H172412   5.982   1.335   4.183 -0.1357 -0.7250  0.8741
16999TIP3    H272413   6.045   1.344   4.045 -0.1382  2.9313  1.0514
17000TIP3   OH272414   3.651   0.139   3.097  0.7576  0.5931 -0.2056
17000TIP3    H172415   3.577   0.131   3.157  2.8836 -1.6596  2.3095
17000TIP3    H272416   3.631   0.080   3.025 -0.0625  0.2506  0.2987
17001TIP3   OH272417   1.246   2.076   4.200 -0.3335 -0.3813 -0.2723
17001TIP3    H172418   1.307   2.122   4.142  2.9672 -2.2090  1.6009
17001TIP3    H272419   1.234   1.991   4.159  0.2685 -0.8731  0.5579
17002TIP3   OH272420   2.112   0.460   3.577  0.1918  0.5709  0.0112
17002TIP3    H172421   2.115   0.431   3.668  0.0885 -2.3911 -0.8475
17002TIP3    H272422   2.019   0.465   3.557  0.2033  2.3307  0.3885
17003TIP3   OH272423   4.825   1.571   4.690 -0.4258  0.1659 -0.2186
17003TIP3    H172424   4.872   1.651   4.717 -2.4748  1.3399 -0.0421
17003TIP3    H272425   4.733   1.592   4.702 -1.0666 -1.7682 -1.4954
17004TIP3   OH272426   3.903   2.932   3.271  0.3510 -0.3832  0.6328
17004TIP3    H172427   3.813   2.951   3.295  0.2109  1.6278 -1.2357
17004TIP3    H272428   3.948   2.920   3.354 -1.4595 -0.5225  1.6163
17005TIP3   OH272429   6.288   5.603   5.504  0.8247 -0.0461  0.7586
17005TIP3    H172430   6.349   5.590   5.431  1.5149  1.3148  1.0825
17005TIP3    H272431   6.202   5.585   5.467  1.1368  0.9537 -0.4828
17006TIP3   OH272432   3.011   1.187   5.357  0.6764  0.1057  0.4315
17006TIP3    H172433   3.034   1.116   5.297  1.8663  0.4752  0.4424
17006TIP3    H272434   3.092   1.204   5.406 -0.1374  0.1519  1.7801
17007TIP3   OH272435   4.862   4.033   5.205 -0.0593  0.7553 -0.1331
17007TIP3    H172436   4.842   4.054   5.114 -0.0858 -0.6286 -0.4448
17007TIP3    H272437   4.942   3.981   5.200  0.8531  2.0245  0.7563
17008TIP3   OH272438   1.997   2.370   5.295  0.1351 -0.5628 -0.4759
17008TIP3    H172439   1.980   2.413   5.379  0.4489 -1.0919 -0.1430
17008TIP3    H272440   1.956   2.284   5.304  1.6735 -1.2777 -0.2269
17009TIP3   OH272441   3.873   0.640   5.559 -0.2799  0.1617  0.0872
17009TIP3    H172442   3.935   0.569   5.579 -1.6931 -1.1137  0.0243
17009TIP3    H272443   3.787   0.599   5.567 -1.0847  1.6167 -0.9900
17010TIP3   OH272444   5.994   7.035   4.000  0.0390 -0.7576 -0.0477
17010TIP3    H172445   5.920   7.030   4.062 -0.1481  0.8783 -0.1267
17010TIP3    H272446   6.071   7.017   4.054 -0.0834  1.0546  0.7683
17011TIP3   OH272447   0.178   1.750   3.365 -0.0677 -0.2013  0.1836
17011TIP3    H172448   0.124   1.696   3.422 -1.4412  1.2561  0.2831
17011TIP3    H272449   0.137   1.743   3.279 -0.1692  0.5619  0.1667
17012TIP3   OH272450   2.324   1.908   2.958 -0.1664  0.6908 -0.5936
17012TIP3    H172451   2.355   1.846   3.024  0.4432  2.5777  0.9555
17012TIP3    H272452   2.399   1.919   2.900  0.0756  0.7347 -0.2776
17013TIP3   OH272453   3.735   1.039   6.320  0.5299  0.1706  0.2400
17013TIP3    H172454   3.753   0.954   6.361 -1.0802  0.7053  2.1323
17013TIP3    H272455   3.816   1.061   6.274  1.1875 -2.0930  0.2595
17014TIP3   OH272456   2.894   2.693  15.294  0.3287  0.0382 -0.4378
17014TIP3    H172457   2.964   2.662  15.237 -0.5958 -0.5616 -1.2755
17014TIP3    H272458   2.878   2.783  15.265 -0.6629 -0.5234 -1.6593
17015TIP3   OH272459   1.184   5.469   4.667 -0.5705 -0.1597  0.0991
17015TIP3    H172460   1.278   5.452   4.658 -0.9878 -2.1410 -0.7993
17015TIP3    H272461   1.149   5.390   4.708 -2.1788 -0.3829 -1.6226
17016TIP3   OH272462   3.784   4.222   4.013 -0.7106 -0.2322 -0.5844
17016TIP3    H172463   3.800   4.288   3.945 -0.2854  0.4475  0.1625
17016TIP3    H272464   3.721   4.263   4.072 -0.1342 -0.3327  0.1076
17017TIP3   OH272465   0.420   6.485   5.225  0.4539 -0.0350 -0.0491
17017TIP3    H172466   0.342   6.432   5.212  0.2288  0.6431 -1.7182
17017TIP3    H272467   0.489   6.422   5.247  0.0177 -0.9485 -1.2034
17018TIP3   OH272468   1.653   2.224   6.052  0.1544  0.2437 -0.7365
17018TIP3    H172469   1.623   2.147   6.100 -1.3454 -0.1900 -2.3110
17018TIP3    H272470   1.651   2.295   6.117  0.9583 -0.8938  0.5682
17019TIP3   OH272471   0.171   0.454   5.201 -0.1903 -0.7678  0.0023
17019TIP3    H172472   0.129   0.443   5.115 -0.0177 -0.2376 -0.1477
17019TIP3    H272473   0.218   0.536   5.195  0.1803 -0.9442  0.4649
17020TIP3   OH272474   5.162   2.878   5.167  0.2462 -0.5008  0.0253
17020TIP3    H172475   5.223   2.891   5.239 -1.7487  2.4669  1.2359
17020TIP3    H272476   5.206   2.916   5.091  0.9955 -0.7804  0.3142
17021TIP3   OH272477   2.877   1.604   5.586  0.5249 -0.1165  0.3539
17021TIP3    H172478   2.815   1.672   5.612 -1.0061 -1.4150  0.1483
17021TIP3    H272479   2.905   1.564   5.669 -1.0199 -1.3458  0.3031
17022TIP3   OH272480   5.483   0.624   2.460  0.8855 -0.2665  0.4919
17022TIP3    H172481   5.439   0.620   2.545  1.0636  1.0435  0.6525
17022TIP3    H272482   5.568   0.581   2.476 -0.6780 -3.7905 -0.0982
17023TIP3   OH272483   6.571   2.922   4.072 -0.0599  0.3814 -0.0482
17023TIP3    H172484   6.554   2.827   4.072  0.4612  0.2801 -0.8161
17023TIP3    H272485   6.659   2.930   4.036 -0.4287  1.2085 -0.7830
17024TIP3   OH272486   6.449   5.224   4.745 -0.3609 -0.0928  0.0330
17024TIP3    H172487   6.497   5.307   4.743 -0.3851 -0.0898 -2.2962
17024TIP3    H272488   6.516   5.158   4.727 -0.6515 -0.4048  0.0944
17025TIP3   OH272489   1.890   1.335   5.475 -0.0483 -0.1769  0.2129
17025TIP3    H172490   1.815   1.325   5.417 -0.0799 -1.6496  0.4639
17025TIP3    H272491   1.962   1.293   5.429 -0.3478 -2.4432  1.6947
17026TIP3   OH272492   5.051   2.272   4.133  0.1001  0.7085 -0.7538
17026TIP3    H172493   4.990   2.298   4.202  2.8573 -1.1474  2.5457
17026TIP3    H272494   5.101   2.351   4.114 -0.0924  1.0147  0.0009
17027TIP3   OH272495   4.833   2.298   5.164  0.0494 -0.0450 -0.3385
17027TIP3    H172496   4.782   2.219   5.148  1.5200 -1.4576  1.6994
17027TIP3    H272497   4.786   2.344   5.234  0.7758 -0.6235  0.5385
17028TIP3   OH272498   2.491   7.226   5.526  0.9155  0.0321 -0.1939
17028TIP3    H172499   2.581   7.195   5.525  0.7239 -0.5484  0.5186
17028TIP3    H272500   2.454   7.191   5.607 -0.2257 -0.5076 -0.9455
17029TIP3   OH272501   3.402   6.780   3.060  0.7800  0.7980  0.1308
17029TIP3    H172502   3.400   6.687   3.041  0.9739  0.8219 -0.0068
17029TIP3    H272503   3.374   6.787   3.152  0.3156  0.6440 -0.0007
17030TIP3   OH272504   5.547   6.116   4.712 -0.4559  0.6345  0.3176
17030TIP3    H172505   5.456   6.143   4.724 -1.1394 -1.6410  0.5126
17030TIP3    H272506   5.597   6.174   4.770 -1.6628  2.4829 -0.4558
17031TIP3   OH272507   5.532   6.630   5.118  0.4411  0.2305  0.5751
17031TIP3    H172508   5.612   6.642   5.067  0.1943  0.5125  0.2589
17031TIP3    H272509   5.495   6.718   5.125 -0.4353 -0.0708 -0.2291
17032TIP3   OH272510   4.558   3.973  15.443  0.1312  0.1618 -0.7832
17032TIP3    H172511   4.554   3.886  15.482 -1.5401  0.4393 -0.2901
17032TIP3    H272512   4.513   3.964  15.359  0.9934  0.2777 -1.2572
17033TIP3   OH272513   1.927   6.049   1.265 -0.4902 -0.5530  0.0061
17033TIP3    H172514   1.977   6.085   1.192 -0.0895 -1.2184 -0.0555
17033TIP3    H272515   1.879   5.975   1.227  0.8300 -1.8065  0.7056
17034TIP3   OH272516   3.625   3.164   4.072 -0.1249 -0.2485  0.6090
17034TIP3    H172517   3.550   3.176   4.014  0.6100  0.2519 -0.2428
17034TIP3    H272518   3.601   3.088   4.125 -1.5116  0.3041  0.7972
17035TIP3   OH272519   3.932   0.462   4.797 -0.1085 -0.2041  0.3497
17035TIP3    H172520   3.894   0.525   4.858 -2.8258 -0.5413 -0.9588
17035TIP3    H272521   3.951   0.512   4.718 -0.6231 -0.6473 -0.0621
17036TIP3   OH272522   3.105   0.775   5.543  0.3571 -0.5567 -0.3205
17036TIP3    H172523   3.098   0.702   5.605 -2.5537 -0.7581 -0.7932
17036TIP3    H272524   3.022   0.772   5.494  0.8934  2.0602 -1.4588
17037TIP3   OH272525   2.629   6.230   4.064 -0.5899 -0.1514  0.0134
17037TIP3    H172526   2.649   6.140   4.037 -0.3362  0.0303 -0.4068
17037TIP3    H272527   2.534   6.238   4.053 -0.5228 -0.1640 -0.5659
17038TIP3   OH272528   4.648   4.918   4.092  0.2979 -0.1351  0.4898
17038TIP3    H172529   4.608   4.961   4.168  2.1000 -1.4731  2.2379
17038TIP3    H272530   4.646   4.985   4.023  1.0594  2.0292  2.4888
17039TIP3   OH272531   3.387   4.544   2.144 -0.4668 -0.3190  0.0187
17039TIP3    H172532   3.470   4.585   2.121  0.2789 -2.6689 -1.6182
17039TIP3    H272533   3.395   4.453   2.113 -3.1173 -0.9560  1.0462
17040TIP3   OH272534   4.025   3.023   5.880 -0.1959 -0.0089 -0.2876
17040TIP3    H172535   4.059   2.934   5.875 -1.4632 -0.5154 -0.1363
17040TIP3    H272536   3.999   3.032   5.972  1.2085  1.0087  0.0259
17041TIP3   OH272537   0.449   1.862   1.546 -0.6439  0.6232 -0.1022
17041TIP3    H172538   0.535   1.902   1.560 -0.5398  0.5735 -0.5857
17041TIP3    H272539   0.427   1.822   1.630 -1.3758  2.8904  0.8501
17042TIP3   OH272540   7.220   2.440   3.781  0.3688 -0.3158 -0.0704
17042TIP3    H172541   7.128   2.435   3.807 -0.0599 -1.5504 -1.7514
17042TIP3    H272542   7.246   2.530   3.803 -1.1176 -0.0853  0.7992
17043TIP3   OH272543   1.270   7.252   3.222  0.5233 -0.1403  0.3151
17043TIP3    H172544   1.283   7.343   3.250 -0.4456 -0.3208  1.3809
17043TIP3    H272545   1.327   7.201   3.279  1.9041 -0.1201 -1.0153
17044TIP3   OH272546   0.685   6.385   5.963 -0.4085 -0.4506  0.2323
17044TIP3    H172547   0.654   6.472   5.986  0.3461 -0.1191 -0.0178
17044TIP3    H272548   0.743   6.360   6.035  1.2521  0.2267 -0.8474
17045TIP3   OH272549   1.537   1.130   4.476 -0.9543 -0.4926  0.2045
17045TIP3    H172550   1.612   1.089   4.520 -0.7167 -0.5784 -0.2714
17045TIP3    H272551   1.467   1.128   4.541 -0.6281 -0.6768  0.5559
17046TIP3   OH272552   5.886   0.263   5.373  0.0650 -0.1106  0.0399
17046TIP3    H172553   5.955   0.330   5.376  1.0422 -1.0571 -0.8723
17046TIP3    H272554   5.815   0.304   5.324  0.5985  0.3093 -0.3928
17047TIP3   OH272555   1.988   0.483   4.364 -0.0173 -0.1329  0.2014
17047TIP3    H172556   2.044   0.557   4.340  0.5426  0.0109  1.9026
17047TIP3    H272557   1.966   0.498   4.456 -1.1901 -1.2638  0.1210
17048TIP3   OH272558   2.741   1.494   5.030 -0.0738 -0.1777  0.4617
17048TIP3    H172559   2.768   1.585   5.019 -0.8612  0.1186  0.9484
17048TIP3    H272560   2.677   1.496   5.101 -2.5816 -0.6284 -1.7058
17049TIP3   OH272561   3.666   5.786   3.884 -0.6154 -0.1841  0.3246
17049TIP3    H172562   3.592   5.733   3.912  0.2903 -1.3097  0.6136
17049TIP3    H272563   3.647   5.808   3.793 -0.4008 -2.0826 -0.2023
17050TIP3   OH272564   3.781   3.848   2.447 -0.2713 -0.2668  0.2004
17050TIP3    H172565   3.850   3.835   2.512  0.2991  0.0462 -0.3382
17050TIP3    H272566   3.734   3.925   2.478 -1.1929 -1.2255  1.2601
17051TIP3   OH272567   3.184   1.093   2.834  0.2425 -0.0725  0.1369
17051TIP3    H172568   3.226   1.008   2.837  1.5086  0.4966 -0.9004
17051TIP3    H272569   3.249   1.154   2.869 -0.1248  0.6537 -0.4106
17052TIP3   OH272570   0.026   7.139   5.193  0.5781 -0.4064  0.3084
17052TIP3    H172571   0.011   7.058   5.242 -2.3873  1.1147  2.0290
17052TIP3    H272572   0.064   7.199   5.256 -2.0086  1.1513  0.4011
17053TIP3   OH272573   2.915   3.649   3.347 -0.0144  0.5949  0.7002
17053TIP3    H172574   3.008   3.629   3.351 -0.3148 -0.9672  0.2639
17053TIP3    H272575   2.911   3.744   3.341  1.5505  0.6690  0.6160
17054TIP3   OH272576   3.409   0.928   6.014 -0.2267  0.2173 -0.0332
17054TIP3    H172577   3.352   0.860   6.049 -0.0282  0.4241  0.7082
17054TIP3    H272578   3.354   0.978   5.954 -0.3024 -0.7587 -0.7878
17055TIP3   OH272579   2.433   0.066   4.304  0.2013  0.2650  0.6753
17055TIP3    H172580   2.356   0.120   4.288 -0.4436 -0.3585  1.5743
17055TIP3    H272581   2.436   0.005   4.230 -1.1441 -0.7897  1.4501
17056TIP3   OH272582   4.442   0.287   3.450 -0.2055 -0.1692 -0.1656
17056TIP3    H172583   4.537   0.271   3.458 -0.3137  0.1887  2.2495
17056TIP3    H272584   4.434   0.382   3.457 -0.6414 -0.0991 -1.6427
17057TIP3   OH272585   7.076   0.064   5.248 -0.2746 -0.6988 -0.0128
17057TIP3    H172586   6.987   0.076   5.214 -0.2540  0.8996  0.4525
17057TIP3    H272587   7.113  -0.007   5.196 -1.4776 -0.6868 -0.8884
17058TIP3   OH272588   6.566   7.154   4.276 -0.2747 -0.3330  0.5401
17058TIP3    H172589   6.613   7.206   4.211  0.3502 -0.8667  0.5674
17058TIP3    H272590   6.590   7.193   4.360  0.7981 -1.1324  0.6164
17059TIP3   OH272591   4.042   5.772   5.918 -0.5642  0.0913  0.3746
17059TIP3    H172592   4.035   5.834   5.845 -1.7095  0.0417  0.4337
17059TIP3    H272593   4.111   5.809   5.974 -1.5965  1.6008  0.6704
17060TIP3   OH272594   4.421   5.564   1.548 -0.1706 -0.1324  0.1652
17060TIP3    H172595   4.501   5.532   1.591 -0.0442 -0.0609 -0.0156
17060TIP3    H272596   4.350   5.528   1.601 -0.0367 -0.9265 -0.1826
17061TIP3   OH272597   1.950   3.689   5.238  0.1160 -0.5074  0.2630
17061TIP3    H172598   1.865   3.698   5.281 -1.0751  2.2304 -2.4414
17061TIP3    H272599   1.938   3.617   5.176 -0.5570  0.4257 -0.7194
17062TIP3   OH272600   3.267   0.288   3.938  0.0381 -0.0175  0.1407
17062TIP3    H172601   3.274   0.319   4.029  1.0438 -0.3095  0.1696
17062TIP3    H272602   3.308   0.356   3.886  0.6786 -0.4835  0.0355
17063TIP3   OH272603   4.263   3.199   3.043 -0.0031  0.2808 -0.1821
17063TIP3    H172604   4.168   3.208   3.045  0.1592  2.1511  1.1269
17063TIP3    H272605   4.290   3.215   3.134  1.6152  0.7510 -0.7308
17064TIP3   OH272606   5.293   0.480   3.884 -0.7887  0.7121  0.3100
17064TIP3    H172607   5.224   0.505   3.945  0.1009 -1.6100  2.3275
17064TIP3    H272608   5.281   0.386   3.872  0.9797  0.5930 -0.6567
17065TIP3   OH272609   3.711   6.508   5.375 -0.6281 -0.1266 -0.0424
17065TIP3    H172610   3.723   6.497   5.281 -2.2078  0.1393 -0.2840
17065TIP3    H272611   3.739   6.597   5.393 -0.9359  0.0317 -0.3580
17066TIP3   OH272612   4.571   3.985   4.799  0.1044  0.0976  0.3331
17066TIP3    H172613   4.531   3.922   4.859  0.5022  1.1279  1.6840
17066TIP3    H272614   4.555   3.947   4.712 -0.4899 -1.3928  1.0638
17067TIP3   OH272615   5.051   2.662   4.826  0.0902  0.3295 -0.2608
17067TIP3    H172616   4.987   2.636   4.892  0.3067 -0.7189 -0.4639
17067TIP3    H272617   5.107   2.586   4.815 -0.0016  0.4620 -1.7216
17068TIP3   OH272618   7.248   0.246   5.492  0.1273 -0.0659  0.3427
17068TIP3    H172619   7.327   0.300   5.490 -0.8855  1.4121 -0.4079
17068TIP3    H272620   7.177   0.305   5.465 -0.6294 -2.4470 -3.1076
17069TIP3   OH272621   5.364   4.481   5.698  0.7093  0.6896  0.2081
17069TIP3    H172622   5.281   4.528   5.698  1.6040  2.3617  2.5219
17069TIP3    H272623   5.385   4.470   5.605 -2.6961 -0.9525 -0.4547
17070TIP3   OH272624   4.516   1.672   3.201  0.2628 -0.3585  0.5725
17070TIP3    H172625   4.540   1.586   3.166  0.7325 -0.3822  0.9456
17070TIP3    H272626   4.422   1.679   3.184  0.1745 -1.0415  0.7454
17071TIP3   OH272627   4.755   2.649   2.568 -0.3372  0.0118 -0.2564
17071TIP3    H172628   4.680   2.592   2.548  0.8962 -1.6655 -0.2404
17071TIP3    H272629   4.811   2.640   2.491  0.0100  0.9764 -0.1096
17072TIP3   OH272630   6.008   1.746   4.759  0.2356 -0.1442 -0.0617
17072TIP3    H172631   5.914   1.753   4.746  0.4357 -1.1435 -2.3004
17072TIP3    H272632   6.023   1.653   4.775  0.6811  0.2354  1.8101
17073TIP3   OH272633   4.288   3.580   3.421  0.5146 -0.1357 -0.0683
17073TIP3    H172634   4.368   3.633   3.414 -0.4271  1.0999 -2.0784
17073TIP3    H272635   4.267   3.580   3.514  1.2442  1.9715  0.1232
17074TIP3   OH272636   5.591   0.508   5.555  0.4030 -0.2235  0.1325
17074TIP3    H172637   5.516   0.462   5.516  1.2979 -1.9789  0.4475
17074TIP3    H272638   5.566   0.521   5.646 -0.1488  0.5926 -0.1216
17075TIP3   OH272639   2.811   1.774   4.928  0.4100  0.3467 -0.0416
17075TIP3    H172640   2.905   1.757   4.933  0.4517  0.3454 -0.7637
17075TIP3    H272641   2.790   1.765   4.835 -0.9782 -3.2579  0.5446
17076TIP3   OH272642   4.920   2.510   2.387  0.1872  0.5676  0.0689
17076TIP3    H172643   4.989   2.478   2.329  0.3997  0.0905  0.5791
17076TIP3    H272644   4.843   2.519   2.331  0.5531  0.6945 -0.4102
17077TIP3   OH272645   6.782   0.465   4.653  0.5945 -0.4631  0.3189
17077TIP3    H172646   6.840   0.536   4.680  2.6759 -2.9073  2.4666
17077TIP3    H272647   6.695   0.493   4.683  1.2368  1.5960  0.3017
17078TIP3   OH272648   1.528   5.607   1.847 -0.1345 -0.2372  0.0497
17078TIP3    H172649   1.456   5.657   1.886  1.0922  1.4412  0.2043
17078TIP3    H272650   1.484   5.538   1.798 -1.9134  1.3621 -0.7068
17079TIP3   OH272651   1.256   0.491   5.751 -0.2699  0.3442  0.7753
17079TIP3    H172652   1.254   0.584   5.777 -0.9441 -0.0991  2.3877
17079TIP3    H272653   1.165   0.463   5.754  0.0123 -0.5581  1.0009
17080TIP3   OH272654   6.199   2.621   2.476  0.5335 -0.7554  0.1206
17080TIP3    H172655   6.174   2.712   2.461  0.9994 -0.7230 -0.4809
17080TIP3    H272656   6.269   2.626   2.542 -0.1354 -0.7547  0.8400
17081TIP3   OH272657   5.437   0.128   5.619 -0.7155 -0.1535  0.1255
17081TIP3    H172658   5.517   0.174   5.593 -1.9922  2.5008  0.8223
17081TIP3    H272659   5.464   0.077   5.696  0.0361  1.6935  1.1199
17082TIP3   OH272660   7.086   1.576   3.641  0.1094  0.1170 -0.0197
17082TIP3    H172661   7.006   1.604   3.684  0.2209  0.7774 -0.2450
17082TIP3    H272662   7.114   1.499   3.691  0.0132  0.6339  0.8369
17083TIP3   OH272663   5.764   0.693   5.665 -0.1375  0.5021  0.0665
17083TIP3    H172664   5.779   0.645   5.746  0.9045 -1.1103 -1.0448
17083TIP3    H272665   5.700   0.639   5.617  1.3155 -0.0003 -1.3435
17084TIP3   OH272666   5.719   6.661   5.462  0.0342 -0.4828  0.0186
17084TIP3    H172667   5.676   6.667   5.547  0.2271 -1.5533  0.1937
17084TIP3    H272668   5.660   6.607   5.409 -0.8258  1.4064 -0.9993
17085TIP3   OH272669   2.444   6.924   3.595  0.1211  0.1216  0.6981
17085TIP3    H172670   2.439   6.842   3.547 -1.9739  1.4870 -1.5173
17085TIP3    H272671   2.355   6.940   3.626  0.7204  1.0402  1.9974
17086TIP3   OH272672   5.713   6.593   3.846  0.1352 -0.0069 -0.0436
17086TIP3    H172673   5.796   6.610   3.890 -0.7784  2.5503  0.7947
17086TIP3    H272674   5.736   6.536   3.773  2.3039 -0.9877  1.3404
17087TIP3   OH272675   4.121   1.027   5.167 -0.3879 -0.0579 -0.2728
17087TIP3    H172676   4.189   1.093   5.178  0.6679 -1.0248 -0.8350
17087TIP3    H272677   4.070   1.057   5.092  1.0036 -0.6192 -1.4724
17088TIP3   OH272678   5.134   0.421   2.552 -0.1841 -0.4273 -0.4281
17088TIP3    H172679   5.151   0.457   2.639  0.8404  0.2132 -0.8894
17088TIP3    H272680   5.069   0.353   2.567 -1.3635  0.8820  0.6184
17089TIP3   OH272681   6.328   7.175   5.363  0.1131  0.9679 -0.2976
17089TIP3    H172682   6.256   7.111   5.360 -0.4024  1.6122 -2.6222
17089TIP3    H272683   6.405   7.124   5.338  0.0469  0.8203 -0.2062
17090TIP3   OH272684   4.659   2.540   5.635  0.6077  0.5955 -0.2771
17090TIP3    H172685   4.579   2.487   5.631  0.3837  0.8813  0.4323
17090TIP3    H272686   4.628   2.631   5.640  0.9877  0.7865 -1.2454
17091TIP3   OH272687   4.504   6.602   5.388 -0.0114  0.2160  0.1517
17091TIP3    H172688   4.506   6.618   5.293 -2.6031  1.9551  0.3338
17091TIP3    H272689   4.518   6.688   5.427  1.1133 -0.5031  1.3755
17092TIP3   OH272690   1.729   7.165   4.937 -0.2167 -0.2413  0.6727
17092TIP3    H172691   1.790   7.238   4.949  0.3420 -0.4826 -0.6596
17092TIP3    H272692   1.753   7.127   4.852 -1.0213 -1.4801  0.9855
17093TIP3   OH272693   5.438   6.260   3.548 -0.3944 -0.2187  0.1403
17093TIP3    H172694   5.391   6.343   3.547 -1.1015 -0.6185  0.1617
17093TIP3    H272695   5.450   6.238   3.456 -0.3039 -0.1464  0.1349
17094TIP3   OH272696   6.056   3.080   4.859 -0.0091  0.2727 -0.3606
17094TIP3    H172697   6.013   3.115   4.781 -0.7976  0.4431  0.1533
17094TIP3    H272698   6.051   3.151   4.923  1.5080  0.4969 -0.4651
17095TIP3   OH272699   4.980   1.597   5.140 -0.1231  0.9334 -0.0223
17095TIP3    H172700   5.027   1.642   5.070  2.6373  1.2412  1.9739
17095TIP3    H272701   4.928   1.665   5.182 -1.3953  0.8434 -1.3765
17096TIP3   OH272702   1.669   2.795   5.998 -0.1957 -0.6133  0.1061
17096TIP3    H172703   1.763   2.802   5.979  0.4158 -3.5239  1.6650
17096TIP3    H272704   1.665   2.757   6.086 -2.8475 -0.6393  0.0260
17097TIP3   OH272705   0.021   1.779   5.331  0.2854 -0.0801 -1.0110
17097TIP3    H172706  -0.032   1.727   5.392 -0.2931  0.6538 -0.8849
17097TIP3    H272707  -0.040   1.805   5.262 -0.1968  3.0566  0.5196
17098TIP3   OH272708   6.410   1.673   5.312 -0.0776 -0.2927  0.2801
17098TIP3    H172709   6.494   1.665   5.356 -1.0722  0.6312  2.4527
17098TIP3    H272710   6.372   1.753   5.348 -2.8775 -1.9377  1.1039
17099TIP3   OH272711   3.335   5.235   5.210 -0.1426 -1.1366  0.1230
17099TIP3    H172712   3.300   5.302   5.152  1.6879 -0.9257 -0.7528
17099TIP3    H272713   3.265   5.221   5.274 -1.3619  0.1090 -0.8917
17100TIP3   OH272714   0.877   0.808   4.290 -1.3787  0.2801  0.4665
17100TIP3    H172715   0.800   0.762   4.324 -1.4535 -0.6665 -0.9730
17100TIP3    H272716   0.862   0.814   4.196  0.8003 -0.8082  0.0303
17101TIP3   OH272717   5.655   6.028   4.342  0.1726 -0.3002  0.4547
17101TIP3    H172718   5.731   6.085   4.352  0.8110 -1.1799  0.7248
17101TIP3    H272719   5.665   5.988   4.256  0.7220 -1.4147  1.0225
17102TIP3   OH272720   3.377   2.141   4.547  0.0036  0.0379 -0.3738
17102TIP3    H172721   3.441   2.078   4.516  0.5546  0.6939 -0.5872
17102TIP3    H272722   3.356   2.113   4.636  0.7548 -0.0438 -0.2262
17103TIP3   OH272723   6.331   7.172   2.050 -0.5032  0.1513  0.4852
17103TIP3    H172724   6.291   7.131   2.127 -2.8864  0.9917 -0.2528
17103TIP3    H272725   6.413   7.125   2.038 -0.8358 -1.0551  2.5995
17104TIP3   OH272726   3.158   0.562   4.576  0.3977 -0.1054 -0.1479
17104TIP3    H172727   3.195   0.642   4.612  0.4433 -0.8503  1.5062
17104TIP3    H272728   3.228   0.497   4.584 -0.5454 -0.9851  1.0413
17105TIP3   OH272729   2.592   4.469   5.245 -0.5238 -0.6240  0.0035
17105TIP3    H172730   2.578   4.516   5.163  1.6228 -0.4915 -0.3195
17105TIP3    H272731   2.589   4.536   5.313  1.1805 -0.1899 -0.3262
17106TIP3   OH272732   3.756   0.580   3.806 -0.3921 -0.0129 -0.4187
17106TIP3    H172733   3.712   0.660   3.833 -1.5376 -0.6138 -0.4951
17106TIP3    H272734   3.776   0.535   3.888 -0.6820 -0.1447 -0.4201
17107TIP3   OH272735   3.693   0.539   1.513  0.0397  0.3215  0.6714
17107TIP3    H172736   3.702   0.634   1.514 -0.2809  0.3512  2.4093
17107TIP3    H272737   3.607   0.523   1.474  0.6285  0.6807 -0.7926
17108TIP3   OH272738   3.343   2.100   4.104  0.5226  0.2424  0.3426
17108TIP3    H172739   3.391   2.067   4.028  2.9163  3.2738  0.4425
17108TIP3    H272740   3.291   2.173   4.071  1.4589  1.4831  1.5264
17109TIP3   OH272741   3.302   1.166   5.364  0.3379 -0.8257  0.7811
17109TIP3    H172742   3.291   1.250   5.408 -2.2183  0.1545 -1.5732
17109TIP3    H272743   3.287   1.185   5.271 -0.2470 -3.8610  0.1774
17110TIP3   OH272744   4.587   4.740   5.359  0.2325  0.0946  0.3542
17110TIP3    H172745   4.570   4.811   5.422 -0.6459 -0.8154  1.1559
17110TIP3    H272746   4.682   4.735   5.354  0.3093  0.3346  1.4266
17111TIP3   OH272747   4.459   1.035   4.691 -0.2884 -0.5911 -0.1806
17111TIP3    H172748   4.496   0.955   4.654  2.0683 -0.7295  2.3346
17111TIP3    H272749   4.419   1.007   4.773 -1.1265  0.5254 -0.1922
17112TIP3   OH272750   4.428   7.017   5.544 -0.4258 -0.1360 -0.0528
17112TIP3    H172751   4.393   6.958   5.611  2.8509 -0.4617  1.4300
17112TIP3    H272752   4.385   7.100   5.561  0.7677 -0.0656  2.8757
17113TIP3   OH272753   5.503   6.746   4.275  0.0945 -0.1093  0.4301
17113TIP3    H172754   5.546   6.686   4.215 -0.1573 -0.7858  0.9188
17113TIP3    H272755   5.412   6.750   4.245  0.3338  0.7967 -0.1949
17114TIP3   OH272756   1.690   2.856   1.547 -0.5516 -0.2667  0.7182
17114TIP3    H172757   1.685   2.952   1.540 -0.5929 -0.2942  0.3220
17114TIP3    H272758   1.726   2.840   1.634 -2.4262  0.0672  1.5826
17115TIP3   OH272759   4.874   2.430   4.604  0.0555 -0.1016  0.6419
17115TIP3    H172760   4.810   2.416   4.673 -0.1621 -1.6193  0.1529
17115TIP3    H272761   4.958   2.408   4.644  0.2094  1.3603  1.1246
17116TIP3   OH272762   1.461   6.536   5.260 -0.4129 -0.4913  0.6297
17116TIP3    H172763   1.400   6.550   5.333 -0.9534  0.9286 -0.0685
17116TIP3    H272764   1.405   6.508   5.187  0.0419 -1.2750  0.5774
17117TIP3   OH272765   5.070   0.414   0.445 -0.1732 -0.6344 -0.4363
17117TIP3    H172766   5.137   0.354   0.411  0.3292 -0.9354  1.0410
17117TIP3    H272767   5.105   0.501   0.425  0.6734 -0.7896  0.2949
17118TIP3   OH272768   0.661   4.864   3.919  0.1897 -0.2802 -0.1115
17118TIP3    H172769   0.610   4.921   3.976 -0.3298 -0.5304 -0.3207
17118TIP3    H272770   0.618   4.872   3.833  2.0308  1.4815 -0.8981
17119TIP3   OH272771   4.276   0.926   6.020  0.3757 -0.0325  0.4428
17119TIP3    H172772   4.208   0.863   5.998  2.4269 -1.9507 -0.6441
17119TIP3    H272773   4.266   0.997   5.957 -0.0915 -0.7078 -0.2367
17120TIP3   OH272774   5.853   4.882   4.296  0.3095 -0.4685 -0.4612
17120TIP3    H172775   5.780   4.825   4.320 -1.0120  0.9564 -1.0075
17120TIP3    H272776   5.846   4.956   4.356  0.8624  0.0415 -1.0182
17121TIP3   OH272777   7.029   1.268   3.322  0.5122 -0.1824 -0.0252
17121TIP3    H172778   6.935   1.248   3.316  0.3719  0.3435  0.3621
17121TIP3    H272779   7.032   1.353   3.366  1.1280  0.2910 -0.9730
17122TIP3   OH272780   5.965   2.451   4.977 -0.3041 -0.3034 -0.3863
17122TIP3    H172781   5.981   2.486   4.889  1.6953  1.3839  0.6209
17122TIP3    H272782   6.022   2.502   5.034 -2.4021 -0.6149  2.0702
17123TIP3   OH272783   5.069   6.731   3.750  0.4385  0.3483 -0.3555
17123TIP3    H172784   5.008   6.707   3.820  0.3466  0.6901 -0.3199
17123TIP3    H272785   5.015   6.778   3.686  0.3173 -0.8031 -1.1180
17124TIP3   OH272786   7.078   6.574   3.881  0.0578  0.9981  0.0232
17124TIP3    H172787   7.049   6.504   3.940  1.1035 -1.0486 -1.7828
17124TIP3    H272788   7.154   6.537   3.836  0.8412  3.4557 -0.7556
17125TIP3   OH272789   4.718   1.556   5.451  0.4882 -0.0802  0.0471
17125TIP3    H172790   4.697   1.609   5.527  1.7987  1.8388 -0.8922
17125TIP3    H272791   4.633   1.523   5.421 -0.2310  0.6023  1.2924
17126TIP3   OH272792   4.891   7.076   0.587  0.2376  0.0292 -0.8519
17126TIP3    H172793   4.888   7.153   0.530  1.7804 -0.5486 -1.7481
17126TIP3    H272794   4.976   7.084   0.632  0.8251 -1.6107 -1.6431
17127TIP3   OH272795   6.430   0.906   5.000  0.6034  0.5038  0.1934
17127TIP3    H172796   6.337   0.889   5.017  0.2750  2.4065  0.4910
17127TIP3    H272797   6.470   0.910   5.087  1.2540 -1.7661  0.0092
17128TIP3   OH272798   4.121   2.350   4.141  0.0552 -0.4721  0.5944
17128TIP3    H172799   4.067   2.310   4.209  0.0750 -1.6271 -0.0532
17128TIP3    H272800   4.178   2.279   4.112  1.5600  0.5855  0.8980
17129TIP3   OH272801   7.099   2.417   4.421  0.1122  0.5069  0.4034
17129TIP3    H172802   7.024   2.429   4.480 -0.8994  0.8446 -0.9293
17129TIP3    H272803   7.113   2.503   4.381  1.0732  0.3897  0.4765
17130TIP3   OH272804   3.753   1.821   2.577  0.3296 -0.3748 -0.6769
17130TIP3    H172805   3.751   1.881   2.502 -0.3245 -0.2704 -0.5784
17130TIP3    H272806   3.813   1.751   2.551  1.6404  0.6651 -0.5373
17131TIP3   OH272807   5.643   0.908   4.456  0.7281  0.2589  0.4248
17131TIP3    H172808   5.616   0.987   4.409 -2.5402 -0.5492  0.8646
17131TIP3    H272809   5.669   0.847   4.388  0.0974  0.5759 -0.1037
17132TIP3   OH272810   4.571   0.586   4.816 -0.0110 -0.2380 -0.0334
17132TIP3    H172811   4.655   0.604   4.774 -1.2386  0.5186 -2.2820
17132TIP3    H272812   4.532   0.516   4.763 -0.9137 -0.3915  0.8162
17133TIP3   OH272813   4.410   2.882   5.888 -0.1052 -0.3211  0.3449
17133TIP3    H172814   4.423   2.837   5.972 -3.4028 -0.6262  0.7588
17133TIP3    H272815   4.318   2.866   5.866 -0.4479  3.3386 -1.2192
17134TIP3   OH272816   6.008   4.051   5.604  0.4149 -0.0950 -0.2222
17134TIP3    H172817   6.005   4.133   5.653  1.3773  0.4539 -1.0675
17134TIP3    H272818   5.983   3.984   5.668  0.2430  0.7800  0.6316
17135TIP3   OH272819   0.482   6.753   3.511 -0.0503  0.0909 -0.6224
17135TIP3    H172820   0.425   6.817   3.468 -0.1219 -0.1029 -0.8204
17135TIP3    H272821   0.570   6.778   3.485 -0.0521  0.3275 -0.4014
17136TIP3   OH272822   4.132   0.143   5.422  0.3231 -0.1476 -0.3627
17136TIP3    H172823   4.104   0.151   5.330 -1.3703 -1.0479  0.0526
17136TIP3    H272824   4.053   0.116   5.468  0.8152  1.7433  1.6190
17137TIP3   OH272825   4.801   1.516   3.390  0.4504 -0.0715  0.0480
17137TIP3    H172826   4.832   1.480   3.474  0.2814 -0.7116 -0.1593
17137TIP3    H272827   4.812   1.610   3.399 -0.4400 -0.0652  1.1537
17138TIP3   OH272828   4.924   2.575   1.369 -0.5204 -0.7771  0.0417
17138TIP3    H172829   4.896   2.628   1.443 -0.3265  0.3576 -0.6777
17138TIP3    H272830   5.020   2.583   1.369 -0.5304 -0.6279 -0.4254
17139TIP3   OH272831   0.211   5.939   4.740 -0.4717 -0.0469  0.2940
17139TIP3    H172832   0.288   5.925   4.795  0.1685  2.4851  0.1206
17139TIP3    H272833   0.247   5.961   4.654 -1.2807  4.0855  0.9341
17140TIP3   OH272834   1.353   4.015   3.326 -0.3967  0.4276  0.9497
17140TIP3    H172835   1.308   3.972   3.399  0.7062  0.8944  1.9285
17140TIP3    H272836   1.360   3.948   3.259 -0.6528 -0.2737  1.6136
17141TIP3   OH272837   5.523   3.362   2.054  0.1264  0.4076  0.5903
17141TIP3    H172838   5.510   3.365   1.959 -1.2345  0.8227  0.7826
17141TIP3    H272839   5.497   3.274   2.079  1.7343 -0.1378  0.4168
17142TIP3   OH272840   2.622   5.771   4.853  0.0385 -0.0521 -0.3127
17142TIP3    H172841   2.598   5.830   4.925 -0.5158 -0.4633 -0.1610
17142TIP3    H272842   2.692   5.818   4.807  0.5225  0.1363  0.5950
17143TIP3   OH272843   2.272   1.284   5.774  0.3197  0.2267 -0.3064
17143TIP3    H172844   2.217   1.300   5.851 -1.3033  0.2681 -1.4573
17143TIP3    H272845   2.223   1.221   5.722  1.0876  0.7198 -1.6401
17144TIP3   OH272846   4.887   1.801   4.246  0.3807  0.1103  0.0712
17144TIP3    H172847   4.845   1.747   4.179 -0.5656 -1.0076  1.5235
17144TIP3    H272848   4.980   1.798   4.225 -0.0184  0.7508 -1.8758
17145TIP3   OH272849   3.917   1.895   3.807 -0.1430  0.3515  0.0137
17145TIP3    H172850   3.972   1.820   3.785  0.2671  1.1877 -1.9175
17145TIP3    H272851   3.833   1.875   3.766 -1.0694 -0.5649  2.3063
17146TIP3   OH272852   3.392   1.645   2.485 -0.0964  0.1180 -0.1924
17146TIP3    H172853   3.401   1.679   2.396  0.0415 -0.4314 -0.3943
17146TIP3    H272854   3.440   1.707   2.540  0.1038  0.2786 -0.5448
17147TIP3   OH272855   2.724   0.403   4.302 -0.9349 -0.1637  0.0877
17147TIP3    H172856   2.788   0.465   4.269  1.0963 -2.5553 -0.6104
17147TIP3    H272857   2.699   0.437   4.388  0.8428  1.0818  0.1234
17148TIP3   OH272858   5.799   3.215   1.023  0.1419  0.7046 -0.5360
17148TIP3    H172859   5.727   3.193   0.964 -2.3842  0.4963  2.5644
17148TIP3    H272860   5.845   3.132   1.036 -1.0439  0.1430  0.1109
17149TIP3   OH272861   5.615   4.237   5.516 -0.5138  0.5360 -1.0629
17149TIP3    H172862   5.701   4.258   5.481  0.0585 -0.3460 -0.2416
17149TIP3    H272863   5.627   4.239   5.611 -1.0081 -1.0591 -0.9466
17150TIP3   OH272864   5.512   1.572   2.960  0.2154  0.2965 -0.1373
17150TIP3    H172865   5.488   1.484   2.932  0.3633  0.4022 -0.6116
17150TIP3    H272866   5.606   1.579   2.942  0.8162 -0.4152  2.5214
17151TIP3   OH272867   0.970   7.171   3.351 -0.3913 -0.3685  0.0823
17151TIP3    H172868   1.031   7.176   3.278  0.3103 -2.7861  0.4597
17151TIP3    H272869   0.886   7.197   3.314  0.6237  1.9724 -0.6788
17152TIP3   OH272870   4.042   2.147   2.921  0.3687 -0.7967  0.0799
17152TIP3    H172871   4.117   2.173   2.974  0.5517 -1.3653  0.1041
17152TIP3    H272872   4.005   2.073   2.968  0.9261 -1.7271 -0.9325
17153TIP3   OH272873   4.534   0.684   6.191  0.0083  0.8299 -0.0916
17153TIP3    H172874   4.564   0.667   6.102  3.5665  0.1338  1.1770
17153TIP3    H272875   4.498   0.601   6.221  2.2845 -0.0318  0.3767
17154TIP3   OH272876   5.953   6.652   3.964  0.1600  0.1208 -0.2682
17154TIP3    H172877   6.022   6.713   3.938 -0.3562  0.6389 -0.4630
17154TIP3    H272878   5.925   6.685   4.050  1.9591 -1.6693  1.0414
17155TIP3   OH272879   1.889   1.120   1.511 -0.7679  0.0456  0.3545
17155TIP3    H172880   1.890   1.157   1.599  0.2093  0.0963  0.3311
17155TIP3    H272881   1.901   1.026   1.525  0.4996  0.1707  0.2398
17156TIP3   OH272882   4.267   0.299   2.879  0.5030  0.2734 -0.1765
17156TIP3    H172883   4.234   0.334   2.962 -0.7515 -0.4909 -0.3307
17156TIP3    H272884   4.251   0.368   2.815  3.0881  1.5779  0.5054
17157TIP3   OH272885   5.654   4.570   4.239  0.3580 -0.2880  0.1924
17157TIP3    H172886   5.718   4.577   4.309 -0.2199 -0.4749  0.7397
17157TIP3    H272887   5.659   4.654   4.194  3.1229 -1.3436 -1.6303
17158TIP3   OH272888   7.047   7.051   5.054 -0.5326  1.0085  0.1467
17158TIP3    H172889   7.032   7.110   5.128  0.0791  1.9891 -0.4907
17158TIP3    H272890   7.142   7.045   5.048 -0.5052  2.7407 -1.9339
17159TIP3   OH272891   5.683   2.638   2.854 -0.1456 -0.1974 -0.3762
17159TIP3    H172892   5.589   2.646   2.838 -0.3147 -0.6341  0.3713
17159TIP3    H272893   5.719   2.722   2.825 -1.2012  1.3296  2.5551
17160TIP3   OH272894   5.721   7.265   3.208 -0.1142 -0.2816 -0.5278
17160TIP3    H172895   5.649   7.285   3.269  0.8870 -0.6246  0.7974
17160TIP3    H272896   5.717   7.170   3.197 -0.5265 -0.1765 -1.3052
17161TIP3   OH272897   4.053   2.107   4.735  0.0393 -0.2933  0.6948
17161TIP3    H172898   4.034   2.197   4.709 -0.3061 -0.2968  0.9297
17161TIP3    H272899   4.008   2.096   4.819 -1.2103 -1.1651 -0.0694
17162TIP3   OH272900   4.679   7.013   5.177 -0.0336  0.0588  0.2846
17162TIP3    H172901   4.669   7.067   5.256 -0.3206 -2.4032  1.9713
17162TIP3    H272902   4.590   7.006   5.141 -0.4255 -1.2997  1.4584
17163TIP3   OH272903   4.734   3.648   5.510  0.2407  0.1040 -0.0982
17163TIP3    H172904   4.740   3.704   5.432 -1.4290  1.1013  0.4769
17163TIP3    H272905   4.746   3.708   5.584  0.5265 -0.6344  0.4642
17164TIP3   OH272906   3.721   1.296   5.987  0.1525 -0.4843 -0.5857
17164TIP3    H172907   3.774   1.286   6.066  0.0324  0.8639 -0.3293
17164TIP3    H272908   3.639   1.252   6.008 -0.2535  0.7473  0.4012
17165TIP3   OH272909   6.048   7.279   4.640 -0.1653  0.2850 -0.0550
17165TIP3    H172910   6.141   7.281   4.619 -0.1793 -0.0989 -0.1509
17165TIP3    H272911   6.045   7.285   4.736  0.0137 -1.1821  0.0530
17166TIP3   OH272912   6.671   5.711   5.657  0.6262 -0.3329 -0.0321
17166TIP3    H172913   6.698   5.651   5.587 -1.3203 -0.1319 -1.0052
17166TIP3    H272914   6.719   5.682   5.734  3.1653 -0.2858 -1.5513
17167TIP3   OH272915   4.647   3.694   1.948 -0.0057  0.2526 -0.1974
17167TIP3    H172916   4.597   3.757   1.898  0.7309  2.8187  2.1760
17167TIP3    H272917   4.736   3.700   1.913  0.1156  0.7127  0.1877
17168TIP3   OH272918   6.471   4.559   3.810 -0.1940 -0.1763 -0.5412
17168TIP3    H172919   6.560   4.590   3.794  0.5600 -1.2685  1.3060
17168TIP3    H272920   6.425   4.634   3.847 -0.0870  0.4352 -1.6482
17169TIP3   OH272921   3.801   0.048   4.735  0.3175  0.0570 -0.8580
17169TIP3    H172922   3.819   0.025   4.644  4.0559 -1.2946  0.1168
17169TIP3    H272923   3.740  -0.018   4.766 -3.2947  2.1900 -3.0967
17170TIP3   OH272924   6.364   0.213   5.859  0.0780  0.3541  0.0493
17170TIP3    H172925   6.448   0.167   5.849  0.4054  0.8761  0.3249
17170TIP3    H272926   6.361   0.237   5.952 -0.8618 -0.5668  0.2628
17171TIP3   OH272927   5.013   4.460   4.674  0.2838 -0.0449  0.0154
17171TIP3    H172928   4.974   4.440   4.589 -0.9823 -0.6265  0.7115
17171TIP3    H272929   5.006   4.378   4.723 -0.8214  0.8229  1.3597
17172TIP3   OH272930   4.353   2.527   5.618 -0.3340  0.0720 -0.5916
17172TIP3    H172931   4.390   2.614   5.631  0.4919 -0.4558  0.6896
17172TIP3    H272932   4.285   2.520   5.686 -0.8297 -0.0523 -1.0943
17173TIP3   OH272933   5.600   4.261   4.198 -0.5146  0.1686  0.1773
17173TIP3    H172934   5.628   4.351   4.182  0.9525 -0.2363  0.3886
17173TIP3    H272935   5.680   4.214   4.221 -1.3631 -1.0412  0.7706
17174TIP3   OH272936   5.305   1.756   6.258 -0.1497 -0.5183 -0.2303
17174TIP3    H172937   5.346   1.737   6.174  0.6133 -2.9741  0.6505
17174TIP3    H272938   5.231   1.696   6.263  0.4472 -1.1702  1.2891
17175TIP3   OH272939   4.683   0.031   4.547  0.1523  0.5346 -0.4120
17175TIP3    H172940   4.762   0.040   4.494 -0.8455  0.3767 -1.9374
17175TIP3    H272941   4.712  -0.017   4.625  1.8050  1.5402 -0.3834
17176TIP3   OH272942   2.583   1.903   5.010 -0.4346  0.1182  0.1670
17176TIP3    H172943   2.620   1.935   5.092  0.1438 -0.0362 -0.0331
17176TIP3    H272944   2.655   1.857   4.967 -0.8818 -0.2696 -0.1792
17177TIP3   OH272945   3.888   4.277   6.083 -0.0904 -0.4139 -0.5617
17177TIP3    H172946   3.860   4.186   6.092 -1.0759 -0.0316  0.2940
17177TIP3    H272947   3.980   4.276   6.109  0.0327 -1.2328 -0.9797
17178TIP3   OH272948   2.357   2.183   4.526  0.2020 -0.0243 -0.3345
17178TIP3    H172949   2.441   2.180   4.480  0.2170  2.3969 -0.5156
17178TIP3    H272950   2.368   2.251   4.592 -1.7133  0.5280 -0.5583
17179TIP3   OH272951   5.170   3.277   5.729 -0.4447 -0.4483  0.2467
17179TIP3    H172952   5.120   3.313   5.655 -1.3682 -1.3590  0.4236
17179TIP3    H272953   5.131   3.191   5.744  1.0049 -1.0566  0.5631
17180TIP3   OH272954   2.253   0.460   6.013 -0.1815 -0.1322 -0.0538
17180TIP3    H172955   2.254   0.469   6.109 -2.1465 -3.0973  0.3129
17180TIP3    H272956   2.345   0.467   5.988  0.2625  1.6684  1.9398
17181TIP3   OH272957   2.941   2.451   4.439  0.1631  0.0905 -0.3912
17181TIP3    H172958   2.877   2.421   4.505 -0.2784  1.0091 -0.3973
17181TIP3    H272959   3.019   2.399   4.457 -1.5646 -3.4135 -2.4465
17182TIP3   OH272960   3.099   5.158   4.898 -0.7112 -0.0386 -0.3015
17182TIP3    H172961   3.118   5.174   4.805 -0.0922  1.0495  0.0087
17182TIP3    H272962   3.163   5.093   4.925 -0.2637  0.3537 -0.3995
17183TIP3   OH272963   3.254   1.068   4.775  0.3991  0.6585  0.6314
17183TIP3    H172964   3.339   1.060   4.818  0.5270 -1.0489  0.1156
17183TIP3    H272965   3.235   1.161   4.776  2.3308  1.0709  0.6705
17184TIP3   OH272966   0.572   5.980   3.735 -0.0503 -0.4615  0.2634
17184TIP3    H172967   0.624   6.046   3.780  0.0758  0.0122 -0.5578
17184TIP3    H272968   0.582   6.001   3.642  1.5921 -2.7957 -0.1522
17185TIP3   OH272969   4.167   1.992   2.596 -0.1226  0.1480  0.8261
17185TIP3    H172970   4.228   2.064   2.610 -1.2815  1.1485  0.8898
17185TIP3    H272971   4.130   1.975   2.682 -2.1052  1.5791  0.3032
17186TIP3   OH272972   6.609   0.281   5.567 -0.2154  0.3847 -0.5085
17186TIP3    H172973   6.660   0.200   5.575  0.0806  0.4560 -1.5276
17186TIP3    H272974   6.633   0.315   5.480 -0.9011  1.1753 -0.3891
17187TIP3   OH272975   4.420   7.290   5.624  0.6227  0.0531 -0.9678
17187TIP3    H172976   4.373   7.373   5.615  0.8731  0.3942  0.5864
17187TIP3    H272977   4.508   7.316   5.652 -0.4622 -0.8445  3.7587
17188TIP3   OH272978   4.463   1.565   5.782  0.0744  0.3872  0.6851
17188TIP3    H172979   4.519   1.506   5.832 -1.7082 -0.4841  1.7160
17188TIP3    H272980   4.378   1.519   5.777 -0.2346  1.1249 -1.8426
17189TIP3   OH272981   6.253   1.305   4.809  0.9354 -0.2649 -0.0790
17189TIP3    H172982   6.213   1.227   4.847  1.0769  0.2257  1.1013
17189TIP3    H272983   6.183   1.344   4.756  0.6144 -0.7524 -0.0166
17190TIP3   OH272984   2.329   0.337   3.423  0.1650  0.5045  0.2563
17190TIP3    H172985   2.261   0.392   3.462 -0.9006 -0.4257 -0.2666
17190TIP3    H272986   2.401   0.398   3.403 -0.1210  1.3370  1.6920
17191TIP3   OH272987   1.286   1.971   2.903 -0.0315  0.0788 -0.1612
17191TIP3    H172988   1.322   1.934   2.983  0.9856  0.6908 -0.3183
17191TIP3    H272989   1.195   1.990   2.923  0.0983 -0.2123  0.6981
17192TIP3   OH272990   5.006   0.155   5.103 -0.3842 -0.9400 -0.7982
17192TIP3    H172991   4.991   0.099   5.179  1.3581 -0.4757 -0.0744
17192TIP3    H272992   5.101   0.153   5.091 -0.1258  2.9690  0.1042
17193TIP3   OH272993   5.225   1.097   4.928 -0.2305  0.1729  0.2191
17193TIP3    H172994   5.147   1.148   4.905  0.2836  0.5152 -0.8201
17193TIP3    H272995   5.273   1.155   4.987  0.0280  0.6375 -0.4347
17194TIP3   OH272996   4.510   1.573   4.601 -0.1983 -0.1170 -0.4440
17194TIP3    H172997   4.438   1.634   4.584  0.4419  0.6646 -0.3701
17194TIP3    H272998   4.580   1.603   4.543  0.0440 -0.9168 -0.5628
17195TIP3   OH272999   5.428   7.262   5.933 -0.2200 -0.8898 -0.2720
17195TIP3    H173000   5.487   7.233   6.002  1.2214 -0.5810 -1.3689
17195TIP3    H273001   5.456   7.214   5.855 -1.0895 -0.3611 -0.9235
17196TIP3   OH273002   2.887   1.996   3.441  0.3304 -0.6397 -0.0197
17196TIP3    H173003   2.917   2.072   3.491  0.0921 -0.5730  0.0248
17196TIP3    H273004   2.913   2.014   3.351  1.0299 -0.8966  0.1257
17197TIP3   OH273005   4.072   1.523   5.404  1.1681  0.5623  0.1532
17197TIP3    H173006   4.116   1.452   5.451  0.0992  0.2690  0.7162
17197TIP3    H273007   3.986   1.488   5.382  0.5656  1.7379  0.5767
17198TIP3   OH273008   5.513   1.045   5.525  0.4508  0.5156 -0.4040
17198TIP3    H173009   5.451   1.116   5.507 -1.5675 -1.3405 -1.0212
17198TIP3    H273010   5.464   0.965   5.505  1.3393 -1.2683  3.9710
17199TIP3   OH273011   4.231   2.118   5.189 -0.0146 -0.1745 -0.2015
17199TIP3    H173012   4.300   2.061   5.223  0.0868  0.5507  0.8192
17199TIP3    H273013   4.167   2.124   5.260 -0.1917  0.7050 -0.4276
17200TIP3   OH273014   3.830   6.402   5.155 -0.5033  0.1001  0.1911
17200TIP3    H173015   3.795   6.327   5.105 -0.5942 -0.6541  1.3624
17200TIP3    H273016   3.889   6.446   5.094 -0.4571 -0.9246 -0.5220
17201TIP3   OH273017   4.541   3.847   5.903 -0.1240  0.1734  0.0615
17201TIP3    H173018   4.549   3.846   5.998 -0.9284  0.8936  0.1427
17201TIP3    H273019   4.452   3.816   5.885 -0.3835  1.1828 -0.4044
17202TIP3   OH273020   3.236   2.443   4.346  0.3347 -0.2135  0.7781
17202TIP3    H173021   3.210   2.535   4.352  0.4770 -0.0829 -0.4743
17202TIP3    H273022   3.324   2.446   4.306 -0.7531 -1.0038 -1.7526
17203TIP3   OH273023   4.226   2.785   5.375 -0.3854  0.0928  0.2451
17203TIP3    H173024   4.158   2.735   5.330 -1.7252  1.0187  1.2154
17203TIP3    H273025   4.181   2.825   5.449  0.8914  1.8709  0.0954
17204TIP3   OH273026   6.902   0.961   4.906 -0.5268  0.6076 -0.1127
17204TIP3    H173027   6.992   0.929   4.905 -0.6017  0.4128 -1.4497
17204TIP3    H273028   6.849   0.884   4.887 -0.8491  1.1116 -1.2643
17205TIP3   OH273029   6.649   0.670   5.352 -0.3657 -0.1512 -0.7341
17205TIP3    H173030   6.686   0.583   5.338  0.5652  0.4572 -2.1756
17205TIP3    H273031   6.564   0.667   5.308 -0.8108 -0.6585  0.1437
17206TIP3   OH273032   6.154   0.939   3.745 -0.5692  0.7119 -0.2414
17206TIP3    H173033   6.168   1.026   3.709 -1.3715  0.2730 -1.6555
17206TIP3    H273034   6.059   0.934   3.758 -0.4866  0.1800  0.1642
17207TIP3   OH273035   5.916   6.033   5.097  1.1782 -0.1094 -0.4368
17207TIP3    H173036   5.835   6.002   5.057  0.4878  0.4954  0.4700
17207TIP3    H273037   5.984   5.979   5.058  0.3336 -0.6531 -1.1781
17208TIP3   OH273038   6.302   1.480   5.033  0.3435  0.2488 -0.5516
17208TIP3    H173039   6.388   1.452   5.063  0.2360  0.1565 -0.3302
17208TIP3    H273040   6.289   1.433   4.951  0.0979 -0.4655 -0.1029
17209TIP3   OH273041   5.700   1.571   5.431 -0.2747 -0.1697  0.1168
17209TIP3    H173042   5.629   1.581   5.494 -0.7821 -0.2827 -0.4391
17209TIP3    H273043   5.743   1.657   5.429 -1.0174  0.2007 -0.2940
17210TIP3   OH273044   4.414   1.320   4.198  0.1988  0.1360 -0.1972
17210TIP3    H173045   4.442   1.313   4.290  0.4705 -0.6993 -0.3452
17210TIP3    H273046   4.345   1.386   4.200 -0.4966 -0.6149  0.7614
17211TIP3   OH273047   0.615   3.695   3.456  0.6054 -0.2641  0.0238
17211TIP3    H173048   0.640   3.776   3.501 -0.1943 -0.9471  1.6932
17211TIP3    H273049   0.544   3.658   3.508  0.4193 -1.6524 -1.1683
17212TIP3   OH273050   6.553   2.016   5.550 -0.3495 -0.1945 -0.1014
17212TIP3    H173051   6.613   1.972   5.490  1.3134  0.2073  1.2261
17212TIP3    H273052   6.586   2.106   5.557 -0.5463 -0.2152  1.3427
17213TIP3   OH273053   3.646   1.795   3.850  0.3224  0.0569  0.7612
17213TIP3    H173054   3.558   1.776   3.880 -0.8011  2.0552 -1.1174
17213TIP3    H273055   3.683   1.851   3.919 -1.2537  2.3519 -0.2150
17214TIP3   OH273056   1.076   3.527   3.853  0.6264 -0.1489  0.1178
17214TIP3    H173057   1.035   3.510   3.768  0.7852  1.1347 -0.2334
17214TIP3    H273058   1.130   3.605   3.838 -0.6440  1.0801  1.8222
17215TIP3   OH273059   2.124   1.154   4.884  0.0444 -0.3476  0.7734
17215TIP3    H173060   2.032   1.131   4.899 -0.2271  0.6548  0.6877
17215TIP3    H273061   2.172   1.100   4.947 -0.1741 -4.4702 -2.3682
17216TIP3   OH273062   7.164   5.430   2.369 -0.2792  0.5982  0.2000
17216TIP3    H173063   7.108   5.440   2.292 -0.5902  0.5025  0.4129
17216TIP3    H273064   7.118   5.366   2.424 -0.2217  0.9127  0.6141
17217TIP3   OH273065   4.105   6.216   2.541 -0.0399  0.8870  0.4014
17217TIP3    H173066   4.120   6.181   2.453 -1.4298 -0.1518  0.5766
17217TIP3    H273067   4.038   6.160   2.579 -1.0166  2.6377  1.3490
17218TIP3   OH273068   3.678   1.410   5.745 -0.2207  0.5517 -0.7832
17218TIP3    H173069   3.641   1.490   5.782 -2.5682 -0.4246 -0.9129
17218TIP3    H273070   3.701   1.357   5.820 -0.8030  0.4094 -0.7044
17219TIP3   OH273071   1.170   4.239   4.776  0.4468 -0.1546  0.4077
17219TIP3    H173072   1.086   4.215   4.816  0.8953  1.0427  2.1412
17219TIP3    H273073   1.181   4.332   4.797  1.6625 -0.0018 -0.8072
17220TIP3   OH273074   1.172   6.126   5.301  0.6246  0.3282  0.4969
17220TIP3    H173075   1.142   6.059   5.362 -0.7838 -0.6824 -1.2636
17220TIP3    H273076   1.188   6.203   5.356  1.8910 -1.3042  2.4823
17221TIP3   OH273077   1.159   0.449   4.701  0.5526  0.2806 -0.1272
17221TIP3    H173078   1.207   0.370   4.677  0.8766  0.5351 -0.3265
17221TIP3    H273079   1.071   0.436   4.666  0.4992 -0.1498  0.1629
17222TIP3   OH273080   6.516   1.678   4.194  0.1368 -0.2026 -0.0105
17222TIP3    H173081   6.572   1.744   4.235  2.2964 -1.1185 -1.3974
17222TIP3    H273082   6.523   1.602   4.251 -0.4042 -0.0167  0.2989
17223TIP3   OH273083   4.193   0.911   4.620  0.3826  0.3663 -0.0212
17223TIP3    H173084   4.183   0.923   4.714 -1.6359  1.5203 -0.3602
17223TIP3    H273085   4.270   0.854   4.611  0.5866  0.2378  2.3037
17224TIP3   OH273086   4.879   6.720   4.337  0.6724  0.5938 -0.3142
17224TIP3    H173087   4.916   6.801   4.302  1.6406  0.4440  0.3769
17224TIP3    H273088   4.952   6.658   4.337  0.0534 -0.1388 -0.3847
17225TIP3   OH273089   5.901   6.908   6.125 -0.7572  0.1383  0.7402
17225TIP3    H173090   5.976   6.918   6.182  0.6966 -0.8256 -0.9467
17225TIP3    H273091   5.902   6.815   6.100  0.1130  1.0175 -2.7688
17226TIP3   OH273092   4.404   5.911   5.008 -0.6226 -0.4746 -0.5233
17226TIP3    H173093   4.309   5.917   5.008 -0.6698 -1.1584 -0.4197
17226TIP3    H273094   4.423   5.823   5.042  0.0534 -0.1910 -0.1475
17227TIP3   OH273095   1.360   1.465   3.725  0.5280  0.1813  0.1174
17227TIP3    H173096   1.272   1.428   3.724  1.3949 -1.8833 -0.9874
17227TIP3    H273097   1.419   1.390   3.735  2.3619  1.0615 -3.1015
17228TIP3   OH273098   5.180   3.414   2.258 -0.5401 -0.2379  0.0259
17228TIP3    H173099   5.272   3.439   2.246 -0.3359 -0.7152  0.5959
17228TIP3    H273100   5.184   3.324   2.290 -1.1932 -0.0650  0.5880
17229TIP3   OH273101   4.660   3.652   4.118 -0.3153 -0.2097  0.1270
17229TIP3    H173102   4.617   3.675   4.200  0.2233 -1.5253  0.7899
17229TIP3    H273103   4.728   3.719   4.107 -3.0480  2.4529 -1.4005
17230TIP3   OH273104   3.415   4.022   3.469 -0.1281 -0.1710 -0.0792
17230TIP3    H173105   3.322   4.042   3.457 -0.3364 -1.1313 -0.0997
17230TIP3    H273106   3.417   3.928   3.486  0.6836  0.1536  1.6728
17231TIP3   OH273107   6.224   6.893   4.461  0.4859  0.2765 -1.2908
17231TIP3    H173108   6.295   6.838   4.428  0.3146 -0.5252 -0.3300
17231TIP3    H273109   6.258   6.931   4.542 -0.4091 -0.6224 -0.4870
17232TIP3   OH273110   4.323   4.400   2.653  0.6254 -0.2216 -0.2173
17232TIP3    H173111   4.251   4.451   2.616 -1.4713 -1.3878  2.0893
17232TIP3    H273112   4.389   4.465   2.676 -0.7442  1.1522 -0.0690
17233TIP3   OH273113   5.554   7.070   3.512  0.3687 -0.2074  0.0273
17233TIP3    H173114   5.539   6.976   3.518 -0.0503 -0.3435 -2.5045
17233TIP3    H273115   5.646   7.079   3.487  0.0617 -0.0224 -1.0810
17234TIP3   OH273116   0.333   2.153   4.543  0.0112  0.1095 -0.4632
17234TIP3    H173117   0.241   2.142   4.518 -0.7616  2.9613  0.9576
17234TIP3    H273118   0.380   2.156   4.460 -1.3727  0.2744 -1.2614
17235TIP3   OH273119   4.299   0.887   4.897 -0.7339 -0.2925 -0.1563
17235TIP3    H173120   4.261   0.938   4.969 -1.7154  1.3246 -1.7487
17235TIP3    H273121   4.389   0.871   4.923 -1.1227  0.1464  1.4936
17236TIP3   OH273122   5.171   2.394   1.647 -0.1748  0.3054  0.2091
17236TIP3    H173123   5.229   2.466   1.625  0.1189 -0.0278 -0.1086
17236TIP3    H273124   5.229   2.325   1.681 -0.3721 -0.0558 -0.1829
17237TIP3   OH273125   0.642   3.532   4.962 -0.1200 -0.0547 -0.5744
17237TIP3    H173126   0.652   3.595   4.890 -0.6888  0.9296  0.1908
17237TIP3    H273127   0.643   3.446   4.920  3.4000  0.3022 -1.3841
17238TIP3   OH273128   3.567   2.542   3.977  0.1316  0.3929  0.2938
17238TIP3    H173129   3.508   2.615   3.958  0.5078  0.6106 -0.0444
17238TIP3    H273130   3.604   2.563   4.063 -1.7870 -0.7346  1.4556
17239TIP3   OH273131   1.177   1.796   5.845  0.5289  0.1941  0.0513
17239TIP3    H173132   1.222   1.876   5.818  0.2259  0.7838  1.2615
17239TIP3    H273133   1.084   1.814   5.830  0.5208 -0.2360 -0.4361
17240TIP3   OH273134   6.031   1.204   2.494  0.1203 -0.4787  0.6291
17240TIP3    H173135   6.051   1.143   2.564 -0.2092 -0.2453  0.9292
17240TIP3    H273136   5.952   1.249   2.523 -0.9855 -1.5476 -0.6328
17241TIP3   OH273137   6.824   4.583   5.187 -0.0298  0.0790  0.3541
17241TIP3    H173138   6.818   4.597   5.281  1.0142  0.4807  0.3654
17241TIP3    H273139   6.742   4.539   5.164 -0.0378 -0.5404  1.5389
17242TIP3   OH273140   6.712   5.452   3.355 -0.2826 -0.5478 -0.0576
17242TIP3    H173141   6.777   5.432   3.287 -0.0813  0.5270 -0.1978
17242TIP3    H273142   6.676   5.537   3.329 -1.5307 -0.9835  0.1929
17243TIP3   OH273143   4.292   1.374   3.021  0.2885  0.1041  0.6006
17243TIP3    H173144   4.318   1.456   3.063 -0.8306 -0.6268  2.7487
17243TIP3    H273145   4.253   1.402   2.938  3.0634  1.5132 -0.3106
17244TIP3   OH273146   0.859   4.269   4.716  0.5021  0.5673 -0.0027
17244TIP3    H173147   0.881   4.362   4.725 -0.3042  0.7350  0.2765
17244TIP3    H273148   0.790   4.255   4.781 -0.6184  0.1835 -1.2507
17245TIP3   OH273149   3.995   1.704   3.288 -0.0051 -0.7834 -0.2745
17245TIP3    H173150   3.947   1.668   3.213 -1.7587 -0.0324  0.4677
17245TIP3    H273151   3.964   1.794   3.294 -0.2509 -0.9936  1.6817
17246TIP3   OH273152   0.367   6.305   4.579 -0.6483  0.4774 -0.0897
17246TIP3    H173153   0.375   6.396   4.550  2.4541 -0.0163 -0.9709
17246TIP3    H273154   0.303   6.308   4.649 -2.0855  3.0404 -1.4193
17247TIP3   OH273155   2.911   0.009   4.829 -0.1985  0.5683 -0.8629
17247TIP3    H173156   2.995   0.053   4.817  0.1797  0.5126  1.2778
17247TIP3    H273157   2.911  -0.061   4.764  1.7470  0.1339 -0.4289
17248TIP3   OH273158   6.083   2.394   4.480  0.3916  0.3841 -0.0610
17248TIP3    H173159   6.179   2.391   4.480  0.3558 -2.5814  1.8622
17248TIP3    H273160   6.057   2.326   4.419 -0.4599 -0.6727  1.4327
17249TIP3   OH273161   6.667   1.874   2.747 -0.1339  0.1224 -0.2262
17249TIP3    H173162   6.744   1.911   2.790 -1.0581  0.1885  1.3927
17249TIP3    H273163   6.684   1.780   2.745 -0.1084  0.1114  0.3508
17250TIP3   OH273164   3.769   1.079   4.154 -0.2648  0.0952  0.3788
17250TIP3    H173165   3.756   1.039   4.067 -0.4771  0.4743  0.2353
17250TIP3    H273166   3.788   1.005   4.211  1.2692 -0.0357 -0.2556
17251TIP3   OH273167   5.070   1.566   4.863 -0.5607  0.6924 -0.1605
17251TIP3    H173168   5.003   1.505   4.897 -0.3927  0.9998  0.7287
17251TIP3    H273169   5.020   1.632   4.816 -0.8315  0.5286 -0.1064
17252TIP3   OH273170   5.823   1.633   4.100 -0.9885 -0.3066 -0.0594
17252TIP3    H173171   5.756   1.694   4.069  0.6180  1.4659 -0.1325
17252TIP3    H273172   5.807   1.552   4.050 -2.3599  0.4650 -0.8903
17253TIP3   OH273173   0.284   5.289   5.054  0.2702  0.6768  0.1792
17253TIP3    H173174   0.320   5.227   4.990 -0.4521  1.0526 -0.6056
17253TIP3    H273175   0.352   5.354   5.066 -0.3066  1.6649 -1.6777
17254TIP3   OH273176   5.900   3.784   3.820  0.5205  0.2486  0.6530
17254TIP3    H173177   5.832   3.800   3.755 -0.5683 -3.1214  0.8547
17254TIP3    H273178   5.981   3.779   3.770  0.0180  0.0577 -0.1385
17255TIP3   OH273179   2.665   6.832   6.263  0.3145 -0.4091  0.6569
17255TIP3    H173180   2.743   6.812   6.210  0.0817  1.3150 -0.3767
17255TIP3    H273181   2.678   6.923   6.290 -1.3100 -0.1269  0.5118
17256TIP3   OH273182   4.048   1.884   4.570  0.3673 -0.4097  0.3646
17256TIP3    H173183   4.070   1.910   4.481  0.5512 -0.7280  0.3174
17256TIP3    H273184   4.058   1.964   4.622  0.0873 -0.1815  0.0714
17257TIP3   OH273185   5.244   6.215   2.948 -0.1832  0.7539 -0.0944
17257TIP3    H173186   5.338   6.213   2.931 -0.2075  0.7139 -0.2279
17257TIP3    H273187   5.223   6.126   2.976  0.0732  1.1351  1.3387
17258TIP3   OH273188   4.215   0.711   5.710  0.4302 -0.4738  0.1321
17258TIP3    H173189   4.282   0.658   5.666 -0.0510 -0.2818 -0.8616
17258TIP3    H273190   4.165   0.648   5.761  1.2869 -0.6389  0.7792
17259TIP3   OH273191   5.349   1.256   5.427 -0.5578 -0.9019 -0.6628
17259TIP3    H173192   5.255   1.268   5.444 -0.4574 -0.0571 -0.6742
17259TIP3    H273193   5.384   1.345   5.424  0.2788 -1.2208 -0.4754
17260TIP3   OH273194   0.627   3.085   1.430  0.3939 -0.4709 -0.5843
17260TIP3    H173195   0.539   3.077   1.394 -0.0412 -1.1713  0.5942
17260TIP3    H273196   0.620   3.152   1.498  0.9628  0.0820 -1.0672
17261TIP3   OH273197   1.244   2.048   4.649 -0.0750 -0.0798 -0.0296
17261TIP3    H173198   1.152   2.077   4.651 -0.3970 -1.0526 -0.0451
17261TIP3    H273199   1.277   2.065   4.737  0.2051  1.7411 -0.4790
17262TIP3   OH273200   0.188   6.931   3.718 -0.1201  0.4024  0.6350
17262TIP3    H173201   0.110   6.884   3.749 -0.4876  0.9301  0.5231
17262TIP3    H273202   0.160   7.022   3.714 -0.0732  0.3561 -1.1856
17263TIP3   OH273203   5.626   4.149   2.409 -0.4401 -0.0660  0.2778
17263TIP3    H173204   5.623   4.139   2.504  0.2871  1.7094  0.5014
17263TIP3    H273205   5.658   4.064   2.378 -2.1585 -1.1982  1.4749
17264TIP3   OH273206   7.249   1.073   1.467  0.5204 -0.6146  0.2897
17264TIP3    H173207   7.202   1.113   1.540  1.2451  0.3548  0.2448
17264TIP3    H273208   7.281   0.990   1.500  1.9589  0.3968  1.4985
17265TIP3   OH273209   5.637   4.048   2.666 -0.2348  0.2847 -0.4517
17265TIP3    H173210   5.606   3.957   2.663 -0.7662  0.4568 -0.2454
17265TIP3    H273211   5.642   4.069   2.759  0.2145  0.3607 -0.4910
17266TIP3   OH273212   5.636   3.127   4.540 -0.1342 -0.5529  0.0347
17266TIP3    H173213   5.674   3.178   4.469  0.9174 -0.0210  0.9597
17266TIP3    H273214   5.567   3.074   4.499 -0.0589  0.3287 -1.2222
17267TIP3   OH273215   5.989   1.004   3.045  0.3994 -0.5065 -0.5842
17267TIP3    H173216   5.993   1.067   3.116  0.3113 -0.2281 -0.8221
17267TIP3    H273217   5.959   0.923   3.086  1.6921 -0.7231 -0.0673
17268TIP3   OH273218   6.207   1.499   5.613  0.1871  0.3152  0.2060
17268TIP3    H173219   6.205   1.471   5.705  0.5051  3.1568  1.1299
17268TIP3    H273220   6.300   1.497   5.590  0.1939  0.3930  0.2249
17269TIP3   OH273221   0.309   3.184   3.867 -0.0192 -0.6895  0.4416
17269TIP3    H173222   0.401   3.171   3.890  0.4951  1.9196 -0.0164
17269TIP3    H273223   0.260   3.143   3.938  1.5168  0.4609  2.2151
17270TIP3   OH273224   4.894   1.398   5.310  0.2886  0.4045  0.3274
17270TIP3    H173225   4.856   1.471   5.358 -1.5079 -0.9736  1.0363
17270TIP3    H273226   4.935   1.439   5.233 -1.1752  2.0901  0.4121
17271TIP3   OH273227   4.863   0.253   4.073  0.4166  0.7747  0.2213
17271TIP3    H173228   4.899   0.306   4.002 -0.8768 -0.2060 -1.1982
17271TIP3    H273229   4.927   0.183   4.087  0.2732  0.4906 -0.5493
17272TIP3   OH273230   2.899   7.023   4.290 -0.1831 -0.1297 -0.3726
17272TIP3    H173231   2.825   7.072   4.328 -0.3517 -1.5603  1.2165
17272TIP3    H273232   2.878   7.017   4.197 -2.1138 -0.5473  0.0584
17273TIP3   OH273233   0.104   5.343   2.152  0.7834  0.1804 -0.3952
17273TIP3    H173234   0.052   5.336   2.072  0.7049  1.1930 -0.4367
17273TIP3    H273235   0.094   5.257   2.194  1.6302 -0.6964 -1.9531
17274TIP3   OH273236   4.534   2.085   4.586 -0.4307 -0.4487  0.3710
17274TIP3    H173237   4.574   2.048   4.506  0.5946  1.5021 -0.0406
17274TIP3    H273238   4.495   2.167   4.557 -2.3369 -0.9825  1.3753
17275TIP3   OH273239   0.159   3.613   5.243 -0.0283 -0.2916  0.2371
17275TIP3    H173240   0.247   3.591   5.212  0.3781  0.7758  0.6010
17275TIP3    H273241   0.113   3.644   5.165 -0.3403 -1.6155 -0.1112
17276TIP3   OH273242   1.794   2.612   3.650  0.3806  0.0289  0.2577
17276TIP3    H173243   1.715   2.583   3.605  0.3218  1.1618 -0.3939
17276TIP3    H273244   1.780   2.705   3.666  2.1278  0.5697 -1.1013
17277TIP3   OH273245   6.676   3.088   3.697 -0.3896 -0.2572 -0.1625
17277TIP3    H173246   6.662   2.994   3.704 -0.8453 -0.1739  0.0941
17277TIP3    H273247   6.684   3.117   3.788 -1.4973  0.1337 -0.1810
17278TIP3   OH273248   5.263   6.928   4.989  0.1099  0.9174  0.4185
17278TIP3    H173249   5.242   6.993   4.922 -1.0919 -1.5599 -1.7297
17278TIP3    H273250   5.291   6.851   4.938 -1.4648 -1.2473  2.7476
17279TIP3   OH273251   7.266   4.570   0.874  0.1580  0.2025 -0.2397
17279TIP3    H173252   7.231   4.586   0.787 -0.2199 -0.4129 -0.2056
17279TIP3    H273253   7.193   4.590   0.933  0.2764  0.1986 -0.0917
17280TIP3   OH273254   7.227   2.206   4.296  0.2979  0.1806  0.1623
17280TIP3    H173255   7.188   2.165   4.219  0.0174 -0.3488  0.5766
17280TIP3    H273256   7.175   2.284   4.312 -0.7720 -0.6537  0.8630
17281TIP3   OH273257   6.416   2.365   3.298 -0.0872  0.4370  0.3094
17281TIP3    H173258   6.338   2.410   3.267 -0.0139 -0.5089 -1.3506
17281TIP3    H273259   6.396   2.338   3.387 -1.5630  0.4060 -0.0294
17282TIP3   OH273260   6.772   5.269   5.048 -0.7918  0.5964 -0.0524
17282TIP3    H173261   6.851   5.267   5.102 -0.4331 -0.8693 -0.6262
17282TIP3    H273262   6.732   5.183   5.061 -1.0111  0.4508 -1.6558
17283TIP3   OH273263   5.721   0.164   5.571 -0.0883  0.2973  0.5823
17283TIP3    H173264   5.785   0.180   5.501 -0.8871 -0.8828 -0.4580
17283TIP3    H273265   5.773   0.152   5.650  0.9398 -0.0707 -0.1466
17284TIP3   OH273266   5.193   0.208   3.882  0.8579 -0.7620  0.8582
17284TIP3    H173267   5.114   0.192   3.933 -2.2296 -0.0283 -3.3573
17284TIP3    H273268   5.249   0.132   3.898 -1.1347 -1.7985  3.1519
17285TIP3   OH273269   4.047   3.416   5.419 -0.2211  0.4454  0.2541
17285TIP3    H173270   4.041   3.382   5.508  1.5471  0.6698  0.4748
17285TIP3    H273271   4.123   3.474   5.420 -0.6802  1.1058 -1.1878
17286TIP3   OH273272   1.715   4.393   4.845 -0.2831 -0.3336 -0.8513
17286TIP3    H173273   1.724   4.299   4.837  0.0813 -0.4224  0.5392
17286TIP3    H273274   1.787   4.421   4.901 -1.4836  0.5062  0.3289
17287TIP3   OH273275   4.501   2.778   5.635  0.0718 -0.0694  0.2100
17287TIP3    H173276   4.550   2.833   5.574 -0.9880  0.0312 -0.5638
17287TIP3    H273277   4.482   2.836   5.709 -0.4673  0.4263 -0.3085
17288TIP3   OH273278   5.719   7.154   5.581  0.2427 -0.3200 -0.0667
17288TIP3    H173279   5.811   7.129   5.579  0.7150  1.3763 -0.4621
17288TIP3    H273280   5.716   7.229   5.640 -0.4996  1.0439 -1.7775
17289TIP3   OH273281   1.686   0.413   3.534 -0.5249  0.1103 -0.3995
17289TIP3    H173282   1.680   0.412   3.439 -0.1321  2.9818 -0.4807
17289TIP3    H273283   1.595   0.402   3.563 -1.3047  3.7137 -1.2098
17290TIP3   OH273284   0.360   7.014   5.778  0.2631 -0.6404 -0.1772
17290TIP3    H173285   0.357   7.055   5.865  1.2504  0.7381 -0.7680
17290TIP3    H273286   0.421   7.069   5.728 -2.2695  0.1580 -2.5540
17291TIP3   OH273287   6.268   4.353   4.312 -0.1459  0.1423 -0.4003
17291TIP3    H173288   6.256   4.396   4.397 -3.8273 -0.9630 -0.2710
17291TIP3    H273289   6.237   4.418   4.248 -1.5983 -0.6915 -0.5464
17292TIP3   OH273290   6.854   6.418   4.078  0.7252  0.0284  0.3138
17292TIP3    H173291   6.764   6.441   4.100  0.1144 -2.4017  0.4416
17292TIP3    H273292   6.854   6.415   3.982  0.2090 -1.7177  0.3610
17293TIP3   OH273293   6.424   3.944   3.576  0.0796  0.3833 -0.6332
17293TIP3    H173294   6.343   3.992   3.592 -1.4542 -2.0927 -0.5580
17293TIP3    H273295   6.441   3.954   3.483 -0.1007  1.2312 -0.5744
17294TIP3   OH273296   0.776   6.219   2.491 -0.0501 -0.0009  0.0765
17294TIP3    H173297   0.812   6.269   2.418 -1.4116  0.6987 -0.1394
17294TIP3    H273298   0.843   6.225   2.559  1.3299 -0.8619 -1.1874
17295TIP3   OH273299   7.274   2.587   4.731 -0.3423  0.2527  0.1142
17295TIP3    H173300   7.300   2.625   4.647 -0.2337 -0.0763 -0.0003
17295TIP3    H273301   7.355   2.575   4.779 -0.3209 -0.3677 -0.0740
17296TIP3   OH273302   6.978   1.511   2.831  0.2101  0.6530  0.3031
17296TIP3    H173303   7.040   1.583   2.827 -0.0746  1.0046  2.0694
17296TIP3    H273304   6.932   1.522   2.914 -0.4796 -1.0345  0.1802
17297TIP3   OH273305   1.977   4.936   2.906  0.3097 -0.1711 -0.2483
17297TIP3    H173306   1.965   5.022   2.865  1.4406  0.7307  1.2717
17297TIP3    H273307   1.898   4.924   2.959  0.7789  0.5951  0.6561
17298TIP3   OH273308   5.579   1.892   3.015  0.3220 -0.0420  0.1642
17298TIP3    H173309   5.601   1.982   2.993 -1.8824  0.5887  0.4632
17298TIP3    H273310   5.626   1.839   2.950  1.0876  1.3386 -0.4196
17299TIP3   OH273311   5.313   1.192   4.648 -0.1432  0.2672  0.4489
17299TIP3    H173312   5.338   1.284   4.642 -0.8497  0.5256  1.4544
17299TIP3    H273313   5.283   1.180   4.738 -1.1527 -0.6728  0.0041
17300TIP3   OH273314   5.996   1.144   1.504  0.2890 -0.7211 -0.0738
17300TIP3    H173315   6.089   1.161   1.519  0.3786 -1.6307  0.4252
17300TIP3    H273316   5.953   1.177   1.583 -0.0149  1.3924 -1.0871
17301TIP3   OH273317   0.953   3.903   2.774  0.1577  0.1570  0.1576
17301TIP3    H173318   1.003   3.953   2.710 -0.3888  1.7015  0.9031
17301TIP3    H273319   1.011   3.833   2.801  1.0735  0.5930 -0.6643
17302TIP3   OH273320   6.137   6.537   5.579  0.1431 -0.0908  0.3886
17302TIP3    H173321   6.192   6.462   5.601 -0.1422  0.3007  2.5268
17302TIP3    H273322   6.184   6.613   5.613  0.8670  0.8545 -2.5445
17303TIP3   OH273323   0.244   2.440   3.926  0.1752 -0.6747 -0.3045
17303TIP3    H173324   0.215   2.520   3.884  0.3143 -1.5439 -2.0910
17303TIP3    H273325   0.268   2.382   3.854 -0.8570 -2.6898  0.9219
17304TIP3   OH273326   5.746   3.913   5.051 -0.0301  0.0384  0.1685
17304TIP3    H173327   5.791   3.837   5.016  0.8598  0.5482  0.1704
17304TIP3    H273328   5.817   3.975   5.071 -0.7463  0.9019  0.0558
17305TIP3   OH273329   3.562   1.890   2.026  0.6851 -0.1179  0.3911
17305TIP3    H173330   3.606   1.975   2.032  0.7343 -0.1853  0.9993
17305TIP3    H273331   3.556   1.873   1.932  2.4578 -0.3712  0.3035
17306TIP3   OH273332   0.345   4.786   5.152 -0.5668  0.5595 -0.2037
17306TIP3    H173333   0.334   4.691   5.159 -2.3589  0.7563 -0.0116
17306TIP3    H273334   0.325   4.805   5.060  1.2193  0.6036 -0.6114
17307TIP3   OH273335   5.647   5.278   2.024  0.2806 -1.2686 -0.7614
17307TIP3    H173336   5.629   5.362   1.982  0.4657 -1.6800 -1.6805
17307TIP3    H273337   5.650   5.298   2.117  0.8823 -0.1516 -1.0122
17308TIP3   OH273338   6.750   7.262   5.435 -0.2405  0.0359  0.0901
17308TIP3    H173339   6.826   7.314   5.461 -0.0132 -0.4391  0.3694
17308TIP3    H273340   6.687   7.273   5.506 -0.3457  0.2445 -0.0339
17309TIP3   OH273341   6.874   1.528   5.356 -0.2525 -0.2695  0.1891
17309TIP3    H173342   6.835   1.488   5.278  1.3649 -1.8615  0.1499
17309TIP3    H273343   6.863   1.463   5.425  1.5887 -0.4549  0.3533
17310TIP3   OH273344   5.937   6.590   3.207 -0.5111  0.2041 -0.4293
17310TIP3    H173345   5.892   6.630   3.132  0.8936  0.6864 -1.0616
17310TIP3    H273346   6.006   6.537   3.167 -0.0424  0.0937  0.5142
17311TIP3   OH273347   0.649   4.246   4.159 -0.1369 -0.0555  0.0546
17311TIP3    H173348   0.561   4.222   4.189 -1.3273  3.4273 -0.3857
17311TIP3    H273349   0.695   4.270   4.239 -0.0628 -0.5125  0.1473
17312TIP3   OH273350   0.801   0.982   5.269  0.0509  0.1747  0.1472
17312TIP3    H173351   0.868   0.993   5.337  0.1258  1.1760 -0.0674
17312TIP3    H273352   0.754   1.066   5.269 -0.8432 -0.3279 -0.0797
17313TIP3   OH273353   1.809   3.715   5.711  0.0854 -0.0629 -0.9497
17313TIP3    H173354   1.805   3.628   5.750 -2.9428 -0.5987 -2.2619
17313TIP3    H273355   1.762   3.772   5.773  1.7146  0.5715 -0.2822
17314TIP3   OH273356   6.808   2.985   5.296  0.3841  0.2629 -0.1865
17314TIP3    H173357   6.803   2.925   5.221  2.2115  1.1872 -1.0609
17314TIP3    H273358   6.901   2.994   5.313  0.0127  0.7707  1.6602
17315TIP3   OH273359   6.120   7.023   3.054  0.0755  0.9612  0.2149
17315TIP3    H173360   6.156   7.111   3.059  0.8626  0.5216  3.6255
17315TIP3    H273361   6.099   7.000   3.145  0.1042 -2.4582 -0.5636
17316TIP3   OH273362   5.471   0.350   4.621  0.5685 -0.3956  0.0299
17316TIP3    H173363   5.418   0.328   4.698 -0.1777  2.7196  0.4508
17316TIP3    H273364   5.524   0.425   4.648 -1.0287  1.9578 -3.0107
17317TIP3   OH273365   4.656   0.987   2.759 -0.1277  0.0641 -0.6291
17317TIP3    H173366   4.663   0.916   2.822 -0.9733 -1.4639 -2.1791
17317TIP3    H273367   4.566   1.018   2.767 -1.0871 -1.9392 -2.8607
17318TIP3   OH273368   6.611   0.899   6.221  0.0063 -0.5575  0.5292
17318TIP3    H173369   6.596   0.862   6.134 -2.4643 -0.1297  0.7460
17318TIP3    H273370   6.697   0.866   6.247  1.7316  1.0052 -2.9507
17319TIP3   OH273371   6.654   1.566   3.030 -0.3570  0.5112  0.3774
17319TIP3    H173372   6.684   1.573   2.939  1.3813  2.0583  1.0177
17319TIP3    H273373   6.569   1.610   3.032 -0.8152 -0.3169 -0.6656
17320TIP3   OH273374   6.043   3.814   4.973  0.1960 -0.1711 -0.6978
17320TIP3    H173375   6.116   3.875   4.967  1.5320 -1.7043 -0.2233
17320TIP3    H273376   5.993   3.828   4.893 -0.4542  2.7153  0.1623
17321TIP3   OH273377   4.305   1.091   5.523 -0.6558 -0.6466 -0.5075
17321TIP3    H173378   4.362   1.052   5.457  0.0123 -1.4581  0.5459
17321TIP3    H273379   4.268   1.017   5.571  0.7661 -0.0257  1.6191
17322TIP3   OH273380   0.537   6.667   5.463 -0.0455 -0.5871  0.5217
17322TIP3    H173381   0.544   6.718   5.382 -1.8215  0.3912  0.9348
17322TIP3    H273382   0.589   6.589   5.447  0.2614 -0.0476 -1.2779
17323TIP3   OH273383   3.846   0.813   5.788  0.1880 -0.4260 -0.6137
17323TIP3    H173384   3.755   0.792   5.808  0.1021 -1.1565 -1.7277
17323TIP3    H273385   3.864   0.767   5.706  1.6479 -0.5244 -0.2572
17324TIP3   OH273386   0.178   6.908   4.360 -0.5828 -0.2760 -0.6409
17324TIP3    H173387   0.172   6.812   4.364  0.9147 -0.3880 -0.8394
17324TIP3    H273388   0.171   6.928   4.267  1.8352 -0.4139 -0.8880
17325TIP3   OH273389   1.147   1.618   2.410 -0.1062  0.1574 -0.1524
17325TIP3    H173390   1.202   1.587   2.482  1.1127 -0.2928 -1.2596
17325TIP3    H273391   1.092   1.685   2.450  1.4119  0.7907  0.9472
17326TIP3   OH273392   0.264   3.241   4.612 -0.1615  0.6010  0.1406
17326TIP3    H173393   0.183   3.289   4.592 -0.0973 -0.6460 -3.6856
17326TIP3    H273394   0.333   3.305   4.602 -0.2283  0.2720 -3.1348
17327TIP3   OH273395   6.352   1.190   5.606  0.0763 -0.1421 -0.1785
17327TIP3    H173396   6.263   1.222   5.620  0.0457 -0.3400  0.0860
17327TIP3    H273397   6.403   1.269   5.585 -0.3879 -0.1833 -1.4883
17328TIP3   OH273398   4.231   3.241   1.839 -0.0360  0.8095 -0.0303
17328TIP3    H173399   4.195   3.176   1.899  0.9963  1.4559  1.3069
17328TIP3    H273400   4.252   3.191   1.759 -1.1613 -0.1001  0.2262
17329TIP3   OH273401   4.127   7.175   5.336  0.1811 -0.0251 -0.1048
17329TIP3    H173402   4.179   7.249   5.306 -0.7668 -0.1645 -2.2140
17329TIP3    H273403   4.100   7.198   5.424  2.8152  0.5721  0.5927
17330TIP3   OH273404   0.550   0.289   3.905  0.1455  0.1766 -0.0594
17330TIP3    H173405   0.541   0.337   3.987  1.4811  0.1722  0.0953
17330TIP3    H273406   0.468   0.240   3.897 -0.0615  0.3052  1.1792
17331TIP3   OH273407   3.348   0.912   3.249 -0.4820  0.4464 -0.0569
17331TIP3    H173408   3.399   0.888   3.326 -0.8682  1.5008  0.5488
17331TIP3    H273409   3.261   0.874   3.265  0.0197 -1.1228 -0.9636
17332TIP3   OH273410   2.811   2.546   3.574 -0.8200  0.2597  0.2807
17332TIP3    H173411   2.716   2.555   3.576 -0.9300 -0.7847  0.1238
17332TIP3    H273412   2.831   2.518   3.485 -0.4729 -0.5226  0.5947
17333TIP3   OH273413   5.521   2.826   5.202  0.1624 -0.7476  0.2852
17333TIP3    H173414   5.510   2.740   5.242 -1.9960 -0.0484  1.2592
17333TIP3    H273415   5.509   2.888   5.274  0.0025  0.4152 -0.7240
17334TIP3   OH273416   7.010   1.425   4.612  0.2491  0.1486  0.3204
17334TIP3    H173417   7.079   1.485   4.641  0.8835 -0.6010  0.3858
17334TIP3    H273418   7.020   1.348   4.669  0.7369 -0.8487 -1.0744
17335TIP3   OH273419   1.514   6.415   3.524 -0.2679  0.6222  0.0119
17335TIP3    H173420   1.548   6.500   3.551 -2.3149  1.6719 -0.6244
17335TIP3    H273421   1.509   6.365   3.605 -0.3580  1.5765  0.6069
17336TIP3   OH273422   3.304   3.177   5.018 -0.0500  0.0879 -0.0357
17336TIP3    H173423   3.224   3.222   4.991 -0.0796  0.4396  0.6399
17336TIP3    H273424   3.279   3.084   5.022  0.2123 -0.1229 -2.1914
17337TIP3   OH273425   4.584   4.046   3.652 -0.1531  0.3289 -0.2405
17337TIP3    H173426   4.616   4.074   3.738  2.1364 -1.7113 -0.3856
17337TIP3    H273427   4.501   4.002   3.670  0.5546 -0.5155  0.9813
17338TIP3   OH273428   3.485   1.551   4.538 -0.1567 -0.5387 -0.4454
17338TIP3    H173429   3.469   1.510   4.624  0.7245 -0.4988 -0.2500
17338TIP3    H273430   3.511   1.478   4.482 -1.0771 -0.6155 -0.7741
17339TIP3   OH273431   5.677   0.070   1.943  0.4352 -0.0181 -0.4283
17339TIP3    H173432   5.754   0.040   1.990  0.9245 -1.1461 -1.9025
17339TIP3    H273433   5.710   0.133   1.879 -0.3624  2.3750  1.4101
17340TIP3   OH273434   3.304   6.417   5.034  0.0705 -0.3614 -0.7502
17340TIP3    H173435   3.223   6.467   5.026  0.4875  0.5318  0.5653
17340TIP3    H273436   3.276   6.333   5.072 -0.4908 -0.8001 -2.0814
17341TIP3   OH273437   3.940   1.606   2.524 -0.0527 -0.2572 -0.1189
17341TIP3    H173438   3.930   1.525   2.473 -0.5795  0.5630 -1.3339
17341TIP3    H273439   4.004   1.657   2.475 -0.8710  0.7186 -0.1857
17342TIP3   OH273440   5.196   3.374   3.334  0.4395  0.8462 -0.0671
17342TIP3    H173441   5.106   3.352   3.313  1.2592 -2.3850 -0.3863
17342TIP3    H273442   5.232   3.408   3.252 -0.2354  1.4079 -0.1401
17343TIP3   OH273443   1.371   6.283   3.754 -0.1546  0.2883  0.0955
17343TIP3    H173444   1.434   6.229   3.802  1.1653  1.4381 -0.3285
17343TIP3    H273445   1.304   6.305   3.819  0.8143  0.5568  1.0183
17344TIP3   OH273446   6.858   2.102   2.236 -0.1584  0.1237 -0.0759
17344TIP3    H173447   6.773   2.107   2.278 -0.5426  0.1704 -0.8518
17344TIP3    H273448   6.840   2.119   2.143  0.7453  0.5505 -0.1763
17345TIP3   OH273449   7.299   1.480   1.322 -0.5750 -0.2320  0.0560
17345TIP3    H173450   7.283   1.562   1.276 -1.7089 -0.7951 -0.5776
17345TIP3    H273451   7.251   1.487   1.404 -0.5429 -0.2028  0.0724
17346TIP3   OH273452   4.448   1.507   3.418  0.3505 -0.4234 -0.4603
17346TIP3    H173453   4.506   1.498   3.493  1.8473 -2.2086 -1.7708
17346TIP3    H273454   4.478   1.585   3.373 -0.9563  1.0194  1.0858
17347TIP3   OH273455   3.559   0.445   4.490 -0.0647 -0.4014  0.9330
17347TIP3    H173456   3.498   0.387   4.446 -2.6148  0.0369  3.7825
17347TIP3    H273457   3.591   0.395   4.565  2.3577 -0.2630  0.0369
17348TIP3   OH273458   4.947   0.507   5.107 -0.6371 -0.2119 -0.1459
17348TIP3    H173459   4.976   0.514   5.016 -0.0653  0.5617  0.0926
17348TIP3    H273460   4.974   0.419   5.134 -1.7789 -0.8610 -1.0500
17349TIP3   OH273461   4.493   3.348   4.209  0.7847 -0.5879 -0.7473
17349TIP3    H173462   4.531   3.261   4.220 -1.2054 -1.2022  1.6675
17349TIP3    H273463   4.398   3.333   4.212  0.4112  1.8600  1.5205
17350TIP3   OH273464   0.350   1.365   2.280 -0.5292  0.0240  0.4199
17350TIP3    H173465   0.365   1.397   2.191  0.7810 -0.4022  0.4799
17350TIP3    H273466   0.400   1.425   2.335 -0.6680 -0.2084  0.7953
17351TIP3   OH273467   7.161   1.633   4.731 -0.3230  0.2238  0.0567
17351TIP3    H173468   7.246   1.674   4.714 -1.5027  2.8882  0.3180
17351TIP3    H273469   7.133   1.670   4.815 -2.2475  0.2462 -0.5744
17352TIP3   OH273470   0.923   2.496   4.684  0.1790 -0.4480  0.8162
17352TIP3    H173471   0.987   2.425   4.671 -0.3369 -0.7068 -0.3815
17352TIP3    H273472   0.859   2.483   4.614 -0.4113  0.6690  1.1453
17353TIP3   OH273473   0.897   3.212   4.807 -0.2250 -0.4448 -0.4691
17353TIP3    H173474   0.983   3.185   4.774  0.3558 -0.2443  0.8621
17353TIP3    H273475   0.858   3.131   4.840  0.7437 -0.0141  1.7903
17354TIP3   OH273476   6.363   0.022   3.620  0.2530  0.4003  0.0145
17354TIP3    H173477   6.277  -0.008   3.590 -0.5250  1.6499  0.9642
17354TIP3    H273478   6.393  -0.047   3.680 -0.6079  0.5367  0.5978
17355TIP3   OH273479   1.198   3.319   3.290  0.1885 -0.0008 -0.1117
17355TIP3    H173480   1.158   3.406   3.299 -0.6240 -0.2864 -0.8546
17355TIP3    H273481   1.234   3.318   3.202  3.0286  0.7172  0.9805
17356TIP3   OH273482   0.090   6.865   4.822  0.1322 -0.0581  0.7366
17356TIP3    H173483   0.127   6.821   4.899  0.2067 -0.0777  0.6894
17356TIP3    H273484   0.049   6.943   4.858  0.2157 -0.0376  0.7906
17357TIP3   OH273485   0.906   3.219   2.947  0.4523  0.0679  0.1205
17357TIP3    H173486   0.844   3.291   2.942  0.9654  0.4357 -1.1202
17357TIP3    H273487   0.908   3.195   3.040  0.4243  1.7828  0.5686
17358TIP3   OH273488   3.765   0.789   3.159 -0.0463 -0.0172 -0.1904
17358TIP3    H173489   3.722   0.706   3.181  0.7643 -0.4118 -0.0866
17358TIP3    H273490   3.840   0.794   3.218  1.3931 -0.4514 -1.9409
17359TIP3   OH273491   7.263   5.416   4.664  0.5023  0.0346 -0.5942
17359TIP3    H173492   7.242   5.467   4.586 -0.7837  0.0494 -0.2451
17359TIP3    H273493   7.358   5.404   4.660  0.7482  1.9883 -0.9502
17360TIP3   OH273494   2.573   7.155   4.795 -0.0701  0.4833  0.2256
17360TIP3    H173495   2.579   7.091   4.866  1.4124 -0.3542 -0.6326
17360TIP3    H273496   2.487   7.139   4.756 -0.1523 -0.2528  0.6963
17361TIP3   OH273497   7.174   5.802   1.575 -0.1221  0.1983  0.2341
17361TIP3    H173498   7.098   5.813   1.633 -0.1316  2.0118 -0.0922
17361TIP3    H273499   7.227   5.881   1.590  1.9255 -1.2281  0.7727
17362TIP3   OH273500   5.307   2.028   2.247  0.2399 -0.1259  0.2661
17362TIP3    H173501   5.325   1.956   2.307 -0.0672 -0.4420 -0.0151
17362TIP3    H273502   5.218   2.057   2.270  1.0375  1.3536  1.5801
17363TIP3   OH273503   0.467   5.921   4.850 -0.4716 -0.1837 -0.6303
17363TIP3    H173504   0.562   5.919   4.838 -0.2076 -0.7767  1.4298
17363TIP3    H273505   0.447   6.013   4.868  0.2134 -0.5681  2.4416
17364TIP3   OH273506   6.097   7.248   4.930 -0.2768 -0.3054 -0.2806
17364TIP3    H173507   6.105   7.298   5.012 -0.2698 -1.4235  0.4214
17364TIP3    H273508   6.163   7.179   4.938  0.1726 -0.0315 -1.5370
17365TIP3   OH273509   1.956   6.053   4.411 -0.7558 -0.8389 -0.4468
17365TIP3    H173510   2.050   6.064   4.423 -1.0179 -1.0662  2.0492
17365TIP3    H273511   1.934   5.975   4.464 -2.9072  1.3251  1.9871
17366TIP3   OH273512   1.270   2.030   3.549  0.2817 -0.1072  0.6994
17366TIP3    H173513   1.213   1.977   3.605  1.1077 -0.7441  0.9413
17366TIP3    H273514   1.358   2.018   3.585  0.7504 -0.0974 -0.4150
17367TIP3   OH273515   0.763   3.463   2.977 -0.3750  0.1813 -0.1657
17367TIP3    H173516   0.691   3.478   2.915 -0.1748 -0.0515 -0.4602
17367TIP3    H273517   0.744   3.521   3.050  1.4852  3.4108 -2.1541
17368TIP3   OH273518   0.054   1.229   4.839 -0.5784  0.4425 -0.0137
17368TIP3    H173519   0.091   1.317   4.846 -1.2561  0.6425  1.0455
17368TIP3    H273520   0.106   1.187   4.770  1.2573  0.8994  1.0704
17369TIP3   OH273521   0.908   6.836   3.923 -0.3266  0.3479 -0.1204
17369TIP3    H173522   0.912   6.931   3.916  0.5878  0.3094 -0.2373
17369TIP3    H273523   0.970   6.815   3.994  1.5340 -0.3514 -1.8906
17370TIP3   OH273524   5.446   1.445   6.030  0.0924  0.0733 -0.2528
17370TIP3    H173525   5.534   1.461   6.063  0.3797  2.1453 -1.9563
17370TIP3    H273526   5.405   1.531   6.026 -2.5844 -1.0077  1.9643
17371TIP3   OH273527   5.257   2.093   4.105  0.6128 -0.2094  0.1882
17371TIP3    H173528   5.173   2.138   4.096  0.6002 -0.8069 -3.4619
17371TIP3    H273529   5.322   2.156   4.077  1.0397 -0.9394 -0.4745
17372TIP3   OH273530   5.994   0.711   5.439 -0.3271  0.0065  0.5672
17372TIP3    H173531   5.952   0.756   5.366  2.0000  1.7392  0.2448
17372TIP3    H273532   5.943   0.737   5.515 -1.3074  0.1352 -0.1273
17373TIP3   OH273533   5.885   6.187   4.111  0.0066 -0.1104  0.1666
17373TIP3    H173534   5.945   6.260   4.102 -1.8163  1.1824 -2.0575
17373TIP3    H273535   5.928   6.114   4.066  0.4106  0.4770 -0.3983
17374TIP3   OH273536   2.934   6.041   4.448 -0.7630 -0.4000 -0.2285
17374TIP3    H173537   2.847   6.039   4.486  0.3873 -0.0714  2.5635
17374TIP3    H273538   2.950   6.134   4.430 -0.6512 -0.3647  0.0571
17375TIP3   OH273539   4.689   0.661   5.477 -0.2641 -0.4159  0.4210
17375TIP3    H173540   4.714   0.695   5.391 -1.9028 -4.4292 -1.7746
17375TIP3    H273541   4.604   0.701   5.494 -1.4079 -1.9668 -1.3701
17376TIP3   OH273542   0.361   1.677   5.794 -0.2852 -0.0011 -0.1531
17376TIP3    H173543   0.297   1.608   5.778 -0.2015 -0.1178  0.0260
17376TIP3    H273544   0.338   1.712   5.880  0.7341 -0.9432  0.4962
17377TIP3   OH273545   0.682   3.073   3.502 -0.3412  0.0793 -0.2328
17377TIP3    H173546   0.726   3.000   3.459  0.4766 -0.3342  1.2737
17377TIP3    H273547   0.615   3.101   3.440  1.3700  0.0635 -2.1101
17378TIP3   OH273548   6.461   2.880   5.888 -0.1966 -0.2492  0.0151
17378TIP3    H173549   6.442   2.788   5.910  0.6751 -0.8289 -1.5777
17378TIP3    H273550   6.545   2.897   5.930  1.0457 -1.0920 -2.0412
17379TIP3   OH273551   1.218   2.328   4.429 -0.2785 -0.2051 -0.2014
17379TIP3    H173552   1.266   2.269   4.370  1.6579  0.7287  0.4050
17379TIP3    H273553   1.187   2.398   4.372  2.0311  0.9655 -0.0799
17380TIP3   OH273554   6.074   0.974   6.277  0.6296 -0.2458  0.5152
17380TIP3    H173555   6.139   0.911   6.308 -0.8166 -1.1036  1.8621
17380TIP3    H273556   6.039   1.014   6.356 -0.6595  0.0165 -0.1750
17381TIP3   OH273557   6.534   0.112   4.745 -0.2524 -0.2634  0.4798
17381TIP3    H173558   6.535   0.208   4.751  1.6929 -0.2149 -0.1233
17381TIP3    H273559   6.489   0.084   4.825 -1.5790  1.1680  0.2566
17382TIP3   OH273560   5.705   3.214   2.928  0.6303 -0.1176  0.0736
17382TIP3    H173561   5.640   3.217   2.998  0.1222  0.9442 -0.4259
17382TIP3    H273562   5.745   3.301   2.930  1.4097 -0.4685 -0.2104
17383TIP3   OH273563   0.310   6.907   2.543 -0.1764  0.8322  0.1795
17383TIP3    H173564   0.401   6.884   2.527 -0.6331  1.0398 -2.9733
17383TIP3    H273565   0.262   6.824   2.536 -0.5964  1.1854 -1.3615
17384TIP3   OH273566   6.815   1.992   4.777 -0.3977 -0.2859  0.0586
17384TIP3    H173567   6.879   1.989   4.848 -1.0585  1.0003  0.7156
17384TIP3    H273568   6.733   1.964   4.817 -0.5672 -0.5051 -0.4346
17385TIP3   OH273569   5.541   0.012   3.733  0.1662  0.0022 -0.2329
17385TIP3    H173570   5.591  -0.011   3.655 -0.8980 -0.0095 -0.9235
17385TIP3    H273571   5.602  -0.004   3.806  0.6433 -1.5469 -0.9436
17386TIP3   OH273572   4.308   3.069   4.199  0.6165  0.3671 -0.3348
17386TIP3    H173573   4.235   3.109   4.152  0.8490  0.1062 -0.9251
17386TIP3    H273574   4.274   3.053   4.287 -0.0287  0.2821 -0.5961
17387TIP3   OH273575   5.339   0.640   5.009 -0.3839  0.7035 -0.1440
17387TIP3    H173576   5.348   0.666   5.101  1.4136  0.1814 -0.1728
17387TIP3    H273577   5.349   0.722   4.960 -1.6001  1.0254  0.1137
17388TIP3   OH273578   4.712   0.673   3.249 -0.5967  0.1431  0.0346
17388TIP3    H173579   4.634   0.626   3.220 -0.5021  1.1968 -2.0123
17388TIP3    H273580   4.785   0.622   3.215 -0.4519  0.4713 -0.1509
17389TIP3   OH273581   7.290   1.606   5.914  0.3391 -0.0239  0.0605
17389TIP3    H173582   7.359   1.668   5.938 -0.7651  1.5279 -0.6551
17389TIP3    H273583   7.312   1.526   5.961  0.7733  1.4823  2.5169
17390TIP3   OH273584   6.257   1.660   5.982 -0.2119  0.4065  0.4737
17390TIP3    H173585   6.351   1.676   5.969 -0.3996  0.1506 -1.2789
17390TIP3    H273586   6.241   1.577   5.937 -0.9033 -0.5531  2.4403
17391TIP3   OH273587   4.961   6.038   2.017 -0.4421  0.3195 -0.5581
17391TIP3    H173588   5.044   6.037   2.066  1.0344  0.6432 -2.9510
17391TIP3    H273589   4.894   6.047   2.084  1.4034 -0.7413  1.5203
17392TIP3   OH273590   6.838   1.569   4.785  0.5506  0.2126  0.1504
17392TIP3    H173591   6.876   1.509   4.721  0.5901 -1.4247  1.6765
17392TIP3    H273592   6.751   1.590   4.749  1.5556  1.3759 -1.6951
17393TIP3   OH273593   7.106   5.744   3.796 -0.0092  0.2787 -0.0577
17393TIP3    H173594   7.017   5.748   3.761 -0.0898  2.0406  0.2971
17393TIP3    H273595   7.094   5.723   3.889 -0.2610  3.4778  0.6867
17394TIP3   OH273596   4.019   0.807   2.715 -0.0342 -0.2941  0.3219
17394TIP3    H173597   4.094   0.851   2.755 -0.0119 -0.2425  0.2226
17394TIP3    H273598   4.003   0.732   2.772 -1.1796  0.8052  1.4842
17395TIP3   OH273599   4.192   0.344   3.630  0.1983  0.5014  0.7731
17395TIP3    H173600   4.174   0.406   3.701  1.5273  0.1023  1.4813
17395TIP3    H273601   4.274   0.376   3.591 -0.8037  1.0276 -0.9364
17396TIP3   OH273602   2.811   0.167   3.564 -0.4729 -0.4862  0.3677
17396TIP3    H173603   2.798   0.231   3.494  0.2041 -1.4258 -0.6347
17396TIP3    H273604   2.903   0.142   3.557 -1.2864 -3.4061 -0.8898
17397TIP3   OH273605   6.073   0.318   5.900 -0.2861  0.3385  0.6868
17397TIP3    H173606   6.161   0.305   5.863 -1.3922  1.4927 -2.5524
17397TIP3    H273607   6.021   0.247   5.862 -0.9583  0.2219  1.8273
17398TIP3   OH273608   5.082   1.554   3.617  0.3776  0.3131 -0.6385
17398TIP3    H173609   5.039   1.627   3.574 -0.1645  0.8390  0.7786
17398TIP3    H273610   5.175   1.579   3.621  0.8498 -0.7890 -3.6208
17399TIP3   OH273611   3.224   1.340   4.858 -0.6128 -0.3162 -0.0757
17399TIP3    H173612   3.261   1.277   4.921 -0.1477  0.4490  0.4209
17399TIP3    H273613   3.160   1.390   4.908  0.7017  1.1886  0.1594
17400TIP3   OH273614   1.746   5.414   3.740  0.2481  0.3710 -0.6461
17400TIP3    H173615   1.780   5.349   3.679  0.6470  0.1811 -0.2295
17400TIP3    H273616   1.670   5.452   3.696 -0.4615 -0.9295 -0.5676
17401TIP3   OH273617   0.091   3.117   4.322 -0.0133 -0.4797  0.0903
17401TIP3    H173618   0.133   3.058   4.385 -1.1171  0.1146  1.4155
17401TIP3    H273619   0.157   3.184   4.303  0.4198 -0.8178  0.3937
17402TIP3   OH273620   5.756   5.867   3.218  0.3719 -0.3508 -0.4831
17402TIP3    H173621   5.665   5.896   3.223  0.4681 -0.0450 -0.4630
17402TIP3    H273622   5.751   5.775   3.193  0.0847 -0.0919 -1.3962
17403TIP3   OH273623   0.538   2.924   3.970  0.2126 -0.1498  0.0051
17403TIP3    H173624   0.623   2.908   4.010 -0.4524 -3.3551  0.2490
17403TIP3    H273625   0.548   2.895   3.880 -0.3417  0.4224 -0.2470
17404TIP3   OH273626   7.165   7.105   5.433  0.1704 -0.0579  0.6517
17404TIP3    H173627   7.131   7.189   5.461  2.9574  0.5232  2.5654
17404TIP3    H273628   7.154   7.048   5.509 -0.0130 -0.9273 -0.0094
17405TIP3   OH273629   7.168   6.771   4.439  0.1311 -0.6639 -0.8097
17405TIP3    H173630   7.100   6.833   4.410  0.8002  0.0762 -0.8302
17405TIP3    H273631   7.204   6.735   4.357  1.8973  1.2914 -0.9491
17406TIP3   OH273632   6.079   5.253   5.812 -0.1975  0.1444 -0.4385
17406TIP3    H173633   6.151   5.207   5.770 -0.2034  0.7914 -1.1536
17406TIP3    H273634   6.056   5.197   5.887  0.8842 -0.1750 -0.3377
17407TIP3   OH273635   6.146   3.706   2.262  0.5420  0.3256 -0.1989
17407TIP3    H173636   6.076   3.717   2.198 -0.4800 -1.9990  0.4778
17407TIP3    H273637   6.186   3.793   2.268  0.3594  0.7224 -3.5886
17408TIP3   OH273638   1.011   6.101   2.039 -0.1083  0.1141 -0.0808
17408TIP3    H173639   1.053   6.187   2.046  0.4250 -0.2011  0.5956
17408TIP3    H273640   1.078   6.039   2.067 -0.7620 -0.4624  0.2161
17409TIP3   OH273641   3.038   2.082   0.927 -0.4659 -0.1426 -0.0693
17409TIP3    H173642   3.100   2.150   0.901 -0.3178 -0.4085 -0.4124
17409TIP3    H273643   3.090   2.024   0.983 -0.3344 -0.5074 -0.5656
17410TIP3   OH273644   1.049   0.461   4.990  0.3154 -0.3140  0.0270
17410TIP3    H173645   1.016   0.530   5.047 -0.2850 -1.9336  1.6605
17410TIP3    H273646   1.094   0.508   4.919  0.3277  1.7198  1.3582
17411TIP3   OH273647   4.934   6.170   5.212 -0.2276  0.0167  0.2415
17411TIP3    H173648   4.887   6.157   5.294  1.9146  0.6843  1.6220
17411TIP3    H273649   4.991   6.246   5.229 -0.4800  0.8043 -2.1848
17412TIP3   OH273650   0.657   3.429   2.282  0.4773 -0.0545  0.0526
17412TIP3    H173651   0.692   3.496   2.340 -1.6161  1.9002 -0.8591
17412TIP3    H273652   0.629   3.359   2.341 -0.0456  1.1531  1.2829
17413TIP3   OH273653   6.818   5.369   4.633 -0.6664  0.1386  0.1344
17413TIP3    H173654   6.745   5.375   4.572  0.8620  0.8394 -1.6872
17413TIP3    H273655   6.850   5.459   4.641 -1.6468  0.2720  3.0160
17414TIP3   OH273656   7.118   3.139   4.257  0.2610  0.2410  0.8056
17414TIP3    H173657   7.205   3.168   4.285 -0.2538  3.6543 -0.8400
17414TIP3    H273658   7.134   3.082   4.183  1.1991 -1.2635  2.1490
17415TIP3   OH273659   5.254   7.132   3.490  0.0404 -0.4062  0.2197
17415TIP3    H173660   5.326   7.093   3.539  0.9406  1.3197  0.2954
17415TIP3    H273661   5.233   7.067   3.423  1.6836 -0.9235  0.1833
17416TIP3   OH273662   1.367   1.455   5.299 -0.7843  0.3703  0.4999
17416TIP3    H173663   1.376   1.390   5.230 -0.8656  1.1649 -0.2705
17416TIP3    H273664   1.448   1.507   5.294 -1.2174  1.0414  0.3507
17417TIP3   OH273665   6.277   0.410   4.157  0.1052  0.1991  0.1536
17417TIP3    H173666   6.295   0.419   4.063 -0.3851 -1.4771 -0.1056
17417TIP3    H273667   6.280   0.500   4.190  0.5116  0.7824 -1.4263
17418TIP3   OH273668   4.584   6.607   4.286 -0.1058 -0.0925  0.1545
17418TIP3    H173669   4.592   6.544   4.357 -0.6398  0.6004  0.8376
17418TIP3    H273670   4.672   6.646   4.278 -0.6679  1.6703  2.1787
17419TIP3   OH273671   7.288   2.017   3.884 -0.0199  0.0464  0.2403
17419TIP3    H173672   7.364   2.068   3.913  0.9832 -2.1922  1.7082
17419TIP3    H273673   7.262   2.056   3.801  1.4027  2.2089  0.7868
17420TIP3   OH273674   0.296   2.068   3.996 -0.2705  0.3871  0.0766
17420TIP3    H173675   0.294   2.117   3.914 -2.2266  0.4709  0.1587
17420TIP3    H273676   0.389   2.048   4.010  0.1195  0.7519 -1.9194
17421TIP3   OH273677   0.326   2.207   2.047  0.1385  0.4523 -0.0340
17421TIP3    H173678   0.339   2.296   2.012 -0.6232 -0.5966 -3.1207
17421TIP3    H273679   0.237   2.184   2.022  0.7867 -1.7000 -0.3968
17422TIP3   OH273680   6.771   2.956   3.144  0.3327 -0.2579  0.2782
17422TIP3    H173681   6.728   2.956   3.058  1.3153  3.2289 -0.2691
17422TIP3    H273682   6.791   2.864   3.160 -3.1446 -1.4336 -1.5544
17423TIP3   OH273683   6.658   7.292   3.808  0.3494 -0.3216  0.2211
17423TIP3    H173684   6.666   7.384   3.782 -2.7710 -0.0991 -0.0510
17423TIP3    H273685   6.701   7.244   3.737  0.8834  0.8339 -0.2525
17424TIP3   OH273686   1.201   4.168   3.925 -0.0936  0.2392  0.0643
17424TIP3    H173687   1.153   4.178   4.007 -1.2784 -1.4435 -0.3920
17424TIP3    H273688   1.133   4.153   3.859  0.8165  1.9052 -1.3136
17425TIP3   OH273689   5.057   2.417   3.216 -0.5940  0.1913 -0.1017
17425TIP3    H173690   5.129   2.445   3.273  0.1353 -2.0046  0.1356
17425TIP3    H273691   5.077   2.455   3.131  1.8314 -1.8100 -0.4822
17426TIP3   OH273692   0.206   3.236   5.673  0.5983 -0.1963  0.2790
17426TIP3    H173693   0.253   3.158   5.705  0.8766  0.1314  0.6851
17426TIP3    H273694   0.246   3.255   5.588  0.6488 -0.3921  0.2585
17427TIP3   OH273695   7.265   1.346   5.222  0.2900 -0.0808  0.1682
17427TIP3    H173696   7.199   1.302   5.169 -1.2503  0.4109  1.6281
17427TIP3    H273697   7.245   1.319   5.312  2.3583 -0.2789  0.5994
17428TIP3   OH273698   0.614   0.105   6.213 -0.5307 -0.2179  0.3707
17428TIP3    H173699   0.535   0.108   6.160  0.3597 -0.6322 -1.0062
17428TIP3    H273700   0.600   0.033   6.274 -1.2828 -0.1710  0.2551
17429TIP3   OH273701   5.603   6.674   5.704 -0.1989  0.0941 -0.4024
17429TIP3    H173702   5.671   6.670   5.771 -0.8901  1.7381  0.4162
17429TIP3    H273703   5.531   6.721   5.745 -1.7531 -1.3785 -1.3627
17430TIP3   OH273704   1.217   0.758   5.754 -0.4821 -1.0566 -0.0746
17430TIP3    H173705   1.250   0.791   5.671 -2.2294 -0.4275 -0.5567
17430TIP3    H273706   1.149   0.821   5.778 -0.7197 -1.8303  1.2933
17431TIP3   OH273707   0.338   7.171   3.784  0.2477 -1.0098 -0.0264
17431TIP3    H173708   0.406   7.127   3.733 -0.1466 -0.3353 -1.1420
17431TIP3    H273709   0.383   7.244   3.826 -0.0942  0.3282 -1.9602
17432TIP3   OH273710   7.297   0.359   4.688 -0.3083  0.6425 -0.2068
17432TIP3    H173711   7.367   0.313   4.642  0.2047  1.0744  0.1423
17432TIP3    H273712   7.231   0.376   4.620 -0.4739 -0.5342 -0.3527
17433TIP3   OH273713   7.290   4.167   4.294  0.5277  0.8634  0.2215
17433TIP3    H173714   7.214   4.224   4.303  0.2972  0.8734 -1.5363
17433TIP3    H273715   7.341   4.181   4.373 -1.4921  0.5783  1.5945
17434TIP3   OH273716   0.305   5.216   5.815  0.4889 -0.3780 -0.3528
17434TIP3    H173717   0.342   5.235   5.901  3.3360  1.9148 -1.9845
17434TIP3    H273718   0.229   5.273   5.808  0.7287  0.0279  0.3360
17435TIP3   OH273719   3.375   5.149   3.263  0.4485 -0.0519  0.0191
17435TIP3    H173720   3.406   5.072   3.312 -2.0631 -0.9214  0.3444
17435TIP3    H273721   3.359   5.116   3.174  2.9370  1.0213 -0.8774
17436TIP3   OH273722   7.052   6.069   4.767 -0.3935 -0.0733  0.1086
17436TIP3    H173723   7.068   5.974   4.767 -0.0768 -0.0274  1.6319
17436TIP3    H273724   6.958   6.077   4.758 -0.2776 -0.4967 -1.6663
17437TIP3   OH273725   5.732   0.700   4.091 -0.6195 -0.4107 -0.2512
17437TIP3    H173726   5.784   0.629   4.129 -0.0775 -0.7143 -1.5297
17437TIP3    H273727   5.797   0.761   4.056 -1.0982  0.3731  0.2169
17438TIP3   OH273728   0.058   0.131   4.288 -0.1382  0.3989  0.0987
17438TIP3    H173729   0.083   0.216   4.323  0.7828 -0.2699  1.1117
17438TIP3    H273730  -0.025   0.111   4.331  0.5440 -0.0130  1.2569
17439TIP3   OH273731   5.852   4.855   5.676  0.0734 -0.2313 -0.0139
17439TIP3    H173732   5.775   4.907   5.655 -0.8082 -0.0754  3.3612
17439TIP3    H273733   5.924   4.918   5.680  0.2483 -0.2483 -2.2353
17440TIP3   OH273734   1.213   1.980   6.080  0.2268 -0.4786  0.4412
17440TIP3    H173735   1.150   1.992   6.152 -2.8375  0.9321 -2.3636
17440TIP3    H273736   1.196   1.891   6.048 -0.6979  0.0909 -0.6521
17441TIP3   OH273737   5.336   2.972   5.007 -0.8308 -0.5074  0.0283
17441TIP3    H173738   5.375   2.992   4.922  0.3525  2.1283  1.1406
17441TIP3    H273739   5.408   2.930   5.056 -0.8094  0.0891  0.5067
17442TIP3   OH273740   5.687   2.680   3.810 -0.3907  0.2358  0.1213
17442TIP3    H173741   5.759   2.726   3.767 -1.1177 -0.2243 -1.6456
17442TIP3    H273742   5.608   2.728   3.784 -1.0748 -1.4626 -1.0657
17443TIP3   OH273743   5.644   3.098   2.391 -0.1083  0.1989 -0.1586
17443TIP3    H173744   5.648   3.103   2.487 -1.5630  1.7718 -0.1649
17443TIP3    H273745   5.642   3.189   2.362  1.7116 -0.2355 -1.7872
17444TIP3   OH273746   1.685   6.199   3.026  0.2328  0.0823 -0.4430
17444TIP3    H173747   1.591   6.186   3.021  0.0902  0.1757  1.5798
17444TIP3    H273748   1.723   6.116   2.998 -0.4819 -0.6507  0.7527
17445TIP3   OH273749   3.454   3.744   4.797  0.1797 -0.3900 -0.3118
17445TIP3    H173750   3.387   3.693   4.752  0.5910 -1.3186  0.0971
17445TIP3    H273751   3.497   3.794   4.728 -1.0559  0.3747 -0.5509
17446TIP3   OH273752   4.161   2.861   3.441  0.2548  0.4793 -0.0828
17446TIP3    H173753   4.225   2.793   3.462  0.9873  0.6637 -1.6399
17446TIP3    H273754   4.155   2.914   3.520  0.9490 -0.3934  0.5661
17447TIP3   OH273755   6.002   1.293   3.645 -0.0600 -0.3658 -0.4251
17447TIP3    H173756   5.970   1.363   3.589 -1.7387  0.6640  1.7242
17447TIP3    H273757   6.075   1.255   3.597 -1.7476  0.1076 -3.5182
17448TIP3   OH273758   6.558   3.883   6.084 -1.2485 -0.5672 -0.2985
17448TIP3    H173759   6.522   3.798   6.112 -0.5435 -0.3272  1.4086
17448TIP3    H273760   6.484   3.928   6.044 -1.9161 -1.5363 -0.1932
17449TIP3   OH273761   6.387   2.588   5.224  0.0147  0.1658 -0.3432
17449TIP3    H173762   6.450   2.572   5.154 -1.7815  0.2766 -2.0422
17449TIP3    H273763   6.414   2.672   5.261  2.6271 -1.2134  0.9643
17450TIP3   OH273764   6.718   4.193   2.099 -0.0672  0.0249 -0.0526
17450TIP3    H173765   6.672   4.234   2.026 -0.8160  0.6903  0.7811
17450TIP3    H273766   6.803   4.167   2.063 -1.1710 -1.4327 -1.6837
17451TIP3   OH273767   5.645   5.071   5.560 -0.8118 -0.4306 -0.0784
17451TIP3    H173768   5.630   5.094   5.651  0.3704 -1.3790  0.3585
17451TIP3    H273769   5.568   5.105   5.514 -1.0106  0.7973  1.1320
17452TIP3   OH273770   7.277   3.027   5.755  0.1211 -0.1258  0.6177
17452TIP3    H173771   7.271   3.000   5.847  0.7059 -0.1086  0.6665
17452TIP3    H273772   7.371   3.025   5.737  0.2395  2.3324  0.7731
17453TIP3   OH273773   7.161   4.785   4.430  0.7441 -0.1081  0.2210
17453TIP3    H173774   7.094   4.717   4.441  0.4256  0.4131  1.5257
17453TIP3    H273775   7.241   4.745   4.463  0.6571 -0.0165  0.5422
17454TIP3   OH273776   0.330   4.776   5.741 -0.9741  0.1206 -0.2153
17454TIP3    H173777   0.383   4.727   5.805  1.8426  3.4498  0.1335
17454TIP3    H273778   0.342   4.729   5.659  1.6808  0.1305  0.1103
17455TIP3   OH273779   5.069   5.055   3.699  0.5351  0.1248  0.4648
17455TIP3    H173780   5.049   5.022   3.612  0.4364  0.4754  0.3521
17455TIP3    H273781   5.161   5.033   3.713  0.1966 -1.1111  0.8088
17456TIP3   OH273782   7.122   4.441   4.495 -0.1569 -0.1469  0.1295
17456TIP3    H173783   7.081   4.402   4.418  0.4455 -0.6852  0.0703
17456TIP3    H273784   7.115   4.373   4.562  1.0177 -0.4226 -0.0109
17457TIP3   OH273785   0.692   2.278   1.969 -0.1304  0.1263  0.8069
17457TIP3    H173786   0.764   2.273   2.032  0.1315  1.3897  0.6152
17457TIP3    H273787   0.718   2.347   1.908 -1.1565  0.0669  0.2887
17458TIP3   OH273788   5.748   2.397   2.735  0.4207  0.8008 -0.0443
17458TIP3    H173789   5.725   2.488   2.753  1.2091  1.4274 -2.0929
17458TIP3    H273790   5.842   2.400   2.718  0.3661 -0.3335 -0.5474
17459TIP3   OH273791   0.486   0.397   5.265  0.7833  0.0105 -0.0877
17459TIP3    H173792   0.489   0.335   5.338  1.2413  0.2175  0.0681
17459TIP3    H273793   0.394   0.423   5.260  0.7045 -0.1901  0.2569
17460TIP3   OH273794   7.081   3.322   5.736 -0.6070  0.5787  0.7850
17460TIP3    H173795   7.019   3.288   5.800 -0.6154 -0.1619  0.3873
17460TIP3    H273796   7.028   3.376   5.677 -0.7010  0.7525  1.0238
17461TIP3   OH273797   2.512   1.710   3.522 -0.1750 -0.2080  0.2821
17461TIP3    H173798   2.478   1.755   3.445  2.8315 -0.8404 -1.5195
17461TIP3    H273799   2.471   1.623   3.519  2.1412 -1.3059 -2.4032
17462TIP3   OH273800   6.702   6.257   3.569 -0.0985 -0.1059 -0.0910
17462TIP3    H173801   6.664   6.171   3.550  0.6405 -0.6007  0.6355
17462TIP3    H273802   6.737   6.286   3.486 -0.0073 -0.6810 -0.2594
17463TIP3   OH273803   2.440   4.827   5.684 -0.0464 -0.6337  0.1037
17463TIP3    H173804   2.488   4.880   5.747 -1.5767 -0.0072  0.7855
17463TIP3    H273805   2.364   4.794   5.734 -0.1880 -1.7937 -0.8598
17464TIP3   OH273806   0.880   2.288   5.154  0.2530  0.1918 -0.1974
17464TIP3    H173807   0.793   2.258   5.126  1.2036 -0.8567 -2.1671
17464TIP3    H273808   0.894   2.245   5.239 -0.6715 -0.6018 -0.4384
17465TIP3   OH273809   4.470   2.624   5.332 -0.1388  0.3071 -0.1355
17465TIP3    H173810   4.475   2.627   5.428 -1.6082  0.3646 -0.0488
17465TIP3    H273811   4.408   2.693   5.309 -1.2593 -0.9499 -0.9829
17466TIP3   OH273812   6.467   2.274   4.747  0.4700 -0.4434 -0.1762
17466TIP3    H173813   6.385   2.225   4.751  0.3224 -0.2606 -0.9938
17466TIP3    H273814   6.483   2.300   4.838  0.9583 -2.6343  0.3915
17467TIP3   OH273815   5.818   3.362   5.252  0.1499 -0.0542  0.0740
17467TIP3    H173816   5.877   3.427   5.290 -0.1947 -0.2168  0.9087
17467TIP3    H273817   5.730   3.397   5.270 -0.0229 -0.3201 -0.2519
17468TIP3   OH273818   2.289   3.262   5.681  0.2413  0.1026 -0.4154
17468TIP3    H173819   2.310   3.190   5.741  1.0442  2.4953  2.2581
17468TIP3    H273820   2.196   3.277   5.693  0.8288  2.0676  1.9922
17469TIP3   OH273821   0.008   3.352   4.530  0.1319 -0.5163  0.0598
17469TIP3    H173822  -0.048   3.429   4.523  0.5697 -0.2171 -0.2273
17469TIP3    H273823  -0.052   3.278   4.532 -0.2907 -0.1690  0.2757
17470TIP3   OH273824   3.224   2.090   5.618  0.2603 -0.3152  0.4040
17470TIP3    H173825   3.299   2.147   5.603  0.3625 -0.6658 -0.4104
17470TIP3    H273826   3.197   2.062   5.531  0.4258 -1.7772  0.8022
17471TIP3   OH273827   6.271   1.102   3.152  1.0942  0.3108  0.2349
17471TIP3    H173828   6.248   1.021   3.198 -1.1883  0.9299  0.2549
17471TIP3    H273829   6.287   1.074   3.062  0.5473 -0.2137  0.2941
17472TIP3   OH273830   4.609   2.280   2.884 -0.8408  0.0345  0.3125
17472TIP3    H173831   4.521   2.318   2.889 -0.2098  1.5073  0.6444
17472TIP3    H273832   4.602   2.197   2.930 -2.1076  0.0633  0.1830
17473TIP3   OH273833   0.185   3.545   6.061  0.1711 -0.8126 -0.1910
17473TIP3    H173834   0.124   3.489   6.110  0.0109 -0.1895  0.3321
17473TIP3    H273835   0.270   3.502   6.073  0.5191  0.4872  2.5060
17474TIP3   OH273836   1.735   3.638   5.408  0.2176 -0.3724  0.1735
17474TIP3    H173837   1.644   3.666   5.406  0.1727 -0.5092  0.2728
17474TIP3    H273838   1.771   3.678   5.487 -0.1631 -1.5587  0.9639
17475TIP3   OH273839   0.468   2.976   4.874  0.0257  0.2463 -0.3966
17475TIP3    H173840   0.551   2.932   4.892  1.7450  2.8161 -1.7945
17475TIP3    H273841   0.440   2.940   4.789 -1.5360 -2.3346  1.1462
17476TIP3   OH273842   5.243   3.664   1.923  0.2116 -0.0069 -0.2609
17476TIP3    H173843   5.206   3.746   1.890  1.0939  0.1945 -0.7563
17476TIP3    H273844   5.288   3.626   1.848 -0.6568 -1.2262 -0.1839
17477TIP3   OH273845   1.705   4.182   4.137  0.4468 -0.5344  0.1964
17477TIP3    H173846   1.656   4.109   4.176  1.4483 -2.2331 -1.6382
17477TIP3    H273847   1.792   4.177   4.177  1.6263 -2.5697 -2.4444
17478TIP3   OH273848   1.645   2.567   4.762 -0.0121 -0.6879 -0.1204
17478TIP3    H173849   1.730   2.581   4.805 -0.6951 -1.4648  1.5182
17478TIP3    H273850   1.667   2.555   4.670  1.6037 -0.2293  0.1819
17479TIP3   OH273851   1.537   1.561   5.548 -0.0338  0.1541  0.3626
17479TIP3    H173852   1.611   1.579   5.606  0.7099  0.6336 -0.7149
17479TIP3    H273853   1.494   1.485   5.586  1.8369 -0.9872  0.2376
17480TIP3   OH273854   0.931   3.157   3.207 -0.7691 -1.2097 -0.5270
17480TIP3    H173855   0.960   3.066   3.213 -1.2651 -1.2788  1.0096
17480TIP3    H273856   1.001   3.208   3.247 -1.3726 -1.0944  0.3851
17481TIP3   OH273857   6.558   2.151   4.111 -0.4335  0.4586  0.0433
17481TIP3    H173858   6.611   2.077   4.082 -0.6042  0.3228  0.0803
17481TIP3    H273859   6.612   2.195   4.176 -1.0612 -0.6612  1.3352
17482TIP3   OH273860   2.689   2.763   2.180  0.0764  0.3519  0.5197
17482TIP3    H173861   2.721   2.808   2.258  1.1318 -0.6047  0.6526
17482TIP3    H273862   2.758   2.700   2.159 -2.1224 -2.4353  1.3513
17483TIP3   OH273863   1.528   3.646   4.491 -0.0530  0.1167  0.1009
17483TIP3    H173864   1.524   3.585   4.564  0.3732 -0.7578 -0.5876
17483TIP3    H273865   1.613   3.628   4.450 -0.9330 -0.5029 -1.5185
17484TIP3   OH273866   7.108   2.675   5.341  0.0120 -0.0093 -0.2454
17484TIP3    H173867   7.177   2.738   5.362 -2.0537  2.4971 -0.6573
17484TIP3    H273868   7.125   2.651   5.250  2.5475 -2.4078  0.8020
17485TIP3   OH273869   2.118   2.851   3.657 -0.5090 -0.2088 -0.0070
17485TIP3    H173870   2.176   2.923   3.681 -1.0023 -0.0334  0.6530
17485TIP3    H273871   2.176   2.787   3.615  0.3123 -0.4074  1.3928
17486TIP3   OH273872   0.523   5.523   3.981  0.5607 -0.2960  0.2594
17486TIP3    H173873   0.549   5.613   3.963  0.4156 -0.3479 -0.1989
17486TIP3    H273874   0.575   5.498   4.058  0.2627  0.3262  0.6615
17487TIP3   OH273875   0.373   4.207   4.222  0.1027  0.3380 -0.5239
17487TIP3    H173876   0.396   4.293   4.186 -0.0322  0.5964 -0.0014
17487TIP3    H273877   0.313   4.169   4.158 -1.8559  1.6979  0.4632
17488TIP3   OH273878   1.671   3.250   3.898  0.1224 -0.0174  0.2900
17488TIP3    H173879   1.728   3.191   3.847  0.5140 -0.2889  1.0370
17488TIP3    H273880   1.646   3.319   3.836 -0.5242 -1.0873 -0.6569
17489TIP3   OH273881   1.144   3.453   4.103 -0.2047 -0.1148  0.7660
17489TIP3    H173882   1.153   3.542   4.137 -0.3146  0.1088  0.2132
17489TIP3    H273883   1.110   3.464   4.014 -0.4247 -0.7175  0.7718
17490TIP3   OH273884   6.709   2.811   5.075 -0.3417 -0.7888  0.4421
17490TIP3    H173885   6.657   2.839   5.151  0.0567  0.8181  0.1361
17490TIP3    H273886   6.643   2.785   5.010 -0.7854  1.0450  0.1283
17491TIP3   OH273887   1.442   4.856   2.677  0.7009 -0.1336 -0.4256
17491TIP3    H173888   1.394   4.775   2.660 -1.7080  0.7182  1.9116
17491TIP3    H273889   1.447   4.899   2.592 -0.7092 -1.3297 -1.1421
17492TIP3   OH273890   1.355   1.733   3.858  0.5558 -0.4113 -0.2700
17492TIP3    H173891   1.448   1.753   3.865  0.6655 -0.5288 -1.2473
17492TIP3    H273892   1.351   1.655   3.802 -0.1433 -0.2574 -0.4476
17493TIP3   OH273893   2.418   1.853   3.823 -0.1857 -0.3172 -0.5847
17493TIP3    H173894   2.463   1.803   3.891  0.7892 -0.3514 -1.2371
17493TIP3    H273895   2.334   1.809   3.812 -0.3523 -0.3090  0.5912
17494TIP3   OH273896   0.340   3.003   2.502  0.2308  0.5097  0.3694
17494TIP3    H173897   0.277   3.029   2.435  0.5595 -1.0853 -0.5814
17494TIP3    H273898   0.308   3.045   2.582 -1.1323  1.0286 -0.4261
17495TIP3   OH273899   5.597   5.392   2.279 -0.0347  0.0241  0.3221
17495TIP3    H173900   5.648   5.458   2.326  2.1678 -1.0113 -0.5490
17495TIP3    H273901   5.561   5.336   2.348  0.0606  0.7524  0.9603
17496TIP3   OH273902   3.069   4.542   3.192 -0.6140 -0.0016 -0.6003
17496TIP3    H173903   3.144   4.591   3.158 -0.3732  0.5942  0.7292
17496TIP3    H273904   3.004   4.545   3.122 -0.5794  2.1999 -0.5755
17497TIP3   OH273905   0.269   4.245   5.228  0.0697  0.1528 -0.0648
17497TIP3    H173906   0.256   4.228   5.321  1.2412 -1.4002 -0.1671
17497TIP3    H273907   0.190   4.212   5.186 -0.7858  1.5260  0.4349
17498TIP3   OH273908   0.980   3.590   4.581 -0.0716 -0.1461  0.4417
17498TIP3    H173909   0.893   3.606   4.545 -0.6579  0.8754  2.2551
17498TIP3    H273910   1.024   3.675   4.575 -0.0906 -0.0247  1.8471
17499TIP3   OH273911   6.320   4.449   6.031  0.5518  0.2514  0.1802
17499TIP3    H173912   6.270   4.454   6.112  1.5589  0.7445  0.7843
17499TIP3    H273913   6.390   4.387   6.050  0.7339  0.2929 -0.3496
17500TIP3   OH273914   1.193   4.751   1.478  0.5003  0.0508  0.1388
17500TIP3    H173915   1.217   4.746   1.571 -0.2777 -0.0232  0.3391
17500TIP3    H273916   1.209   4.663   1.445 -0.0067 -0.1372  0.3972
17501TIP3   OH273917   0.590   1.448   6.123  0.6450  1.1107  0.1497
17501TIP3    H173918   0.585   1.378   6.058  0.9572  1.8803 -0.7097
17501TIP3    H273919   0.644   1.412   6.194 -0.9968 -0.2934  0.7060
17502TIP3   OH273920   6.764   4.978   6.114  0.2006  0.1953 -0.2809
17502TIP3    H173921   6.699   4.972   6.044  0.5899  0.3657 -0.6635
17502TIP3    H273922   6.810   5.060   6.097  0.8284 -0.1515 -0.2865
17503TIP3   OH273923   2.966   1.370   4.302 -0.0207 -0.0563 -0.3364
17503TIP3    H173924   2.945   1.291   4.350 -0.5804  0.5696  0.4583
17503TIP3    H273925   2.886   1.423   4.305  1.0020  1.4708  0.9785
17504TIP3   OH273926   1.148   2.803   2.545  0.0490 -0.0699  0.2202
17504TIP3    H173927   1.195   2.876   2.583 -0.5505  0.4016  0.0767
17504TIP3    H273928   1.097   2.842   2.473 -2.1778 -0.1800  1.6795
17505TIP3   OH273929   2.361   4.927   2.798 -0.2885  0.1982 -0.3253
17505TIP3    H173930   2.327   4.846   2.837 -1.0345  0.0826 -1.2031
17505TIP3    H273931   2.284   4.969   2.760  0.1906  1.0576 -0.3535
17506TIP3   OH273932   1.694   3.623   3.445  0.4527  0.1588  0.0312
17506TIP3    H173933   1.706   3.711   3.480  0.3077  0.0373  0.3941
17506TIP3    H273934   1.746   3.621   3.365 -1.3380  1.2941 -1.1990
17507TIP3   OH273935   0.836   1.482   3.986  0.0929 -0.5362 -0.2584
17507TIP3    H173936   0.918   1.451   4.025  0.5445 -1.0509 -1.5748
17507TIP3    H273937   0.781   1.505   4.060  0.4692 -2.6691  0.7175
17508TIP3   OH273938   5.877   2.939   1.393 -0.7271  0.1797 -0.4830
17508TIP3    H173939   5.802   2.932   1.452  0.8972 -2.1595  1.3929
17508TIP3    H273940   5.927   3.014   1.425 -0.7673 -0.0176  0.0405
17509TIP3   OH273941   4.103   5.357   1.955 -0.3915 -0.3909 -0.1671
17509TIP3    H173942   4.051   5.438   1.953 -2.2831 -1.5637 -0.2804
17509TIP3    H273943   4.037   5.287   1.962  1.2467 -1.8682  0.8961
17510TIP3   OH273944   6.478   4.802   3.219  0.4498 -0.4793 -0.1610
17510TIP3    H173945   6.516   4.823   3.134 -0.7397  1.9333 -0.1412
17510TIP3    H273946   6.544   4.831   3.283  0.4341 -0.2822 -0.2327
17511TIP3   OH273947   1.014   2.557   3.613  0.3782 -0.1317  0.1044
17511TIP3    H173948   1.068   2.478   3.619 -0.8779 -0.9876  0.2801
17511TIP3    H273949   0.936   2.529   3.566  0.8137  1.5055 -1.6520
17512TIP3   OH273950   1.104   2.667   6.128 -0.3382 -0.3702  0.3435
17512TIP3    H173951   1.085   2.741   6.186  1.5129 -0.0856  0.6199
17512TIP3    H273952   1.195   2.644   6.147  0.4215 -0.0676 -2.6657
17513TIP3   OH273953   2.313   2.109   3.131 -0.1363  0.4535  0.8656
17513TIP3    H173954   2.326   2.179   3.067 -0.1454 -0.8577 -0.5705
17513TIP3    H273955   2.309   2.029   3.080  0.4341 -0.6839  2.5530
17514TIP3   OH273956   6.911   2.719   4.896 -0.5034  0.5492 -0.4785
17514TIP3    H173957   6.851   2.747   4.965 -2.0329  2.2988 -2.4333
17514TIP3    H273958   6.979   2.786   4.894 -0.6558  0.6970 -0.8742
17515TIP3   OH273959   6.511   2.434   1.935  0.3733  0.2393  0.7033
17515TIP3    H173960   6.569   2.374   1.981 -0.7734  1.0552  3.3204
17515TIP3    H273961   6.433   2.382   1.916  0.0384  0.4288  1.5190
17516TIP3   OH273962   1.293   3.069   6.268 -0.5742 -0.0264 -0.5074
17516TIP3    H173963   1.349   2.992   6.271 -0.6618 -0.0799 -0.2862
17516TIP3    H273964   1.292   3.102   6.358 -0.9593 -0.0682 -0.4947
17517TIP3   OH273965   7.242   2.209   1.770 -0.0080 -0.0766  0.5681
17517TIP3    H173966   7.238   2.179   1.679  0.2781  0.8186  0.2605
17517TIP3    H273967   7.151   2.208   1.799 -0.1267 -0.1597  0.2043
17518TIP3   OH273968   0.939   2.447   3.885 -0.1614 -0.2376 -0.5109
17518TIP3    H173969   0.852   2.482   3.902  0.6740  1.7381 -0.1598
17518TIP3    H273970   0.968   2.492   3.805  1.2108  0.4664  0.3460
17519TIP3   OH273971   5.351   5.119   6.343 -0.2860 -0.4288  0.1156
17519TIP3    H173972   5.263   5.138   6.375 -0.5479  0.0590 -0.8791
17519TIP3    H273973   5.348   5.140   6.249  0.4233 -2.0019 -0.2732
17520TIP3   OH273974   2.078   3.006   5.785 -0.8681  0.3401  0.2265
17520TIP3    H173975   2.037   2.965   5.710 -1.6391  1.0874  0.2240
17520TIP3    H273976   2.059   3.100   5.774  1.8580  0.8698 -0.4070
17521TIP3   OH273977   6.630   3.970   2.461 -0.5467  0.0031  0.3331
17521TIP3    H173978   6.598   3.932   2.543  0.5472 -0.9093  0.3671
17521TIP3    H273979   6.724   3.950   2.461 -0.8354 -1.6745 -2.0046
17522TIP3   OH273980   1.238   4.422   5.956 -0.1153 -0.1591  0.4529
17522TIP3    H173981   1.234   4.372   6.037 -1.5152 -0.6080  0.1137
17522TIP3    H273982   1.217   4.359   5.887 -1.0113  0.6968 -0.0685
17523TIP3   OH273983   0.283   1.695   5.327 -0.0119 -0.5011 -0.9541
17523TIP3    H173984   0.302   1.652   5.411  0.7786 -1.1730 -1.4706
17523TIP3    H273985   0.202   1.742   5.343 -0.5680 -1.6802 -0.1793
17524TIP3   OH273986   3.728   1.347   3.604  0.5174 -0.4844  0.1289
17524TIP3    H173987   3.777   1.287   3.546 -0.1005 -0.1674 -0.7352
17524TIP3    H273988   3.642   1.354   3.563  0.4709  0.7047  0.4348
17525TIP3   OH273989   5.000   1.979   3.612  0.2969 -0.2207 -0.0125
17525TIP3    H173990   5.044   2.034   3.547  0.1882 -1.7559 -1.4202
17525TIP3    H273991   5.054   1.987   3.690  0.4960  1.5732 -0.3147
17526TIP3   OH273992   0.435   2.497   4.144  0.2815  0.2999  0.0582
17526TIP3    H173993   0.358   2.509   4.088  0.3008 -0.9433 -0.2398
17526TIP3    H273994   0.404   2.520   4.232 -0.4677 -0.3070 -0.0410
17527TIP3   OH273995   6.274   1.744   2.791 -0.6465  0.1473  0.5010
17527TIP3    H173996   6.280   1.728   2.697  0.2572 -1.3367  0.8031
17527TIP3    H273997   6.307   1.833   2.802  0.1380 -0.0109 -0.4739
17528TIP3   OH273998   6.263   0.156   1.081 -0.8583  0.7407  0.2119
17528TIP3    H173999   6.245   0.243   1.118  0.3786  1.1065 -0.0445
17528TIP3    H274000   6.312   0.111   1.150  0.4565  1.0278 -0.5244
17529TIP3   OH274001   1.855   1.391   2.871 -0.2469  0.2423 -0.0124
17529TIP3    H174002   1.948   1.377   2.887  0.0083  1.9081  0.0317
17529TIP3    H274003   1.847   1.485   2.856 -1.8822  0.0725 -0.2988
17530TIP3   OH274004   1.055   1.329   5.099 -0.2080  0.9096 -0.3920
17530TIP3    H174005   1.030   1.416   5.067 -1.2524  0.2739 -1.3231
17530TIP3    H274006   0.973   1.291   5.129 -0.0300 -0.4485 -1.6300
17531TIP3   OH274007   6.660   5.484   4.857 -0.3069  0.3577  0.3922
17531TIP3    H174008   6.687   5.423   4.924 -0.9804 -0.7410 -0.3185
17531TIP3    H274009   6.739   5.533   4.835  0.0935  0.1552  1.3894
17532TIP3   OH274010   5.863   4.097   4.695 -0.4206  0.2330  0.0779
17532TIP3    H174011   5.907   4.181   4.711 -0.7104  0.6773 -1.3499
17532TIP3    H274012   5.931   4.031   4.707  0.0582  0.7457  0.1882
17533TIP3   OH274013   0.893   2.226   2.165  0.2777 -0.1622 -0.1627
17533TIP3    H174014   0.968   2.207   2.222 -0.9433 -1.2439  1.1222
17533TIP3    H274015   0.841   2.146   2.167  0.7694 -0.6568 -3.7691
17534TIP3   OH274016   0.412   2.328   5.846 -0.0090  0.3678  0.0088
17534TIP3    H174017   0.467   2.325   5.768 -0.2390 -0.3015 -0.1289
17534TIP3    H274018   0.474   2.331   5.919  0.2099 -0.4270 -0.1418
17535TIP3   OH274019   7.016   3.998   4.832  0.1071 -0.1211  0.5356
17535TIP3    H174020   6.929   3.969   4.860 -0.2947  1.3113  0.8246
17535TIP3    H274021   7.009   4.005   4.737  0.2704 -1.1697  0.4470
17536TIP3   OH274022   2.247   0.847   1.725 -0.3787  0.0019  0.0543
17536TIP3    H174023   2.312   0.830   1.657 -1.4602  1.0800 -1.2881
17536TIP3    H274024   2.294   0.898   1.791  0.6471 -0.9512  0.0841
17537TIP3   OH274025   1.613   1.925   6.098 -0.2735  0.0936  0.3412
17537TIP3    H174026   1.605   1.866   6.023 -2.6540 -0.7250  1.1781
17537TIP3    H274027   1.693   1.897   6.142  0.8336  0.1936 -1.5259
17538TIP3   OH274028   1.711   4.949   3.446  0.0606 -0.2271  0.3443
17538TIP3    H174029   1.695   4.889   3.519  0.4613 -1.3590 -0.4867
17538TIP3    H274030   1.627   4.954   3.400  0.1396 -0.4815  0.1717
17539TIP3   OH274031   2.115   3.912   6.187  0.3023  0.0440 -0.0075
17539TIP3    H174032   2.126   3.970   6.111 -0.6031  1.8660  1.2034
17539TIP3    H274033   2.199   3.917   6.232  0.1645  0.5716  0.1954
17540TIP3   OH274034   7.097   4.608   3.499  0.4738  0.0308 -0.2815
17540TIP3    H174035   7.047   4.679   3.538 -0.9632 -0.7186 -0.7409
17540TIP3    H274036   7.101   4.628   3.406 -2.1024 -1.7454 -0.8205
17541TIP3   OH274037   5.325   2.228   4.420  0.4368  0.5743 -0.2783
17541TIP3    H174038   5.309   2.310   4.467 -1.1740  0.2911 -0.2852
17541TIP3    H274039   5.362   2.255   4.336 -0.3907  1.3186 -0.4099
17542TIP3   OH274040   2.046   4.695   5.592 -0.6302  0.6227 -0.1093
17542TIP3    H174041   1.973   4.677   5.532  0.2185 -0.0456 -0.9609
17542TIP3    H274042   2.010   4.677   5.678 -1.4105  0.0403 -0.5435
17543TIP3   OH274043   2.230   2.686   5.285  0.2802 -0.3854 -0.4257
17543TIP3    H174044   2.256   2.769   5.245 -0.5324  0.0776 -0.0230
17543TIP3    H274045   2.284   2.680   5.364 -3.8831  2.8681  2.9693
17544TIP3   OH274046   3.735   3.876   5.197 -0.3939  0.1310 -0.5022
17544TIP3    H174047   3.700   3.816   5.264 -1.8549 -1.7176 -2.8403
17544TIP3    H274048   3.683   3.955   5.206 -0.2983  0.0617  0.8024
17545TIP3   OH274049   4.093   7.152   5.613 -0.4524  0.4772  0.1991
17545TIP3    H174050   4.020   7.113   5.662  0.0121 -1.4321 -0.5697
17545TIP3    H274051   4.129   7.218   5.672 -3.1198  1.8314  0.4015
17546TIP3   OH274052   6.642   5.048   5.093 -0.0283 -0.3636 -0.0929
17546TIP3    H174053   6.690   4.965   5.085 -1.2398 -1.1233  0.3199
17546TIP3    H274054   6.552   5.026   5.070 -0.3265  0.8847 -0.1511
17547TIP3   OH274055   0.168   3.389   2.701 -0.4195  0.4474 -0.1846
17547TIP3    H174056   0.233   3.361   2.636  0.9282 -0.5756  1.5219
17547TIP3    H274057   0.206   3.468   2.740 -1.7466  1.6949 -1.3755
17548TIP3   OH274058   1.798   2.038   5.055 -0.2404 -0.1456 -0.7610
17548TIP3    H174059   1.745   2.075   4.984  1.0341 -0.0961 -1.7056
17548TIP3    H274060   1.859   1.978   5.011 -0.9681 -1.8866  0.5514
17549TIP3   OH274061   6.767   3.313   4.797  0.4185 -0.0939  0.1483
17549TIP3    H174062   6.675   3.335   4.785  0.4076  0.0673  0.5281
17549TIP3    H274063   6.766   3.229   4.844  0.4668  0.7318  1.6401
17550TIP3   OH274064   2.045   2.519   3.494 -0.6760  0.6111 -0.3262
17550TIP3    H174065   2.048   2.579   3.419 -0.9510 -0.9880 -1.6244
17550TIP3    H274066   1.982   2.560   3.554  0.9869  2.8964 -0.0625
17551TIP3   OH274067   0.410   0.807   4.393  0.1512 -0.0973  0.0457
17551TIP3    H174068   0.463   0.829   4.316  0.7219  0.2034  0.5170
17551TIP3    H274069   0.373   0.891   4.421 -2.7601 -0.6875 -1.8560
17552TIP3   OH274070   0.767   4.311   4.382 -0.4281  0.1856  0.4692
17552TIP3    H174071   0.851   4.354   4.393  0.0321 -0.6446  0.2012
17552TIP3    H274072   0.774   4.231   4.433 -1.4136  0.5917  1.2780
17553TIP3   OH274073   5.116   4.632   5.638 -0.6618 -0.0588  0.2545
17553TIP3    H174074   5.040   4.575   5.629 -0.8848 -0.0393  2.0204
17553TIP3    H274075   5.144   4.648   5.547 -1.7133 -1.4461 -0.3339
17554TIP3   OH274076   5.497   2.090   2.064 -0.4997 -0.3389 -0.9200
17554TIP3    H174077   5.431   2.057   2.126 -0.4522 -0.8489 -1.1417
17554TIP3    H274078   5.475   2.183   2.054  0.5115  0.1577  1.1625
17555TIP3   OH274079   0.678   1.319   5.495  0.2950 -0.0632  0.0447
17555TIP3    H174080   0.618   1.358   5.559  1.3130  2.0659 -0.2584
17555TIP3    H274081   0.740   1.268   5.548  0.7578  1.1833  0.7026
17556TIP3   OH274082   2.484   3.416   4.979  0.1394 -0.3811  0.0966
17556TIP3    H174083   2.467   3.417   5.074  3.0363 -3.5681  0.7196
17556TIP3    H274084   2.404   3.380   4.941 -0.3608 -0.7889  1.4914
17557TIP3   OH274085   6.567   2.867   2.708 -0.0614  0.0738  0.0902
17557TIP3    H174086   6.502   2.817   2.660  1.2965 -0.8144 -0.8549
17557TIP3    H274087   6.628   2.898   2.641  0.2080  1.3543  0.8965
17558TIP3   OH274088   6.425   1.998   2.823  0.1569  0.2269  0.7217
17558TIP3    H174089   6.464   2.082   2.849 -0.8362  1.4627 -1.6144
17558TIP3    H274090   6.498   1.936   2.827  1.8106  1.9513 -1.0028
17559TIP3   OH274091   2.637   3.976   5.257 -0.0081 -0.1942  0.0533
17559TIP3    H174092   2.660   3.955   5.348  1.2529 -0.1203 -0.2357
17559TIP3    H274093   2.654   3.896   5.209  0.5676  0.1585 -0.3306
17560TIP3   OH274094   6.981   3.275   4.472  0.0362  0.1009 -0.0834
17560TIP3    H174095   6.895   3.233   4.487  0.0964 -0.0629 -0.2023
17560TIP3    H274096   7.014   3.234   4.393  0.9991 -1.0949  0.9112
17561TIP3   OH274097   2.376   4.827   1.929  0.7274 -0.6466  0.0446
17561TIP3    H174098   2.320   4.885   1.981  1.6761  0.2324  0.1149
17561TIP3    H274099   2.424   4.775   1.994  0.3334 -1.0685 -0.0029
17562TIP3   OH274100   2.289   2.617   4.991  0.3984  0.3308  0.5114
17562TIP3    H174101   2.256   2.700   5.025  1.9775 -0.3273  3.9092
17562TIP3    H274102   2.378   2.636   4.962  0.4407  0.0515  0.4518
17563TIP3   OH274103   6.366   6.505   4.581 -0.2829  0.5579 -0.0630
17563TIP3    H174104   6.430   6.507   4.652 -0.0714 -0.1640 -0.2285
17563TIP3    H274105   6.410   6.455   4.511 -0.5431  1.1369 -0.6398
17564TIP3   OH274106   2.499   1.122   0.601  0.1420 -0.4804 -0.5894
17564TIP3    H174107   2.539   1.207   0.618 -2.0817  0.3753  0.6310
17564TIP3    H274108   2.557   1.080   0.538  2.5265  0.9805  0.5489
17565TIP3   OH274109   6.887   5.966   5.708  0.0226 -0.1928 -0.3503
17565TIP3    H174110   6.975   5.956   5.744 -0.7400 -0.3185  1.5224
17565TIP3    H274111   6.838   5.890   5.742 -0.1707 -1.4956 -3.3839
17566TIP3   OH274112   6.849   3.477   2.215  0.0238 -0.1817 -0.3629
17566TIP3    H174113   6.923   3.473   2.275 -0.8552  1.3586  0.8540
17566TIP3    H274114   6.846   3.568   2.186 -0.5149 -0.5585 -1.5338
17567TIP3   OH274115   1.027   4.401   5.759 -0.5741 -0.3847 -0.2214
17567TIP3    H174116   0.940   4.405   5.798 -0.8678 -1.3938 -0.7446
17567TIP3    H274117   1.042   4.307   5.743  0.9914 -0.3247  0.7426
17568TIP3   OH274118   6.117   4.651   5.303  0.5884 -0.4147 -0.1509
17568TIP3    H174119   6.036   4.702   5.294  0.9343  0.3256  0.8303
17568TIP3    H274120   6.153   4.677   5.388  2.5495  0.2494 -1.1507
17569TIP3   OH274121   3.519   6.102   5.342  0.1468 -0.0690 -0.1330
17569TIP3    H174122   3.527   6.017   5.386 -1.1964 -0.7206 -1.1099
17569TIP3    H274123   3.595   6.106   5.284  1.2439  0.2381  1.3012
17570TIP3   OH274124   2.123   4.785   5.012  0.2642  0.7106  0.1351
17570TIP3    H174125   2.154   4.705   4.971  0.1697  0.3804  0.6929
17570TIP3    H274126   2.159   4.782   5.101  0.9953  1.7174 -0.1137
17571TIP3   OH274127   0.243   4.037  15.635 -0.1847 -0.1320 -0.1084
17571TIP3    H174128   0.279   3.948  15.632 -0.4495 -0.1967 -2.6375
17571TIP3    H274129   0.149   4.025  15.625 -0.0748  0.5080 -2.0610
17572TIP3   OH274130   3.094   0.832   3.266  0.4221  0.2990  0.1098
17572TIP3    H174131   3.100   0.808   3.174  1.2553  0.0939  0.2119
17572TIP3    H274132   3.036   0.765   3.304  1.1421 -0.4043 -0.0061
17573TIP3   OH274133   0.377   3.202   6.480 -0.1688  0.0813  0.1141
17573TIP3    H174134   0.308   3.266   6.462  1.3402  1.4481 -0.9209
17573TIP3    H274135   0.332   3.117   6.478 -1.7721  0.9303 -0.8410
17574TIP3   OH274136   0.950   4.504   2.851  0.4689  0.4659 -0.4002
17574TIP3    H174137   1.031   4.485   2.899 -0.3656  2.8822  2.0118
17574TIP3    H274138   0.961   4.456   2.768  3.7182 -0.4447  0.4661
17575TIP3   OH274139   5.678   2.102   3.897  0.2156  0.4361  0.1321
17575TIP3    H174140   5.688   2.068   3.987  1.2078 -0.4308 -0.2910
17575TIP3    H274141   5.665   2.023   3.844  0.9525  0.8387 -0.6573
17576TIP3   OH274142   6.012   6.275   0.989  0.2794 -0.0286  0.3471
17576TIP3    H174143   6.011   6.266   0.894  0.6078 -1.2801  0.4544
17576TIP3    H274144   6.100   6.308   1.009  0.2305  0.1776  0.2261
17577TIP3   OH274145   1.216   2.261   5.534 -0.1058 -0.1976  0.1571
17577TIP3    H174146   1.288   2.255   5.472  0.2658 -0.3986  0.6060
17577TIP3    H274147   1.242   2.205   5.608 -0.1672  0.6843  0.8607
17578TIP3   OH274148   4.321   3.350   1.119  0.0857  0.2294 -0.3463
17578TIP3    H174149   4.305   3.403   1.041 -2.8105 -0.3449 -0.1789
17578TIP3    H274150   4.342   3.263   1.084 -1.0165  0.0215 -0.5100
17579TIP3   OH274151   1.077   2.993   5.984  0.0625  0.4869 -0.2260
17579TIP3    H174152   1.066   2.918   6.042  2.3530 -0.0740 -0.4694
17579TIP3    H274153   0.991   3.003   5.942 -0.0096 -2.6504 -0.9720
17580TIP3   OH274154   0.683   3.187   5.202 -0.1637  0.1215  0.1180
17580TIP3    H174155   0.660   3.263   5.148 -2.1446 -0.3915  0.2205
17580TIP3    H274156   0.605   3.170   5.254  0.6230 -1.3780  0.8193
17581TIP3   OH274157   4.417   3.116   1.003 -0.3478 -0.3548 -0.0422
17581TIP3    H174158   4.491   3.056   1.007 -1.1427 -1.3985 -0.7182
17581TIP3    H274159   4.415   3.146   0.912  0.4180  1.1800  0.4376
17582TIP3   OH274160   0.523   4.848   2.980  0.9809 -0.1919 -0.1743
17582TIP3    H174161   0.442   4.802   2.959  0.9221  0.2688 -0.9788
17582TIP3    H274162   0.533   4.912   2.909  1.3840  0.5999  0.5921
17583TIP3   OH274163   6.317   2.889   4.999  0.2383  0.3068 -0.1053
17583TIP3    H174164   6.374   2.955   4.958  0.0592  1.1664  1.0019
17583TIP3    H274165   6.277   2.935   5.073  0.8943 -1.3424  1.3156
17584TIP3   OH274166   3.045   2.936   5.232  0.1617  0.4971 -0.7163
17584TIP3    H174167   3.119   2.970   5.282  1.6840 -1.9801 -1.2464
17584TIP3    H274168   2.971   2.940   5.294  0.8974  2.1418  0.0955
17585TIP3   OH274169   1.331   2.834   4.171 -0.1740  0.0900  0.2317
17585TIP3    H174170   1.316   2.763   4.109  0.0008 -1.4922  1.9328
17585TIP3    H274171   1.259   2.896   4.156 -0.7658 -0.8241 -0.7484
17586TIP3   OH274172   1.381   5.387   5.964 -0.0374 -0.1883 -0.0088
17586TIP3    H174173   1.303   5.424   5.923 -0.8554 -1.0644  0.7464
17586TIP3    H274174   1.454   5.436   5.924 -0.9395  0.4595 -0.9007
17587TIP3   OH274175   2.425   3.628   4.057  0.4113 -0.1039 -0.5068
17587TIP3    H174176   2.386   3.687   3.992 -1.3761  0.7943  1.3521
17587TIP3    H274177   2.387   3.542   4.038 -0.9519  0.3747  0.0287
17588TIP3   OH274178   6.576   6.518   4.047  0.2807  0.2694  0.0937
17588TIP3    H174179   6.565   6.601   4.001 -1.8542 -0.7030 -1.2170
17588TIP3    H274180   6.523   6.527   4.126 -1.3201 -0.4487 -0.8835
17589TIP3   OH274181   2.787   1.318   5.288  0.0694 -0.1061 -0.7748
17589TIP3    H174182   2.836   1.241   5.319 -2.2518 -0.5980  1.9212
17589TIP3    H274183   2.854   1.382   5.266  1.9799 -1.1787  1.6959
17590TIP3   OH274184   7.163   5.763   4.972  0.5445  0.3042  0.2529
17590TIP3    H174185   7.201   5.840   5.013 -0.1382  1.7241 -1.7347
17590TIP3    H274186   7.224   5.740   4.902  0.5534 -0.7626  0.5883
17591TIP3   OH274187   4.022   1.435   5.097 -0.3005 -0.0399  0.0350
17591TIP3    H174188   4.098   1.490   5.115  0.0957 -0.5791  0.0436
17591TIP3    H274189   4.060   1.355   5.059 -0.8320 -0.4516  0.3667
17592TIP3   OH274190   4.603   5.519   4.359  0.3897  0.1650 -0.2275
17592TIP3    H174191   4.663   5.593   4.354 -0.2660  0.8986  1.8080
17592TIP3    H274192   4.615   5.485   4.448 -1.0214 -0.6700 -0.3340
17593TIP3   OH274193   5.313   4.740   1.879  0.1070  0.0245 -0.6179
17593TIP3    H174194   5.378   4.708   1.942 -0.1207  0.3318 -0.2241
17593TIP3    H274195   5.326   4.686   1.801  0.0787 -0.6687 -0.1394
17594TIP3   OH274196   3.114   5.450   5.526  0.2025 -0.3741  0.4130
17594TIP3    H174197   3.032   5.500   5.521  1.6444  1.8579 -1.3396
17594TIP3    H274198   3.183   5.516   5.527  2.0281 -2.2436  1.7217
17595TIP3   OH274199   1.442   4.040   4.150  0.3672  0.1840 -0.4439
17595TIP3    H174200   1.468   4.108   4.087  1.0793 -0.9111 -1.3581
17595TIP3    H274201   1.361   4.073   4.189  1.0258  1.8324 -0.4457
17596TIP3   OH274202   0.615   2.452   3.637  0.1148 -0.0687  0.5295
17596TIP3    H174203   0.561   2.374   3.634 -1.6433  1.1288  0.0942
17596TIP3    H274204   0.553   2.524   3.653  1.6684  1.2445  0.8293
17597TIP3   OH274205   0.583   2.306   5.061  0.1744 -0.2672  0.5781
17597TIP3    H174206   0.524   2.254   5.007  0.1143 -0.3737  0.7477
17597TIP3    H274207   0.648   2.339   4.999  0.3418 -0.7234  0.5085
17598TIP3   OH274208   4.548   2.382   4.002 -0.8196  0.4371  0.1457
17598TIP3    H174209   4.501   2.465   4.014  0.0197  1.1219 -1.2283
17598TIP3    H274210   4.532   2.358   3.911 -0.5062 -0.5734  0.3542
17599TIP3   OH274211   0.837   5.436   4.552  0.2236 -0.0039  0.4076
17599TIP3    H174212   0.909   5.390   4.509 -0.4456 -1.3082  0.6497
17599TIP3    H274213   0.871   5.524   4.567  0.8499  0.1691 -1.7879
17600TIP3   OH274214   4.319   1.802   3.984 -0.1574  0.2082 -0.0540
17600TIP3    H174215   4.389   1.862   3.957  0.7146 -0.0495  1.5143
17600TIP3    H274216   4.347   1.716   3.952  1.3359 -0.2553  2.3623
17601TIP3   OH274217   4.135   1.593   4.792  0.1520 -0.0244 -1.3899
17601TIP3    H174218   4.098   1.626   4.874  2.0882 -0.9020 -0.1082
17601TIP3    H274219   4.086   1.513   4.774 -0.2485  0.1425 -1.0424
17602TIP3   OH274220   3.522   4.967   3.498 -0.5540 -0.2245  0.0422
17602TIP3    H174221   3.437   4.957   3.540 -0.5945 -0.0819 -0.0042
17602TIP3    H274222   3.580   4.997   3.568 -0.4937 -0.5277  0.1216
17603TIP3   OH274223   7.087   2.442   5.810  0.4497 -0.4085  0.5534
17603TIP3    H174224   7.131   2.404   5.886  0.5112 -1.8186 -0.1775
17603TIP3    H274225   6.996   2.451   5.836  0.6019 -0.2360  1.0283
17604TIP3   OH274226   1.720   1.757   4.289  0.3076 -0.7882  0.1899
17604TIP3    H174227   1.746   1.758   4.197  0.0531 -0.3243  0.1224
17604TIP3    H274228   1.625   1.748   4.287  0.2463 -0.2302  0.3963
17605TIP3   OH274229   0.442   3.930   4.347  0.2406  0.8506  0.1874
17605TIP3    H174230   0.365   3.877   4.365  0.5047 -0.1703 -1.5827
17605TIP3    H274231   0.408   4.007   4.301  0.4470 -0.5341 -2.3648
17606TIP3   OH274232   4.992   1.723   3.165  0.0578 -0.0218 -0.0035
17606TIP3    H174233   5.084   1.718   3.136  0.3754  0.4679  0.9056
17606TIP3    H274234   4.953   1.642   3.133  0.5885  0.1692 -1.1589
17607TIP3   OH274235   3.413   2.921   5.304 -0.0857 -0.1411  0.0753
17607TIP3    H174236   3.364   2.956   5.378 -0.9452  0.0411 -0.5762
17607TIP3    H274237   3.474   2.990   5.280 -0.6247  0.2683 -0.1352
17608TIP3   OH274238   5.939   0.870   3.993 -0.4950  0.5425  0.7785
17608TIP3    H174239   5.949   0.849   4.085 -2.6535  1.7440  1.3210
17608TIP3    H274240   5.956   0.964   3.987 -1.4927  0.6913  0.1608
17609TIP3   OH274241   1.452   2.936   6.054 -0.7214  1.0950  0.1471
17609TIP3    H174242   1.434   2.892   6.137 -0.7527  0.4754 -0.1826
17609TIP3    H274243   1.537   2.902   6.026 -1.1865  0.5093 -0.5811
17610TIP3   OH274244   0.800   2.751   5.843  0.8059 -0.0050  0.0911
17610TIP3    H174245   0.773   2.745   5.751 -2.5239  0.2094  0.9730
17610TIP3    H274246   0.820   2.843   5.857  1.1277 -0.0046 -0.3733
17611TIP3   OH274247   3.322   0.248   4.609 -0.1847  0.3549 -0.6003
17611TIP3    H174248   3.347   0.295   4.689 -1.3693  1.2362 -0.7268
17611TIP3    H274249   3.234   0.215   4.628 -1.0314  1.7223 -2.0063
17612TIP3   OH274250   1.200   3.275   4.324  0.2822  0.7003  0.0315
17612TIP3    H174251   1.295   3.283   4.327  0.2851  0.3145  1.6658
17612TIP3    H274252   1.172   3.338   4.259  1.4188  3.2353  1.9076
17613TIP3   OH274253   1.610   0.308   5.271  0.4051  0.1783  0.2159
17613TIP3    H174254   1.579   0.258   5.195  1.6931  0.3437 -0.4341
17613TIP3    H274255   1.666   0.246   5.319 -0.9996 -0.1615  1.4487
17614TIP3   OH274256   7.276   4.089   4.886 -0.1524 -0.1582  0.5321
17614TIP3    H174257   7.195   4.075   4.837  0.0427  0.5390 -0.0010
17614TIP3    H274258   7.262   4.043   4.969 -0.9107 -0.4348  0.2584
17615TIP3   OH274259   2.417   2.695   5.514  0.1200 -0.1377 -0.0555
17615TIP3    H174260   2.383   2.748   5.587  3.3132  0.1097  1.3410
17615TIP3    H274261   2.459   2.620   5.556 -0.2743 -1.3751 -1.8136
17616TIP3   OH274262   5.909   1.554   3.583 -0.4578  0.4501  0.3099
17616TIP3    H174263   5.910   1.605   3.664 -1.4333  0.0141  0.6067
17616TIP3    H274264   5.831   1.584   3.536 -0.1812  0.3329 -0.2285
17617TIP3   OH274265   2.113   2.143   3.368 -0.6572  0.1588  0.0957
17617TIP3    H174266   2.170   2.093   3.310  0.7401  0.2976  1.3148
17617TIP3    H274267   2.116   2.233   3.334  0.0317  0.2070  0.2827
17618TIP3   OH274268   4.167   4.457   3.693 -0.2627 -0.1366  0.4924
17618TIP3    H174269   4.078   4.432   3.666 -0.1581 -0.9685  0.8908
17618TIP3    H274270   4.221   4.441   3.616 -0.6639  1.6284 -0.1761
17619TIP3   OH274271   5.580   2.218   2.863 -0.4070  0.4105 -0.7707
17619TIP3    H174272   5.516   2.288   2.877  0.9228  1.5433 -0.2696
17619TIP3    H274273   5.660   2.264   2.835  0.7522 -0.8323  0.4566
17620TIP3   OH274274   6.251   2.854   4.652 -0.4239 -0.1946 -0.2957
17620TIP3    H174275   6.331   2.880   4.606 -1.2518  3.0697 -0.0042
17620TIP3    H274276   6.183   2.856   4.584 -0.6261 -1.0136 -0.1220
17621TIP3   OH274277   2.532   2.740   4.878  0.0309 -0.3824 -1.1866
17621TIP3    H174278   2.518   2.759   4.786 -0.2349  1.5827 -0.7610
17621TIP3    H274279   2.623   2.763   4.894 -0.8491  2.6355 -0.1936
17622TIP3   OH274280   0.154   3.967   5.188 -0.6026 -0.3241  0.0108
17622TIP3    H174281   0.082   3.935   5.133 -0.2599 -0.2884 -0.4627
17622TIP3    H274282   0.115   3.978   5.275 -1.8411  2.1355 -0.8089
17623TIP3   OH274283   6.976   3.697   5.084 -0.1590 -0.4351  0.0308
17623TIP3    H174284   6.980   3.648   5.002  0.3629  2.7439 -1.8785
17623TIP3    H274285   6.895   3.748   5.078 -0.8554 -1.2340  2.1352
17624TIP3   OH274286   1.630   3.429   5.750 -0.0113  0.5395 -0.0802
17624TIP3    H174287   1.722   3.453   5.740  0.7625 -2.6057 -0.9308
17624TIP3    H274288   1.590   3.451   5.666  0.8497 -1.6352 -1.1106
17625TIP3   OH274289   4.640   3.128   3.087 -0.3510  0.2952  0.3849
17625TIP3    H174290   4.613   3.157   3.175  0.3120 -0.8778  0.9885
17625TIP3    H274291   4.570   3.069   3.059 -0.7996  1.0448 -0.0800
17626TIP3   OH274292   3.230   4.147   3.026 -0.1079 -0.2461 -0.3347
17626TIP3    H174293   3.271   4.070   2.986 -1.6407 -1.1208 -0.2510
17626TIP3    H274294   3.175   4.183   2.956  0.1323  0.4221 -0.1809
17627TIP3   OH274295   3.207   3.843   3.140  0.1502  0.3048  0.2594
17627TIP3    H174296   3.291   3.807   3.167 -0.2500 -0.3048  0.6980
17627TIP3    H274297   3.178   3.893   3.217  0.1551  0.5906  0.0753
17628TIP3   OH274298   6.845   4.147   5.804  0.4880 -0.6894 -0.2357
17628TIP3    H174299   6.794   4.161   5.883 -0.1656 -2.7847 -0.2322
17628TIP3    H274300   6.890   4.230   5.788 -0.6092  0.2437  1.4284
17629TIP3   OH274301   4.299   0.811   3.814  0.1199 -0.3837  1.3187
17629TIP3    H174302   4.308   0.848   3.901  0.7116  0.8669  0.7430
17629TIP3    H274303   4.247   0.876   3.766 -2.2008 -2.1184  1.3651
17630TIP3   OH274304   4.031   2.862   5.564  0.3102  0.6197 -0.2363
17630TIP3    H174305   4.012   2.951   5.592 -2.0965  0.2942 -0.7164
17630TIP3    H274306   4.062   2.818   5.643  1.6847  1.8977 -0.0324
17631TIP3   OH274307   6.498   4.515   5.741  0.1049 -0.4233 -0.1328
17631TIP3    H174308   6.523   4.603   5.768 -1.2714 -0.2970  0.7387
17631TIP3    H274309   6.582   4.472   5.721  0.7742  1.1084 -0.7336
17632TIP3   OH274310   1.967   2.495   2.865 -0.2386 -0.1712  0.4804
17632TIP3    H174311   2.055   2.527   2.885 -1.1504  3.0364 -0.3683
17632TIP3    H274312   1.915   2.520   2.941 -0.6348 -1.2091  0.5575
17633TIP3   OH274313   0.845   2.640   4.348 -0.6486  0.2503 -0.5720
17633TIP3    H174314   0.838   2.544   4.351 -1.2577  0.2180 -2.4307
17633TIP3    H274315   0.934   2.658   4.376 -0.3908 -0.8975 -0.6136
17634TIP3   OH274316   0.622   4.293   4.849 -0.0379  0.4153  0.0231
17634TIP3    H174317   0.589   4.231   4.914 -0.1567  1.5342  1.0411
17634TIP3    H274318   0.550   4.302   4.786  1.1900 -3.0619 -2.0625
17635TIP3   OH274319   2.794   2.261   4.595 -0.0307  0.0221 -0.0361
17635TIP3    H174320   2.817   2.173   4.623 -0.0646  0.3001  0.8954
17635TIP3    H274321   2.744   2.297   4.668 -0.2859  0.6976 -0.5409
17636TIP3   OH274322   5.527   7.133   4.485 -0.4411  0.1378 -0.5713
17636TIP3    H174323   5.440   7.143   4.447 -0.3613  2.0339 -0.3230
17636TIP3    H274324   5.526   7.046   4.525 -2.2470  0.1618 -0.5065
17637TIP3   OH274325   6.398   1.360   3.173  0.2077  0.1307 -0.3007
17637TIP3    H174326   6.367   1.407   3.095  0.6797 -1.7143 -1.6541
17637TIP3    H274327   6.379   1.268   3.154  0.6718 -0.3838  1.6265
17638TIP3   OH274328   6.606   6.351   5.419 -0.4424  0.1289 -0.0936
17638TIP3    H174329   6.601   6.341   5.514 -0.6612  0.6235 -0.0528
17638TIP3    H274330   6.517   6.372   5.392 -0.3025  0.3900 -0.3608
17639TIP3   OH274331   0.279   4.662   5.482 -0.3735  0.3692 -0.3864
17639TIP3    H174332   0.360   4.625   5.447 -0.2762  0.8752 -0.6902
17639TIP3    H274333   0.248   4.721   5.414 -0.5061  0.8924  0.1273
17640TIP3   OH274334   1.090   6.198   5.933  0.6090  0.3230 -0.0782
17640TIP3    H174335   1.050   6.121   5.973  2.0744 -1.0401 -1.1794
17640TIP3    H274336   1.173   6.209   5.979  1.4869 -0.1889 -1.5104
17641TIP3   OH274337   7.234   4.462   2.558  0.6879 -0.8060  0.0007
17641TIP3    H174338   7.178   4.397   2.516  1.4789 -0.8540 -0.9887
17641TIP3    H274339   7.175   4.509   2.618  0.2289 -2.7977  1.1677
17642TIP3   OH274340   5.183   2.714   2.842  0.0122 -0.1762  0.0034
17642TIP3    H174341   5.114   2.770   2.877  0.5151 -0.8084  2.1358
17642TIP3    H274342   5.157   2.625   2.867  1.8170 -0.3721  1.3005
17643TIP3   OH274343   0.412   3.581   5.190  0.5686 -0.4605  0.7248
17643TIP3    H174344   0.455   3.656   5.231  0.4689 -0.7343  1.3305
17643TIP3    H274345   0.435   3.507   5.246  1.2156 -0.9916 -0.2473
17644TIP3   OH274346   1.684   5.968   4.646  0.0486 -0.2220  0.7661
17644TIP3    H174347   1.750   5.905   4.615 -1.9001 -1.4684 -0.9370
17644TIP3    H274348   1.686   5.959   4.741  0.1128 -2.5936  0.5822
17645TIP3   OH274349   1.131   4.720   5.304  0.1911 -0.3086  0.2247
17645TIP3    H174350   1.136   4.625   5.315  0.7064 -0.3312 -0.2079
17645TIP3    H274351   1.200   4.754   5.361  0.1001 -0.2007  0.2710
17646TIP3   OH274352   1.033   1.040   6.534 -0.0205  0.0288 -0.4458
17646TIP3    H174353   0.985   0.983   6.475  0.5273  0.2309 -1.1019
17646TIP3    H274354   1.053   0.985   6.610 -1.8859  0.1555  0.1462
17647TIP3   OH274355   1.282   2.817   4.938  0.5661  0.2320  0.0683
17647TIP3    H174356   1.371   2.851   4.928  0.5716 -0.1454 -1.3405
17647TIP3    H274357   1.293   2.734   4.985  1.2224 -0.9596 -2.1196
17648TIP3   OH274358   0.751   0.653   4.876  0.6819 -0.3766 -0.5621
17648TIP3    H174359   0.746   0.713   4.950  1.4240 -1.3906  0.3271
17648TIP3    H274360   0.724   0.568   4.911  0.1837 -0.6866 -1.6624
17649TIP3   OH274361   6.893   4.850   5.151 -0.0090 -0.4503 -0.2053
17649TIP3    H174362   6.969   4.860   5.207  0.4172 -1.3604 -0.6010
17649TIP3    H274363   6.856   4.765   5.176 -0.6674 -0.1876 -0.2812
17650TIP3   OH274364   2.950   4.412   5.009 -1.2986 -0.9381 -0.5709
17650TIP3    H174365   2.964   4.405   4.914 -1.4406 -1.1781 -0.5731
17650TIP3    H274366   3.014   4.351   5.047 -0.1263  0.3412 -0.4348
17651TIP3   OH274367   6.329   3.332   3.124 -0.2553  0.5211 -0.1055
17651TIP3    H174368   6.371   3.406   3.168 -0.3798  0.9166 -0.6492
17651TIP3    H274369   6.236   3.354   3.123 -0.2855  0.3793 -0.3193
17652TIP3   OH274370   2.626   5.554   4.488 -0.2650  0.1495  0.3253
17652TIP3    H174371   2.562   5.578   4.422  1.4310  0.1732 -1.3602
17652TIP3    H274372   2.627   5.458   4.487  0.9135  0.1481 -0.8907
17653TIP3   OH274373   1.096   5.757   5.812 -0.6190  0.5127  0.0101
17653TIP3    H174374   1.117   5.816   5.885  0.6149  1.4543 -1.0934
17653TIP3    H274375   1.161   5.687   5.819 -1.2717 -0.0510  0.5386
17654TIP3   OH274376   2.356   4.156   3.904  0.1181  0.2097 -0.2098
17654TIP3    H174377   2.386   4.244   3.882 -0.7276  1.2209  2.4322
17654TIP3    H274378   2.429   4.118   3.954 -0.3540  0.2220  0.5000
17655TIP3   OH274379   5.309   4.887   5.438  0.0541 -0.6727 -0.1342
17655TIP3    H174380   5.235   4.916   5.492  2.4876 -0.6199  3.3080
17655TIP3    H274381   5.350   4.968   5.409 -0.7088 -0.7096 -1.3672
17656TIP3   OH274382   3.768   2.937   4.171  0.0881  0.5363  0.1508
17656TIP3    H174383   3.829   2.953   4.242 -0.0807  0.3755  0.3337
17656TIP3    H274384   3.788   3.004   4.106  0.3464  0.5857  0.2830
17657TIP3   OH274385   3.722   2.676   3.572  0.6924  0.0949 -0.3553
17657TIP3    H174386   3.794   2.636   3.621  0.0184 -1.0308 -0.2859
17657TIP3    H274387   3.724   2.633   3.487 -0.0120 -0.0649 -0.2909
17658TIP3   OH274388   2.650   4.295   4.087 -0.2835 -0.4819 -0.2474
17658TIP3    H174389   2.577   4.244   4.123  0.5260 -0.7049  1.1329
17658TIP3    H274390   2.631   4.302   3.993 -1.8235 -0.9479  0.0137
17659TIP3   OH274391   4.755   1.927   5.956  0.0527  0.0524 -0.2669
17659TIP3    H174392   4.767   1.845   5.906 -0.1076 -1.0493  1.4591
17659TIP3    H274393   4.677   1.912   6.009 -1.4637  2.3095 -1.7623
17660TIP3   OH274394   1.310   4.868   5.499  0.1892  0.2553  0.4496
17660TIP3    H174395   1.381   4.867   5.564 -0.8433  1.8442  1.6569
17660TIP3    H274396   1.344   4.922   5.428  1.0767 -0.9496 -0.0559
17661TIP3   OH274397   4.267   2.438   4.598 -0.3448  0.4197 -0.2885
17661TIP3    H174398   4.309   2.424   4.513  1.2935  0.5443  0.4863
17661TIP3    H274399   4.176   2.409   4.585 -0.3735  1.3016 -2.3403
17662TIP3   OH274400   4.864   2.353   5.503 -0.0225  0.5295  0.0936
17662TIP3    H174401   4.800   2.283   5.499 -1.7099  1.9495  1.3605
17662TIP3    H274402   4.814   2.430   5.530  2.0799  1.8493  0.3713
17663TIP3   OH274403   0.663   2.747   3.757  0.2001  0.0862 -0.1464
17663TIP3    H174404   0.618   2.685   3.700  1.3482  0.8968 -1.9667
17663TIP3    H274405   0.696   2.694   3.829 -0.5351 -1.0866 -0.6538
17664TIP3   OH274406   4.850   2.470   5.877 -0.0477 -0.2069  0.3237
17664TIP3    H174407   4.832   2.386   5.919 -1.5019  0.1618  0.4605
17664TIP3    H274408   4.764   2.503   5.852  0.6216  0.6771 -0.8253
17665TIP3   OH274409   0.316   3.573   3.347  0.4941 -0.0390 -0.6783
17665TIP3    H174410   0.363   3.547   3.426  2.5362 -0.0278 -1.8539
17665TIP3    H274411   0.273   3.493   3.317  0.9695 -0.3986 -0.4043
17666TIP3   OH274412   2.364   2.428   6.023  0.1971  0.0891 -0.0881
17666TIP3    H174413   2.389   2.429   5.931  3.0171 -0.7629  0.6113
17666TIP3    H274414   2.286   2.372   6.026 -1.2598  1.9239 -2.2135
17667TIP3   OH274415   0.381   3.873   3.723 -0.4324  0.3681 -0.0504
17667TIP3    H174416   0.357   3.884   3.816  0.1249  0.7100  0.0532
17667TIP3    H274417   0.389   3.779   3.712  0.9367  0.3955  0.6183
17668TIP3   OH274418   0.973   3.088   3.741 -0.2378 -0.5778  0.3678
17668TIP3    H174419   0.967   2.999   3.707  1.7583 -0.8121  0.5784
17668TIP3    H274420   0.888   3.127   3.721 -0.6878 -2.1267 -0.8534
17669TIP3   OH274421   2.821   4.612   4.196 -0.4219 -0.3902  0.5770
17669TIP3    H174422   2.820   4.543   4.262 -2.1657 -0.6220  0.3449
17669TIP3    H274423   2.736   4.605   4.153  0.7241 -0.2985 -1.7778
17670TIP3   OH274424   6.783   3.162   5.508 -0.2000  0.9217 -0.5795
17670TIP3    H174425   6.768   3.097   5.440 -0.5436  0.9648 -0.5462
17670TIP3    H274426   6.762   3.115   5.590 -3.2479  1.8929 -0.7329
17671TIP3   OH274427   1.506   3.353   4.320 -0.2224 -0.0230 -0.8458
17671TIP3    H174428   1.492   3.343   4.415  0.8357  3.2864 -0.2584
17671TIP3    H274429   1.456   3.432   4.298 -0.5338 -0.8323 -3.0860
17672TIP3   OH274430   2.933   3.885   4.353  0.0848  0.4977  0.4421
17672TIP3    H174431   2.973   3.969   4.331 -2.6710  2.0056  0.9898
17672TIP3    H274432   2.937   3.834   4.272  0.8929  1.5198 -0.1585
17673TIP3   OH274433   2.719   1.099   3.746 -0.0351  0.1164  0.6914
17673TIP3    H174434   2.644   1.151   3.717  0.5093  1.2074  1.1999
17673TIP3    H274435   2.695   1.067   3.833  0.1432  0.5904  0.9173
17674TIP3   OH274436   0.345   0.799   4.748  0.3864 -0.1412 -0.2634
17674TIP3    H174437   0.363   0.779   4.839  1.2094  0.0365 -0.3914
17674TIP3    H274438   0.320   0.715   4.710  0.5793 -0.3145 -0.0059
17675TIP3   OH274439   4.557   3.611   3.643  0.1745  0.3723  0.4269
17675TIP3    H174440   4.572   3.668   3.719  0.8444 -0.2079  0.7368
17675TIP3    H274441   4.536   3.670   3.572 -2.4562  0.8420  1.5196
17676TIP3   OH274442   2.005   2.891   5.522  0.5172  0.5717 -0.1313
17676TIP3    H174443   1.913   2.889   5.497  0.3227 -2.1274  0.6228
17676TIP3    H274444   2.047   2.945   5.455 -1.4723  1.1784 -0.9174
17677TIP3   OH274445   1.004   2.827   2.276  0.3509 -0.1561  0.2400
17677TIP3    H174446   1.063   2.781   2.217 -0.1478 -0.7097  0.1589
17677TIP3    H274447   0.929   2.768   2.285  0.2468  0.1061  1.1063
17678TIP3   OH274448   4.282   6.701   5.190 -0.9604 -0.3798  0.0926
17678TIP3    H174449   4.314   6.711   5.100 -0.7491 -3.1610 -0.1708
17678TIP3    H274450   4.188   6.688   5.181 -1.3217  1.8193  0.4705
17679TIP3   OH274451   3.247   3.516   5.532 -0.0965 -0.5603  0.1334
17679TIP3    H174452   3.269   3.499   5.624  0.5799 -0.8387 -0.0826
17679TIP3    H274453   3.189   3.444   5.508 -2.9848  1.2609  1.3093
17680TIP3   OH274454   1.136   3.264   1.174  0.3303 -0.7147  0.9353
17680TIP3    H174455   1.067   3.287   1.236 -0.0230 -0.3603  0.4111
17680TIP3    H274456   1.144   3.169   1.181 -1.4566 -0.9825 -0.2907
17681TIP3   OH274457   3.243   6.148   5.145 -0.4011 -0.6718 -0.3440
17681TIP3    H174458   3.239   6.152   5.241 -1.2781 -1.3821 -0.3446
17681TIP3    H274459   3.299   6.073   5.127  0.4501 -0.0393 -0.3982
17682TIP3   OH274460   4.373   4.285   3.562  0.5581  0.9542  0.7587
17682TIP3    H174461   4.414   4.357   3.609  2.7563  0.8191 -0.8623
17682TIP3    H274462   4.434   4.212   3.571 -0.7205 -0.1403  0.7547
17683TIP3   OH274463   2.675   2.073   5.963  0.4898  0.4240 -0.0987
17683TIP3    H174464   2.634   1.998   5.920  0.0394  0.1812  0.7411
17683TIP3    H274465   2.711   2.038   6.045  1.2843  0.8931 -0.2430
17684TIP3   OH274466   1.423   3.778   3.762  0.0538  0.3134  0.2028
17684TIP3    H174467   1.404   3.828   3.842 -0.5619  0.8369 -0.2597
17684TIP3    H274468   1.460   3.696   3.793 -2.6393 -0.5938  1.1700
17685TIP3   OH274469   3.262   3.915   4.967  0.4169 -0.1680 -0.0782
17685TIP3    H174470   3.315   3.846   4.927 -1.0016 -0.5837 -1.2761
17685TIP3    H274471   3.253   3.888   5.058  1.3497 -0.6400 -0.1146
17686TIP3   OH274472   2.002   3.107   2.703  0.0321  0.1743 -0.8294
17686TIP3    H174473   2.016   3.067   2.618 -0.1300 -2.7360  0.4537
17686TIP3    H274474   2.062   3.060   2.762  0.1948  2.1725  0.6676
17687TIP3   OH274475   3.415   2.214   1.947 -0.6271  0.1095 -0.1184
17687TIP3    H174476   3.447   2.215   2.037  0.5102 -0.7823 -0.4939
17687TIP3    H274477   3.456   2.291   1.907  0.9857 -0.9381 -0.5531
17688TIP3   OH274478   7.031   2.704   4.600 -0.2110  0.8771  0.4776
17688TIP3    H174479   7.025   2.797   4.582 -0.8463  0.4378 -1.7133
17688TIP3    H274480   7.107   2.696   4.659  0.4497  2.6609 -0.0983
17689TIP3   OH274481   0.544   0.736   5.489 -0.0245 -0.2317  0.4867
17689TIP3    H174482   0.605   0.664   5.472 -2.6011 -1.7507 -2.9573
17689TIP3    H274483   0.559   0.798   5.417 -1.2810  0.2313  0.6034
17690TIP3   OH274484   1.892   1.275   3.292 -0.0811  0.3140  0.3511
17690TIP3    H174485   1.882   1.333   3.216  1.3043 -0.4529 -0.4405
17690TIP3    H274486   1.964   1.314   3.342 -1.6696  1.3993  1.8475
17691TIP3   OH274487   3.090   5.410   4.462 -0.3801 -0.3402  0.5294
17691TIP3    H174488   3.156   5.358   4.416 -0.4749  0.4588 -0.5387
17691TIP3    H274489   3.036   5.447   4.392  0.4547  2.2149  1.2024
17692TIP3   OH274490   1.802   2.701   4.417  0.0333  0.0319  0.2819
17692TIP3    H174491   1.732   2.673   4.476 -1.3075  0.8005 -0.9512
17692TIP3    H274492   1.761   2.711   4.332  1.2096  2.3617 -0.0677
17693TIP3   OH274493   3.807   3.972   3.015 -0.0587 -0.5784 -0.1538
17693TIP3    H174494   3.797   3.877   3.014  0.3370 -0.7522  3.7596
17693TIP3    H274495   3.726   4.005   3.052  1.1817  0.3002  1.8880
17694TIP3   OH274496   3.974   4.926   5.557  0.2762  0.2048 -0.5930
17694TIP3    H174497   4.027   4.848   5.542  1.2778  0.9214 -0.8652
17694TIP3    H274498   3.945   4.918   5.648  1.9177  0.4168 -0.0332
17695TIP3   OH274499   4.642   4.090   2.017 -0.0394 -0.1054  0.2707
17695TIP3    H174500   4.555   4.123   2.038 -0.6470 -1.5240  0.0396
17695TIP3    H274501   4.685   4.081   2.102 -0.2359  0.2999  0.4129
17696TIP3   OH274502   1.890   4.925   3.199 -0.2598 -0.3707  1.0618
17696TIP3    H174503   1.811   4.958   3.158  0.0320 -0.5331  0.3697
17696TIP3    H274504   1.884   4.955   3.290 -0.0864  1.4247  0.4954
17697TIP3   OH274505   2.599   4.685   5.443  0.2028 -0.1866 -0.2491
17697TIP3    H174506   2.620   4.778   5.442  0.6270 -0.2686  0.4732
17697TIP3    H274507   2.515   4.678   5.489 -0.2559 -0.0796 -1.0677
17698TIP3   OH274508   2.170   2.590   4.733  0.5117 -0.1035 -0.4482
17698TIP3    H174509   2.181   2.586   4.828  2.1638 -0.6108 -0.6361
17698TIP3    H274510   2.259   2.581   4.698  0.1816  2.0408 -1.9970
17699TIP3   OH274511   2.933   4.299   3.401  0.1581 -0.0352 -0.2472
17699TIP3    H174512   2.992   4.373   3.416 -1.0196  0.9853 -0.4984
17699TIP3    H274513   2.893   4.317   3.316  0.3552 -1.3128 -0.6194
17700TIP3   OH274514   2.788   5.568   3.622  0.4879 -0.3484 -0.4107
17700TIP3    H174515   2.849   5.581   3.695  0.8285 -2.4354 -0.2964
17700TIP3    H274516   2.827   5.497   3.571 -0.4705  0.1468 -1.8602
17701TIP3   OH274517   3.895   2.005   5.649  0.0886 -0.3628 -0.5633
17701TIP3    H174518   3.828   1.947   5.614  1.2447 -1.7939 -0.4158
17701TIP3    H274519   3.978   1.965   5.624  0.9041  0.8848  0.0874
17702TIP3   OH274520   4.366   6.011   3.997  0.2243 -0.0577 -0.0130
17702TIP3    H174521   4.271   6.013   4.009  0.3404  2.1809  0.6808
17702TIP3    H274522   4.399   6.083   4.051  2.4334 -1.5415  0.7029
17703TIP3   OH274523   4.079   6.153   3.856  0.1585  0.5331  0.0449
17703TIP3    H174524   4.085   6.074   3.803  0.8834  1.0904 -0.7029
17703TIP3    H274525   3.989   6.153   3.888 -0.6630  0.8544 -2.2093
17704TIP3   OH274526   4.021   2.203   3.483 -0.4698  0.0361 -0.0747
17704TIP3    H174527   4.004   2.289   3.445 -0.0224 -0.0522 -0.4821
17704TIP3    H274528   4.062   2.222   3.567  1.4389  0.2146 -1.0258
17705TIP3   OH274529   5.832   4.558   5.459  0.2852  0.2877  0.8550
17705TIP3    H174530   5.840   4.626   5.392  0.3744  0.4358  1.0152
17705TIP3    H274531   5.896   4.583   5.526 -0.2275  0.4668  1.2810
17706TIP3   OH274532   6.129   3.420   3.451  0.1969  0.3236 -0.2027
17706TIP3    H174533   6.151   3.373   3.371  0.0228 -0.3341  0.1308
17706TIP3    H274534   6.039   3.448   3.439 -0.3923 -1.2367  0.4492
17707TIP3   OH274535   2.376   2.698   6.063 -0.4754 -0.0443  0.7353
17707TIP3    H174536   2.379   2.606   6.036 -2.3512  0.8904 -3.1043
17707TIP3    H274537   2.466   2.720   6.085  0.5734 -2.0288 -1.3450
17708TIP3   OH274538   0.664   1.716   6.208 -0.4929  0.7032  0.0314
17708TIP3    H174539   0.751   1.692   6.174 -0.8534  0.0144 -0.4296
17708TIP3    H274540   0.610   1.639   6.191 -1.5105  1.5913 -0.8468
17709TIP3   OH274541   3.570   1.340   4.103  0.4444  0.6692 -0.0144
17709TIP3    H174542   3.619   1.328   4.022  0.4085 -1.0283  0.1939
17709TIP3    H274543   3.627   1.304   4.171  0.0455  1.1516  0.5815
17710TIP3   OH274544   0.296   2.208   3.750 -0.1641  0.4236  0.5565
17710TIP3    H174545   0.363   2.238   3.688 -0.5980  1.2473  0.4767
17710TIP3    H274546   0.216   2.204   3.697 -0.3215  0.1180  0.8198
17711TIP3   OH274547   7.058   4.320   5.962  0.0600  0.1867  0.1226
17711TIP3    H174548   7.093   4.249   6.015  1.0852 -0.3876 -1.3073
17711TIP3    H274549   7.133   4.376   5.944 -0.4707  0.8919  0.0929
17712TIP3   OH274550   2.808   2.246   6.240  1.0808  0.9391 -0.4152
17712TIP3    H174551   2.809   2.167   6.186 -0.2028 -0.7166  1.8530
17712TIP3    H274552   2.736   2.299   6.206 -0.7792 -0.8434  0.6355
17713TIP3   OH274553   5.831   2.928   2.260  1.0797 -0.3258  0.3621
17713TIP3    H174554   5.813   2.965   2.174 -0.7791 -2.1390 -0.0783
17713TIP3    H274555   5.794   2.990   2.322 -1.3862 -1.0144 -0.3378
17714TIP3   OH274556   3.969   4.026   5.557  0.1166  0.0518  0.8003
17714TIP3    H174557   3.980   4.027   5.652 -1.7890 -0.0575  1.0421
17714TIP3    H274558   3.928   3.941   5.539 -0.7430  0.6221  0.0378
17715TIP3   OH274559   3.946   5.323   2.822 -0.4020  0.0191 -0.7201
17715TIP3    H174560   4.034   5.341   2.788 -0.2814  2.1584  0.6070
17715TIP3    H274561   3.961   5.275   2.904 -0.4698  0.0197 -0.7071
17716TIP3   OH274562   2.096   2.716   6.158  0.1577  0.3905 -0.5359
17716TIP3    H174563   2.064   2.643   6.104 -0.3248  0.2125 -0.0151
17716TIP3    H274564   2.190   2.719   6.140  0.3194 -0.8591  0.0221
17717TIP3   OH274565   4.962   0.552   4.790 -0.3706  0.1901  0.3327
17717TIP3    H174566   4.919   0.612   4.729 -0.1377  0.1863  0.1610
17717TIP3    H274567   5.036   0.517   4.740  0.4077  0.9450  0.9446
17718TIP3   OH274568   7.213   4.675   1.535  0.1591  0.1831  0.4400
17718TIP3    H174569   7.207   4.739   1.606 -0.9012  1.1051 -0.4542
17718TIP3    H274570   7.288   4.704   1.483 -0.4963  0.8867 -0.1278
17719TIP3   OH274571   6.800   3.069   4.560  0.1535 -0.4928 -0.0447
17719TIP3    H174572   6.827   2.985   4.522  0.1025 -0.8921  0.7826
17719TIP3    H274573   6.749   3.045   4.637  0.7181  0.3033  0.5829
17720TIP3   OH274574   1.304   3.282   5.005  0.1581  0.3013  0.5853
17720TIP3    H174575   1.268   3.370   5.018  0.7810  0.6198  0.2134
17720TIP3    H274576   1.242   3.223   5.047 -0.2742  0.9239  0.8160
17721TIP3   OH274577   1.384   0.871   4.648  0.4442 -0.3070  0.3374
17721TIP3    H174578   1.424   0.829   4.572  0.4377  0.0064  0.1597
17721TIP3    H274579   1.390   0.965   4.629 -1.1718 -0.2732 -0.0999
17722TIP3   OH274580   2.280   2.902   0.813  0.5406 -0.1520  0.1856
17722TIP3    H174581   2.224   2.951   0.753 -1.0463  0.2264  1.9025
17722TIP3    H274582   2.241   2.814   0.816 -0.0717  0.1459  1.4794
17723TIP3   OH274583   4.746   3.919   4.332 -0.2485  0.3480 -0.4898
17723TIP3    H174584   4.816   3.854   4.345  1.7166  2.7658  1.5047
17723TIP3    H274585   4.741   3.929   4.237  2.5506  0.5070 -0.6695
17724TIP3   OH274586   3.497   0.759   4.570 -0.0247  0.3071 -0.0868
17724TIP3    H174587   3.521   0.666   4.564  1.0132  0.5851 -0.2873
17724TIP3    H274588   3.553   0.793   4.639 -0.2249  0.8468 -0.1907
17725TIP3   OH274589   1.099   1.292   0.893 -0.8891  0.3144 -0.1168
17725TIP3    H174590   1.086   1.386   0.878  0.5780  0.3679 -1.1699
17725TIP3    H274591   1.122   1.286   0.985 -2.5595  0.8016  0.3624
17726TIP3   OH274592   6.237   3.928   3.987  0.1783 -0.0344 -0.3042
17726TIP3    H174593   6.272   3.910   3.900  1.5597  0.8670  0.0655
17726TIP3    H274594   6.313   3.937   4.043 -0.4711  4.1921  0.0784
17727TIP3   OH274595   6.489   6.283   5.648  0.5141  0.5140  0.0563
17727TIP3    H174596   6.415   6.322   5.695  0.2133  0.0672 -0.0406
17727TIP3    H274597   6.487   6.191   5.672 -1.1188 -0.2347 -2.6876
17728TIP3   OH274598   3.564   4.081   5.262 -0.4949 -0.0964 -0.4323
17728TIP3    H174599   3.517   4.119   5.189 -0.5813 -0.4343 -0.5550
17728TIP3    H274600   3.512   4.103   5.339 -2.1992 -2.5609 -0.8110
17729TIP3   OH274601   2.384   0.751   5.440 -0.7385 -0.5106 -0.0353
17729TIP3    H174602   2.300   0.705   5.443 -0.6394 -0.6231  1.6487
17729TIP3    H274603   2.395   0.786   5.529  0.7734 -0.1054 -0.3686
17730TIP3   OH274604   4.336   4.295   5.079 -0.2017 -0.3174  0.2807
17730TIP3    H174605   4.347   4.342   5.162 -1.2814 -0.2808  0.4075
17730TIP3    H274606   4.425   4.278   5.050  0.1997  0.5720  0.9419
17731TIP3   OH274607   4.252   4.981   4.663 -0.0276 -0.8842 -0.0838
17731TIP3    H174608   4.197   4.911   4.698 -1.2660  0.4541  0.7558
17731TIP3    H274609   4.253   5.047   4.733 -0.4265  0.7260 -1.5735
17732TIP3   OH274610   5.799   5.928   2.401  0.1426 -0.4838  0.5917
17732TIP3    H174611   5.713   5.958   2.372  0.6018 -0.1018 -0.3895
17732TIP3    H274612   5.828   5.868   2.333  2.4341  2.5408 -1.2664
17733TIP3   OH274613   4.517   1.132   4.028 -0.5499 -0.2140  0.0283
17733TIP3    H174614   4.512   1.160   3.937  1.1012  1.3737  0.4010
17733TIP3    H274615   4.460   1.192   4.075 -2.0393 -1.5373 -0.0419
17734TIP3   OH274616   3.267   2.667   6.073 -0.2810 -0.2735 -0.4152
17734TIP3    H174617   3.182   2.654   6.116 -0.4011 -0.0919 -0.5898
17734TIP3    H274618   3.281   2.762   6.077 -0.9364 -0.0870 -1.9525
17735TIP3   OH274619   2.652   4.337   4.516 -0.0132  0.3170 -0.2338
17735TIP3    H174620   2.677   4.383   4.596 -0.6736 -0.4031  0.3931
17735TIP3    H274621   2.711   4.262   4.511  2.0268  1.9845 -2.0170
17736TIP3   OH274622   1.627   0.745   6.165  0.0103 -0.5415 -0.0937
17736TIP3    H174623   1.581   0.691   6.229  0.2583 -0.1008  0.4604
17736TIP3    H274624   1.667   0.682   6.105 -0.1056 -0.9658  0.2688
17737TIP3   OH274625   1.255   3.841   5.538 -0.1381  0.0995 -0.1466
17737TIP3    H174626   1.285   3.902   5.605  0.8719  0.2183 -0.6874
17737TIP3    H274627   1.274   3.754   5.574 -0.1029  0.1500 -0.0435
17738TIP3   OH274628   0.689   1.645   5.111  0.1688 -0.3315  0.8924
17738TIP3    H174629   0.709   1.595   5.032 -0.9804  1.8313 -0.8362
17738TIP3    H274630   0.759   1.709   5.117 -0.6962  0.6460  0.6155
17739TIP3   OH274631   4.020   2.610   4.797 -0.0526 -0.3226  0.1453
17739TIP3    H174632   3.951   2.646   4.854  0.9072  0.0102  1.1122
17739TIP3    H274633   3.997   2.517   4.788  0.5807 -0.7228  2.3115
17740TIP3   OH274634   5.849   2.828   3.609 -0.5447  0.2208 -0.6071
17740TIP3    H174635   5.803   2.893   3.556  1.9584  0.6660 -2.3563
17740TIP3    H274636   5.884   2.878   3.683 -2.6273 -0.0772  0.5984
17741TIP3   OH274637   4.120   3.772   4.238 -0.0869  0.2681  0.2235
17741TIP3    H174638   4.079   3.716   4.304 -1.6361 -0.5469 -1.3906
17741TIP3    H274639   4.213   3.749   4.242 -0.4868 -1.3977  0.5625
17742TIP3   OH274640   2.797   3.517   6.465  0.4935 -0.8879 -0.1953
17742TIP3    H174641   2.795   3.527   6.370  0.6198  0.2946 -0.0800
17742TIP3    H274642   2.811   3.423   6.479 -1.1670 -1.3176 -1.3233
17743TIP3   OH274643   4.858   4.142   3.650  0.1897 -0.1536  0.2700
17743TIP3    H174644   4.921   4.178   3.712 -1.2663 -0.2711  1.8671
17743TIP3    H274645   4.859   4.047   3.667  1.3348 -0.4529 -1.3775
17744TIP3   OH274646   0.762   2.579   2.870 -0.6513 -0.2400 -0.0279
17744TIP3    H174647   0.720   2.500   2.902 -0.6133  0.1890  1.1138
17744TIP3    H274648   0.845   2.549   2.833 -0.2644 -0.6335  1.1486
17745TIP3   OH274649   2.116   1.069   3.579 -0.6413  0.6578  0.3204
17745TIP3    H174650   2.105   0.980   3.547 -0.1928  0.3493  1.0106
17745TIP3    H274651   2.037   1.115   3.549 -1.1444 -0.1124  0.4422
17746TIP3   OH274652   5.098   3.056   4.027 -0.0057  0.8421 -0.3792
17746TIP3    H174653   5.135   3.140   4.001 -0.1431  1.5855  1.7506
17746TIP3    H274654   5.017   3.078   4.074 -0.9557 -0.5682 -1.3040
17747TIP3   OH274655   2.216   0.758   5.157 -0.9450  0.4935 -0.0363
17747TIP3    H174656   2.153   0.721   5.096  2.3462 -2.7094 -1.7209
17747TIP3    H274657   2.214   0.698   5.232  0.2548  0.1960 -0.2334
17748TIP3   OH274658   5.213   4.794   3.595 -0.1875  0.2075  0.4561
17748TIP3    H174659   5.135   4.838   3.560 -0.7787  0.6143  2.2297
17748TIP3    H274660   5.259   4.861   3.645  0.9169 -0.2271  0.0342
17749TIP3   OH274661   0.733   4.313   5.183 -0.0854  0.1773 -0.7146
17749TIP3    H174662   0.720   4.315   5.278  2.4689  1.1809 -0.3467
17749TIP3    H274663   0.646   4.295   5.147 -1.1886  0.3358  1.7794
17750TIP3   OH274664   2.374   1.995   4.709 -0.0392  0.2070 -0.0959
17750TIP3    H174665   2.431   2.038   4.772  1.3238 -0.2891 -0.9633
17750TIP3    H274666   2.379   2.049   4.631  0.9655 -0.9951 -0.8875
17751TIP3   OH274667   0.473   2.574   4.709  0.1076  0.1546  0.0932
17751TIP3    H174668   0.399   2.513   4.712  1.6270 -1.6469  1.7058
17751TIP3    H274669   0.513   2.559   4.623  0.2742 -0.9040  0.3481
17752TIP3   OH274670   5.409   3.246   5.162 -0.5882 -0.3529 -0.2758
17752TIP3    H174671   5.326   3.236   5.115 -0.5644  2.0994 -0.8941
17752TIP3    H274672   5.408   3.336   5.194  2.1986 -0.0451 -0.9443
17753TIP3   OH274673   1.903   4.184   5.374 -0.4121 -0.2388 -0.2574
17753TIP3    H174674   1.934   4.237   5.447 -1.7422 -2.4792  2.0291
17753TIP3    H274675   1.974   4.122   5.358 -0.5843 -0.4993 -0.0393
17754TIP3   OH274676   4.319   5.207   5.366  0.7837 -0.2783  0.4609
17754TIP3    H174677   4.288   5.145   5.432 -2.3442  0.2311 -0.4772
17754TIP3    H274678   4.273   5.182   5.286  0.3554  2.5040 -0.2133
17755TIP3   OH274679   5.167   3.479   5.931  0.4916 -0.3702 -0.0060
17755TIP3    H174680   5.084   3.504   5.891  2.2019  0.1285 -3.3792
17755TIP3    H274681   5.180   3.387   5.906  0.5158 -0.7522  1.3378
17756TIP3   OH274682   0.235   3.080   2.743 -0.0560 -0.1841 -0.5779
17756TIP3    H174683   0.272   3.063   2.830 -2.3121 -2.7746 -0.0546
17756TIP3    H274684   0.175   3.153   2.756  0.2258 -0.0250 -0.1406
17757TIP3   OH274685   2.908   1.090   2.958  0.1117 -0.3636 -0.4081
17757TIP3    H174686   3.000   1.099   2.933  0.6381  0.1509  1.6767
17757TIP3    H274687   2.865   1.167   2.921  0.8670  0.3607  0.2220
17758TIP3   OH274688   7.105   0.380   3.584  0.7353 -0.2895  0.2121
17758TIP3    H174689   7.038   0.380   3.652  0.1124  0.5084 -0.3944
17758TIP3    H274690   7.106   0.291   3.550  0.4848 -0.4822  0.7213
17759TIP3   OH274691   0.716   1.091   4.958 -0.4690 -0.0332  0.4457
17759TIP3    H174692   0.630   1.116   4.924 -0.3066 -0.0790  0.0011
17759TIP3    H274693   0.753   1.034   4.891  0.7056  1.5370 -0.2918
17760TIP3   OH274694   2.718   0.255   6.104 -0.1216  0.3883  0.6231
17760TIP3    H174695   2.776   0.329   6.084  0.8253 -1.1545 -2.4468
17760TIP3    H274696   2.777   0.184   6.129 -0.9058 -0.0739  1.1836
17761TIP3   OH274697   1.557   2.250   5.357 -0.0384 -0.0097 -0.8045
17761TIP3    H174698   1.485   2.311   5.341 -2.4934 -2.5008  0.3808
17761TIP3    H274699   1.542   2.218   5.446  1.8532 -1.5094 -0.9908
17762TIP3   OH274700   4.787   3.591   2.326 -0.4253 -0.3785  0.0215
17762TIP3    H174701   4.791   3.496   2.341 -0.0436 -0.2293  0.8930
17762TIP3    H274702   4.768   3.628   2.412  0.9763  0.4419 -0.0027
17763TIP3   OH274703   4.459   0.872   3.266  0.9380  0.3330 -0.7443
17763TIP3    H174704   4.400   0.835   3.201  0.1348  1.2696 -0.5511
17763TIP3    H274705   4.403   0.925   3.322  1.5083 -0.9331  1.0865
17764TIP3   OH274706   3.762   2.496   5.179  0.5644 -0.4442  0.2434
17764TIP3    H174707   3.673   2.483   5.211  0.0213  1.7433 -0.3096
17764TIP3    H274708   3.813   2.519   5.257  0.5080 -0.9923  0.4459
17765TIP3   OH274709   5.586   1.268   5.277 -0.0461  0.3080  0.4227
17765TIP3    H174710   5.610   1.178   5.296  1.6049  0.6692  0.2287
17765TIP3    H274711   5.493   1.274   5.297  0.0042 -1.2257  1.1791
17766TIP3   OH274712   2.548   3.441   2.074 -0.2568  0.4977  0.4521
17766TIP3    H174713   2.491   3.420   2.148  0.7494  0.8612  1.3455
17766TIP3    H274714   2.556   3.537   2.077  1.0207  0.3847  0.8081
17767TIP3   OH274715   0.279   5.369   4.656 -0.3097  0.6762 -0.2698
17767TIP3    H174716   0.317   5.439   4.710 -0.4830  1.3865 -1.0701
17767TIP3    H274717   0.355   5.321   4.621 -0.1835  0.8680 -0.2568
17768TIP3   OH274718   4.799   4.773   4.609 -0.1963 -0.7392  0.1904
17768TIP3    H174719   4.893   4.786   4.610 -0.2702  0.1002 -1.8150
17768TIP3    H274720   4.785   4.702   4.546 -0.8679 -1.0955  0.7342
17769TIP3   OH274721   2.016   1.922   6.149 -0.4753  0.3214  0.0080
17769TIP3    H174722   1.996   1.923   6.055  0.6273  0.2419 -0.2396
17769TIP3    H274723   1.939   1.882   6.190 -1.7385  2.0289 -0.6660
17770TIP3   OH274724   0.290   5.469   3.845  0.0436 -0.6675 -0.0132
17770TIP3    H174725   0.293   5.565   3.840 -0.8079 -0.5452  1.6800
17770TIP3    H274726   0.380   5.443   3.864  0.1044 -0.1621  0.3751
17771TIP3   OH274727   2.807   0.154   1.253 -0.2778  0.4823 -0.3050
17771TIP3    H174728   2.753   0.141   1.175 -1.0641 -0.8281  0.4347
17771TIP3    H274729   2.895   0.126   1.228  0.5315  4.1930 -2.0395
17772TIP3   OH274730   3.828   5.180   3.361  0.5031 -0.5703 -0.7668
17772TIP3    H174731   3.817   5.153   3.452  1.8755 -0.3864 -0.5284
17772TIP3    H274732   3.771   5.121   3.311  0.9566 -1.7352  0.0556
17773TIP3   OH274733   2.491   3.759   3.662  0.1974 -0.1021 -0.0421
17773TIP3    H174734   2.464   3.700   3.592  0.5155 -1.1333  0.6993
17773TIP3    H274735   2.418   3.820   3.673 -0.5113 -0.9346 -0.1775
17774TIP3   OH274736   0.411   1.493   2.050 -0.2298 -0.1993 -0.3215
17774TIP3    H174737   0.391   1.463   1.962 -2.5147  0.0553  0.0763
17774TIP3    H274738   0.460   1.574   2.038  0.0513 -0.5221 -1.3577
17775TIP3   OH274739   1.113   4.720   4.558 -0.1088 -0.1694  0.2873
17775TIP3    H174740   1.194   4.754   4.520  0.8171 -0.1702  2.2147
17775TIP3    H274741   1.065   4.798   4.588  0.5368 -0.3339  1.7896
17776TIP3   OH274742   3.800   2.803   5.386 -0.1211 -0.2267 -0.0551
17776TIP3    H174743   3.880   2.784   5.435  0.6325  2.2859 -0.1963
17776TIP3    H274744   3.775   2.720   5.347  0.7303 -1.7213  2.4485
17777TIP3   OH274745   3.056   3.648   6.182  0.7431 -0.7278 -0.5584
17777TIP3    H174746   2.993   3.577   6.196 -0.9015  0.5275 -1.4626
17777TIP3    H274747   3.040   3.710   6.253  0.5808 -0.1372 -1.1059
17778TIP3   OH274748   3.094   6.940   4.484  0.0449  0.3138  0.1348
17778TIP3    H174749   3.035   6.992   4.538 -0.6388 -1.0878  0.7510
17778TIP3    H274750   3.060   6.950   4.395 -2.6368 -2.4374  0.7824
17779TIP3   OH274751   5.662   5.927   5.022  0.3955  0.5022 -0.1648
17779TIP3    H174752   5.678   5.833   5.030  0.0597  0.3104 -1.6416
17779TIP3    H274753   5.702   5.952   4.939 -1.5233  1.2005 -0.9053
17780TIP3   OH274754   4.341   3.125   5.487  0.1239 -0.5556 -0.5236
17780TIP3    H174755   4.250   3.152   5.499  0.9331  1.9000  0.4173
17780TIP3    H274756   4.375   3.116   5.576  0.4753 -2.7691 -0.8445
17781TIP3   OH274757   3.544   3.394   6.103 -0.4510  0.4097  0.3218
17781TIP3    H174758   3.452   3.416   6.118 -0.3909  0.9083 -0.0547
17781TIP3    H274759   3.542   3.320   6.043 -0.6351 -0.2944  1.1734
17782TIP3   OH274760   2.506   0.081   5.139  0.4213 -0.1979 -0.2747
17782TIP3    H174761   2.493  -0.013   5.127  1.6516 -0.3758 -0.3042
17782TIP3    H274762   2.506   0.117   5.051 -2.6682  0.2183 -0.1506
17783TIP3   OH274763   5.614   4.243   5.786  0.0146  0.3109  0.9415
17783TIP3    H174764   5.605   4.311   5.853 -0.9246  1.4026 -0.2518
17783TIP3    H274765   5.673   4.179   5.825  1.9704  2.4277  1.6260
17784TIP3   OH274766   6.402   6.297   3.172 -0.1570 -0.4134 -0.4914
17784TIP3    H174767   6.362   6.217   3.207  0.8154 -0.6026  0.1998
17784TIP3    H274768   6.444   6.338   3.248 -0.8766  0.8957 -0.7893
17785TIP3   OH274769   2.443   4.188   5.268  0.0677 -1.0648 -0.1149
17785TIP3    H174770   2.525   4.145   5.243  0.0857  0.1133 -2.2488
17785TIP3    H274771   2.470   4.270   5.307 -0.0791 -0.6764 -0.8174
17786TIP3   OH274772   2.912   3.130   5.084 -0.0020  0.4848  0.4500
17786TIP3    H174773   2.945   3.075   5.155  1.8093  1.2340  0.2176
17786TIP3    H274774   2.817   3.124   5.092  0.1467 -2.2477  0.7433
17787TIP3   OH274775   2.907   5.057   5.144  0.3182  0.3864 -0.5119
17787TIP3    H174776   2.825   5.106   5.146  0.1543  0.0898  2.1311
17787TIP3    H274777   2.943   5.073   5.057 -1.8005  1.7412 -1.1687
17788TIP3   OH274778   5.321   3.662   5.371  0.2579  0.1035 -0.2161
17788TIP3    H174779   5.226   3.653   5.360  0.5760 -0.0570 -3.3868
17788TIP3    H274780   5.339   3.754   5.347  1.0612 -0.2784 -1.1176
17789TIP3   OH274781   6.851   1.405   5.067  0.1803  0.5987  0.0194
17789TIP3    H174782   6.920   1.339   5.070 -0.2599  0.1266 -0.2307
17789TIP3    H274783   6.866   1.452   4.985  0.0622  0.3362 -0.1545
17790TIP3   OH274784   2.294   2.795   5.778 -0.4023  0.5343  0.1444
17790TIP3    H174785   2.355   2.787   5.852  0.7227 -0.5863 -0.8701
17790TIP3    H274786   2.232   2.862   5.805 -0.6901 -0.6554  2.5868
17791TIP3   OH274787   3.175   1.060   5.968 -0.1676  0.1371  0.5591
17791TIP3    H174788   3.129   1.139   5.940  0.3936  0.0132 -0.7643
17791TIP3    H274789   3.109   1.006   6.011 -1.2241  0.0604 -1.1153
17792TIP3   OH274790   0.068   2.140   2.573  0.1881  0.5072  0.3072
17792TIP3    H174791   0.152   2.155   2.531 -0.4366  2.1650 -0.3907
17792TIP3    H274792   0.012   2.210   2.541 -1.6926 -0.9908  0.1816
17793TIP3   OH274793   2.056   3.890   5.435  0.2577 -0.3179 -0.3476
17793TIP3    H174794   2.051   3.797   5.457 -0.6015 -0.6210 -1.7176
17793TIP3    H274795   2.110   3.892   5.355  1.6505  0.5280  0.6007
17794TIP3   OH274796   1.815   1.779   6.229 -0.9406  0.1524  0.0321
17794TIP3    H174797   1.829   1.698   6.181 -1.9981 -0.2180  0.3262
17794TIP3    H274798   1.730   1.767   6.272 -0.9101  1.2425  0.4185
17795TIP3   OH274799   1.645   1.309   3.084 -0.2008 -0.1989  1.2081
17795TIP3    H174800   1.672   1.344   2.998 -0.6709 -1.2945  0.6020
17795TIP3    H274801   1.669   1.378   3.146 -1.1200  1.1980  0.0457
17796TIP3   OH274802   1.312   2.828   5.301 -0.2600  0.1900 -0.5488
17796TIP3    H174803   1.237   2.777   5.331 -0.5919  0.6454 -0.5855
17796TIP3    H274804   1.276   2.916   5.286  0.4033  0.5567 -0.0219
17797TIP3   OH274805   3.344   4.433   4.245  0.0605 -0.3494  0.2221
17797TIP3    H174806   3.347   4.340   4.222 -2.0107  0.1924 -2.6078
17797TIP3    H274807   3.284   4.438   4.319  0.4213 -1.3066  0.5833
17798TIP3   OH274808   2.305   0.982   4.673  0.0504 -0.5553 -0.7859
17798TIP3    H174809   2.287   1.043   4.744  1.7141  0.1758 -0.9499
17798TIP3    H274810   2.394   0.950   4.691  0.6706 -0.0365 -2.7259
17799TIP3   OH274811   2.545   2.327   5.481  0.5949 -0.1567 -0.3987
17799TIP3    H174812   2.555   2.352   5.573  1.3232  1.5483 -0.9161
17799TIP3    H274813   2.457   2.357   5.457  1.1259  1.1209 -0.7712
17800TIP3   OH274814   1.120   4.589   5.577 -0.4685 -0.0502  0.1229
17800TIP3    H174815   1.212   4.608   5.594 -0.9239  1.0211  1.5022
17800TIP3    H274816   1.098   4.520   5.639 -0.1527 -1.6105 -1.4374
17801TIP3   OH274817   1.839   5.516   5.041 -0.6886  0.1385  0.0990
17801TIP3    H174818   1.913   5.478   4.993  0.5936  0.4567  1.8006
17801TIP3    H274819   1.762   5.477   4.999  0.4988 -1.8627 -0.3203
17802TIP3   OH274820   2.158   5.136   5.298  0.3730  0.4805 -0.4108
17802TIP3    H174821   2.224   5.081   5.341  0.5771  0.0170 -1.3112
17802TIP3    H274822   2.077   5.087   5.307  0.4093  0.3990 -0.5399
17803TIP3   OH274823   4.187   0.887   4.071  0.1603 -0.0233  0.0021
17803TIP3    H174824   4.194   0.889   4.166  0.4254 -2.1942  0.0665
17803TIP3    H274825   4.101   0.848   4.054  0.5999 -0.7609 -0.6115
17804TIP3   OH274826   1.361   3.957   5.762  0.2929  0.0496  0.0469
17804TIP3    H174827   1.427   4.001   5.816 -0.9365  0.2065  1.4140
17804TIP3    H274828   1.287   3.942   5.820  0.0474 -2.3606 -0.8362
17805TIP3   OH274829   2.811   2.804   5.575 -0.7275 -0.5692 -0.0787
17805TIP3    H174830   2.754   2.774   5.646 -1.5792  0.9841 -0.0805
17805TIP3    H274831   2.852   2.724   5.541 -0.8675 -1.4035  1.6725
17806TIP3   OH274832   3.950   2.039   5.103  0.2608  0.2562 -0.5933
17806TIP3    H174833   3.937   2.054   5.196 -0.4808 -2.4090 -0.2294
17806TIP3    H274834   3.993   2.119   5.071  0.0886  1.3765  1.9138
17807TIP3   OH274835   1.062   2.953   5.064  0.0464 -0.8274  0.5751
17807TIP3    H174836   1.090   3.011   5.134 -0.1188  0.6170 -0.5235
17807TIP3    H274837   1.143   2.913   5.032  0.1294 -1.4358  1.5237
17808TIP3   OH274838   4.449   5.339   3.053  0.0104 -0.0509 -0.1564
17808TIP3    H174839   4.485   5.409   3.108  0.5135  0.7079 -1.4494
17808TIP3    H274840   4.479   5.258   3.096  0.4117  0.5268  0.6774
17809TIP3   OH274841   3.548   6.543   5.062 -0.1062  0.3911 -0.2224
17809TIP3    H174842   3.498   6.531   4.982 -0.4481  1.1171 -0.1248
17809TIP3    H274843   3.502   6.489   5.127  0.0521 -0.0346 -0.4609
17810TIP3   OH274844   1.764   2.024   5.471 -0.1361  0.5164  0.0477
17810TIP3    H174845   1.836   2.054   5.415 -1.9736  1.3039 -1.9223
17810TIP3    H274846   1.697   1.993   5.411 -0.7791 -1.9088  1.9089
17811TIP3   OH274847   4.225   1.904   4.973  0.0445 -0.0978  0.1659
17811TIP3    H174848   4.176   1.825   4.997  0.9525 -0.4718  0.8308
17811TIP3    H274849   4.170   1.977   5.002 -0.2069 -0.5138  0.7317
17812TIP3   OH274850   5.963   7.069   5.586 -0.2112  1.1946 -0.2695
17812TIP3    H174851   5.990   7.021   5.507 -0.8796  0.9439 -0.3454
17812TIP3    H274852   6.031   7.135   5.598  0.7156  0.2493 -0.1814
17813TIP3   OH274853   6.214   3.470   5.169  0.5684 -0.0515 -0.1085
17813TIP3    H174854   6.202   3.458   5.264  1.0827 -1.9678 -0.2534
17813TIP3    H274855   6.262   3.552   5.161  3.0680 -1.2987  1.4887
17814TIP3   OH274856   1.201   1.705   3.133  0.1016  0.0223  0.3896
17814TIP3    H174857   1.156   1.750   3.204 -0.5288  0.9505 -0.5680
17814TIP3    H274858   1.279   1.667   3.173 -1.0618 -0.8055  1.8743
17815TIP3   OH274859   4.492   3.920   5.447  0.2177  0.3663  0.4564
17815TIP3    H174860   4.567   3.900   5.503 -0.5869  1.2872  1.9021
17815TIP3    H274861   4.432   3.968   5.504  0.0908  2.7912 -1.6412
17816TIP3   OH274862   4.001   2.212   4.370  0.0236  0.3839  0.2218
17816TIP3    H174863   3.916   2.203   4.329  0.2991  1.2098 -0.5291
17816TIP3    H274864   4.041   2.125   4.361 -0.1722  0.3812 -0.6731
17817TIP3   OH274865   3.941   5.421   5.234 -0.1012 -0.5248 -0.1903
17817TIP3    H174866   3.957   5.470   5.314  1.0378 -1.3926  0.1071
17817TIP3    H274867   3.877   5.475   5.187  0.9502  1.1511  0.2310
17818TIP3   OH274868   5.725   1.974   4.213 -0.6332 -0.3369 -0.6800
17818TIP3    H174869   5.806   1.931   4.242 -0.2144  0.1601 -1.0917
17818TIP3    H274870   5.669   1.974   4.290 -0.6761 -1.7012 -0.6950
17819TIP3   OH274871   4.682   4.543   5.736 -0.0527 -0.0859  0.4968
17819TIP3    H174872   4.732   4.484   5.680 -1.2961 -0.8094  0.1348
17819TIP3    H274873   4.679   4.625   5.687 -2.3178 -1.1129 -1.1908
17820TIP3   OH274874   1.752   1.313   5.709 -0.0327  0.4972  0.0945
17820TIP3    H174875   1.722   1.403   5.718  1.0119  0.6883  2.0489
17820TIP3    H274876   1.815   1.316   5.638  1.4186  1.7116  1.3950
17821TIP3   OH274877   3.018   2.233   5.968  0.1652 -0.1980 -0.1520
17821TIP3    H174878   3.088   2.298   5.968  0.6082 -0.6665 -0.8982
17821TIP3    H274879   2.940   2.282   5.943  0.8056 -0.2485 -2.3904
17822TIP3   OH274880   6.736   4.644   3.736  0.1643  0.2469  0.1910
17822TIP3    H174881   6.816   4.661   3.786  0.3390 -0.8019  0.2807
17822TIP3    H274882   6.704   4.731   3.711  0.6699  0.7274  1.1917
17823TIP3   OH274883   0.861   3.290   4.112  0.1126 -0.1695  0.3339
17823TIP3    H174884   0.827   3.352   4.048 -1.2100 -2.0390 -0.8164
17823TIP3    H274885   0.871   3.342   4.192  3.0058  2.4939 -1.6573
17824TIP3   OH274886   1.922   2.897   6.005  0.4919  0.3167  0.0203
17824TIP3    H174887   1.969   2.856   6.077  1.1231 -0.5561 -0.8771
17824TIP3    H274888   1.990   2.935   5.949 -0.0222  1.4691  0.1610
17825TIP3   OH274889   0.378   3.115   5.417 -0.0877  0.3987 -0.0567
17825TIP3    H174890   0.414   3.026   5.420  0.3648  0.5406 -1.2424
17825TIP3    H274891   0.442   3.168   5.464  0.7480  0.4668 -1.2449
17826TIP3   OH274892   3.538   1.359   3.124 -0.3969 -0.3192 -0.7081
17826TIP3    H174893   3.485   1.346   3.203  1.9623 -0.4404  0.9185
17826TIP3    H274894   3.627   1.336   3.151  1.1640  3.4378 -2.2828
17827TIP3   OH274895   6.837   2.431   4.517 -0.7012 -0.2762 -0.2682
17827TIP3    H174896   6.782   2.353   4.522 -0.9060 -0.0726  0.8446
17827TIP3    H274897   6.813   2.472   4.434 -0.6291 -1.3642 -0.8311
17828TIP3   OH274898   3.879   5.333   5.926 -0.0144  0.2849 -0.0225
17828TIP3    H174899   3.876   5.239   5.943  1.9864  0.2810  0.5385
17828TIP3    H274900   3.843   5.373   6.005  1.4200  0.0307  0.7835
17829TIP3   OH274901   0.256   2.436   5.531 -0.0817  0.1904 -0.1105
17829TIP3    H174902   0.341   2.441   5.487  0.1202  1.1658  0.3821
17829TIP3    H274903   0.192   2.433   5.460  0.4230 -2.2029 -0.5112
17830TIP3   OH274904   0.754   3.821   4.182 -0.0132 -0.7280  0.0351
17830TIP3    H174905   0.690   3.883   4.148  1.0037 -0.0441 -0.6554
17830TIP3    H274906   0.776   3.765   4.108  0.0516 -1.0814  0.3180
17831TIP3   OH274907   2.665   5.179   3.956 -0.7705 -0.5262 -0.5134
17831TIP3    H174908   2.638   5.262   3.915 -2.4939 -0.0973  1.4305
17831TIP3    H274909   2.755   5.194   3.982 -0.6207  0.2488 -1.4426
17832TIP3   OH274910   3.351   3.909   3.754 -0.4220 -0.3109  0.3534
17832TIP3    H174911   3.417   3.866   3.701  0.9279  1.1880  0.7896
17832TIP3    H274912   3.398   3.941   3.831 -1.6774  0.6658  0.7355
17833TIP3   OH274913   5.198   0.457   4.681  0.0593  0.0078  0.1242
17833TIP3    H174914   5.188   0.362   4.685 -0.0346  0.0214  0.2019
17833TIP3    H274915   5.288   0.472   4.711  0.3630 -0.1221 -0.6900
17834TIP3   OH274916   3.652   1.299   2.755  0.1283 -0.3178  0.3612
17834TIP3    H174917   3.666   1.391   2.776  0.4269 -0.5805  1.3256
17834TIP3    H274918   3.698   1.251   2.824 -0.1509 -1.1884 -0.0476
17835TIP3   OH274919   0.911   0.550   4.086 -0.3008 -0.0177  0.6442
17835TIP3    H174920   0.896   0.629   4.034 -1.8554 -0.1001  0.9602
17835TIP3    H274921   0.998   0.563   4.124 -0.1123  1.0663 -0.1312
17836TIP3   OH274922   4.314   3.796   1.303  0.9328 -0.6485 -0.2685
17836TIP3    H174923   4.241   3.809   1.242  1.5246 -0.9124 -1.0470
17836TIP3    H274924   4.383   3.853   1.269  0.9367 -0.0643  0.7217
17837TIP3   OH274925   4.184   3.952   5.287 -0.1878  0.2206 -0.4292
17837TIP3    H174926   4.225   4.012   5.349  0.0311 -1.2323  0.8611
17837TIP3    H274927   4.257   3.910   5.242 -0.2622 -1.4726  1.0016
17838TIP3   OH274928   2.916   2.379   4.146  0.3655  0.6433 -0.1215
17838TIP3    H174929   2.963   2.298   4.168  1.3773  0.8524 -1.4328
17838TIP3    H274930   2.879   2.408   4.229 -0.3551 -1.3690  0.3018
17839TIP3   OH274931   2.797   5.067   4.861  0.3738 -0.5221  0.2341
17839TIP3    H174932   2.826   5.124   4.790 -0.9793  0.2661  0.2946
17839TIP3    H274933   2.810   4.978   4.827 -1.3971 -0.1520 -1.5089
17840TIP3   OH274934   0.989   7.155   4.460 -0.3926 -0.2152  0.5424
17840TIP3    H174935   1.080   7.160   4.489 -0.4718 -1.0976  0.9749
17840TIP3    H274936   0.946   7.230   4.500 -0.0120 -0.2084  0.9314
17841TIP3   OH274937   3.253   2.155   2.908  0.6266  0.1618 -0.2870
17841TIP3    H174938   3.227   2.100   2.982 -0.0379 -1.4285 -1.6595
17841TIP3    H274939   3.236   2.244   2.937  0.3285 -0.4409  1.4526
17842TIP3   OH274940   0.034   2.791   3.603 -0.2167 -0.2753  0.0118
17842TIP3    H174941   0.040   2.850   3.528 -0.3169 -1.5822 -1.0305
17842TIP3    H274942  -0.060   2.779   3.617 -0.1924 -0.8717 -0.3225
17843TIP3   OH274943   1.881   0.099   4.892 -0.8174 -0.0105 -0.6238
17843TIP3    H174944   1.931   0.180   4.894  0.0460 -0.5106 -1.3684
17843TIP3    H274945   1.790   0.127   4.879 -0.2070  0.7582 -3.6226
17844TIP3   OH274946   3.984   2.389   4.604 -0.2403 -0.4418 -0.5920
17844TIP3    H174947   3.915   2.335   4.642  2.4470 -4.2764 -0.9019
17844TIP3    H274948   3.984   2.365   4.511  1.3141 -0.3274 -0.6325
17845TIP3   OH274949   5.391   3.135   5.584  0.1870  0.0022 -0.6904
17845TIP3    H174950   5.445   3.206   5.618  0.0236 -0.5997  0.8693
17845TIP3    H274951   5.314   3.134   5.642  1.2392 -2.8723  0.7530
17846TIP3   OH274952   3.486   1.660   5.310  0.2400  0.9018  0.3447
17846TIP3    H174953   3.491   1.637   5.403  2.4159 -2.5878 -0.5283
17846TIP3    H274954   3.553   1.728   5.298  1.6618 -0.3628  0.9248
17847TIP3   OH274955   2.665   3.299   5.374  0.1724 -0.0080 -0.1393
17847TIP3    H174956   2.574   3.325   5.388 -0.0852 -2.2233  2.6856
17847TIP3    H274957   2.715   3.356   5.432  0.1476 -1.6629  1.5556
17848TIP3   OH274958   4.907   6.941   3.645  0.8733  0.1117  0.4362
17848TIP3    H174959   4.964   7.007   3.683  0.4476  1.9713 -2.0221
17848TIP3    H274960   4.902   6.964   3.552 -4.9409  0.8716  0.7466
17849TIP3   OH274961   5.500   1.380   5.771  0.1799  0.4366 -0.5538
17849TIP3    H174962   5.562   1.308   5.788 -1.1726 -0.7331 -0.4786
17849TIP3    H274963   5.457   1.394   5.856 -2.0262 -1.0488 -1.3860
17850TIP3   OH274964   6.694   1.959   5.279 -0.5659 -0.2727  0.6245
17850TIP3    H174965   6.682   2.053   5.266 -2.0021 -0.6440 -0.8398
17850TIP3    H274966   6.773   1.952   5.333 -0.6882  1.7846  1.0985
17851TIP3   OH274967   4.458   6.001   2.319  0.2761 -0.0190  0.4694
17851TIP3    H174968   4.450   6.075   2.259  0.1828 -0.0599  0.4317
17851TIP3    H274969   4.512   5.938   2.271 -0.5160 -0.4086  0.0865
17852TIP3   OH274970   1.769   5.280   4.368 -0.0246  0.4070 -0.0065
17852TIP3    H174971   1.743   5.230   4.290  0.8139 -0.4032  0.2299
17852TIP3    H274972   1.787   5.368   4.334  2.6304 -0.5211 -1.1697
17853TIP3   OH274973   2.228   3.685   2.719 -0.0952 -0.6039 -0.3905
17853TIP3    H174974   2.144   3.705   2.678 -0.2888 -1.2941 -0.3405
17853TIP3    H274975   2.284   3.759   2.696 -0.7197 -0.1307 -0.4078
17854TIP3   OH274976   4.486   6.716   2.586  0.0650  0.0564 -0.1199
17854TIP3    H174977   4.512   6.624   2.597 -1.1649 -0.5003 -1.7394
17854TIP3    H274978   4.462   6.723   2.494  1.4479  2.3567 -0.3184
17855TIP3   OH274979   1.963   3.239   4.715 -0.2874 -0.4207  0.0017
17855TIP3    H174980   2.047   3.194   4.724 -0.0499  0.1209  0.4866
17855TIP3    H274981   1.936   3.220   4.625 -0.1377 -1.4388  0.1579
17856TIP3   OH274982   1.027   2.146   5.365 -0.1838 -0.4081 -0.6984
17856TIP3    H174983   1.080   2.185   5.434  0.6758  0.5830 -1.8988
17856TIP3    H274984   0.977   2.078   5.409 -0.4659  0.9275  1.1198
17857TIP3   OH274985   4.571   2.356   0.985 -0.1220  0.6389  0.7620
17857TIP3    H174986   4.538   2.290   1.047 -0.3194  0.6111  0.6263
17857TIP3    H274987   4.642   2.400   1.033  0.4632 -0.1246  0.6101
17858TIP3   OH274988   2.350   4.239   4.775 -0.4374  0.1152  0.3823
17858TIP3    H174989   2.409   4.297   4.726 -1.1450  0.9179  0.4557
17858TIP3    H274990   2.334   4.165   4.717 -0.9950  0.8920 -0.4634
17859TIP3   OH274991   5.896   3.823   3.141 -0.1026  0.3039 -0.4665
17859TIP3    H174992   5.963   3.793   3.079  1.0692  3.0845 -0.6606
17859TIP3    H274993   5.900   3.919   3.134 -2.1028  0.5687  1.6690
17860TIP3   OH274994   0.225   2.677   5.637 -0.0284 -0.0581  0.0616
17860TIP3    H174995   0.198   2.715   5.553  0.3870  0.0484 -0.0272
17860TIP3    H274996   0.228   2.583   5.621 -1.3061 -0.1594  0.3514
17861TIP3   OH274997   3.085   2.060   5.353  0.3147  0.7172 -0.1713
17861TIP3    H174998   3.081   2.081   5.260 -0.0683  0.4800 -0.2099
17861TIP3    H274999   3.034   2.128   5.396  1.2118  1.3176 -0.0498
17862TIP3   OH275000   5.980   3.643   5.727 -0.3239 -0.4030 -0.4297
17862TIP3    H175001   5.992   3.735   5.750  1.6923 -0.9603  0.9069
17862TIP3    H275002   5.921   3.609   5.794 -1.8829  0.1358 -1.5096
17863TIP3   OH275003   3.397   4.995   5.150  0.2732 -0.2146  0.2686
17863TIP3    H175004   3.360   5.075   5.185 -1.2486 -1.3762  1.3929
17863TIP3    H275005   3.339   4.971   5.077  2.1979  1.0531 -1.7252
17864TIP3   OH275006   3.569   4.901   4.177  0.1364 -0.4047  0.1495
17864TIP3    H175007   3.611   4.822   4.144  0.0241 -0.9936  1.3880
17864TIP3    H275008   3.590   4.968   4.112 -0.8165 -1.7140 -1.5449
17865TIP3   OH275009   0.620   2.991   3.075 -0.0065 -0.2646  0.8414
17865TIP3    H175010   0.661   3.038   3.003  1.1130 -0.9655  1.0172
17865TIP3    H275011   0.666   2.907   3.080 -0.6433 -0.5770  1.8146
17866TIP3   OH275012   3.109   6.442   4.169 -0.0331 -0.2278  0.0336
17866TIP3    H175013   3.173   6.494   4.218  1.1666 -1.2340 -0.4228
17866TIP3    H275014   3.070   6.504   4.107  1.5262  0.0963 -0.6495
17867TIP3   OH275015   0.188   4.685   3.600 -0.5171  0.2078 -0.3581
17867TIP3    H175016   0.147   4.761   3.640  0.2290 -0.2983  1.4262
17867TIP3    H275017   0.140   4.610   3.635 -0.0908 -0.2273 -0.6920
17868TIP3   OH275018   3.027   3.302   5.503  0.0257 -0.1055  0.1123
17868TIP3    H175019   3.071   3.285   5.586 -1.1591 -0.5448  0.6647
17868TIP3    H275020   2.936   3.319   5.528 -0.2847 -0.0009 -1.0800
17869TIP3   OH275021   5.765   5.256   4.742 -0.1913  0.0436 -0.3108
17869TIP3    H175022   5.820   5.178   4.734  1.3385  0.9533  1.0931
17869TIP3    H275023   5.693   5.230   4.798  1.0690  0.0176  1.3230
17870TIP3   OH275024   3.558   4.603   5.007 -0.0677  0.1391  0.3451
17870TIP3    H175025   3.547   4.672   5.073 -1.1684  0.7082 -0.4254
17870TIP3    H275026   3.499   4.534   5.036  0.1579 -0.0036  0.4681
17871TIP3   OH275027   6.996   2.161   4.608 -0.4173 -0.4200  0.2032
17871TIP3    H175028   6.927   2.152   4.674 -1.2087 -0.3900 -0.6100
17871TIP3    H275029   7.040   2.243   4.630 -0.7875 -0.3258  0.5919
17872TIP3   OH275030   5.574   3.516   4.297  0.2519 -0.3604 -0.1114
17872TIP3    H175031   5.491   3.494   4.338  1.5802 -2.4129  1.6274
17872TIP3    H275032   5.563   3.493   4.205 -1.8084  1.4966 -0.3638
17873TIP3   OH275033   2.274   5.362   6.014  0.3483 -0.3470 -0.5841
17873TIP3    H175034   2.215   5.287   6.019  2.9334 -2.5270 -1.5441
17873TIP3    H275035   2.312   5.356   5.926  1.7664  1.1571 -0.0934
17874TIP3   OH275036   3.786   1.943   4.042 -0.3103 -0.3206  0.4689
17874TIP3    H175037   3.805   2.029   4.080 -0.6905 -0.7148  1.5641
17874TIP3    H275038   3.855   1.929   3.977  0.7666  0.0433  1.5222
17875TIP3   OH275039   4.219   6.806   5.715 -0.2464 -0.0553  0.2375
17875TIP3    H175040   4.189   6.815   5.625 -0.8696  0.5484  0.4961
17875TIP3    H275041   4.144   6.767   5.761  0.0476 -0.3152  0.4998
17876TIP3   OH275042   6.010   2.865   5.299 -0.2572 -0.3876 -0.0433
17876TIP3    H175043   5.961   2.783   5.297 -1.0655  0.0302  2.1166
17876TIP3    H275044   5.963   2.921   5.360 -0.5444  2.2580 -2.5716
17877TIP3   OH275045   5.503   4.780   3.093  0.3739 -0.3140 -0.3293
17877TIP3    H175046   5.564   4.736   3.034  0.5227 -1.0376  0.3431
17877TIP3    H275047   5.522   4.742   3.179  0.7981  1.3781  0.3499
17878TIP3   OH275048   4.496   1.301   4.472 -0.1257  0.2426  0.4916
17878TIP3    H175049   4.505   1.392   4.502 -0.8870 -0.1439  1.9442
17878TIP3    H275050   4.412   1.273   4.508 -0.6103 -0.5818 -1.2054
17879TIP3   OH275051   4.843   1.386   5.010  0.0011  0.1060  0.7328
17879TIP3    H175052   4.751   1.377   5.035  0.4881 -0.7872  2.2919
17879TIP3    H275053   4.874   1.461   5.061  0.0801  0.5382  0.0494
17880TIP3   OH275054   5.442   2.825   3.155 -0.0249  0.1738 -0.2175
17880TIP3    H175055   5.436   2.733   3.130  1.4223 -0.6743  2.3836
17880TIP3    H275056   5.389   2.832   3.234  0.4840  1.3849  0.0335
17881TIP3   OH275057   4.755   5.899   3.608 -0.6362  0.2667 -0.2959
17881TIP3    H175058   4.700   5.824   3.589  0.5330 -0.6975  0.0544
17881TIP3    H275059   4.785   5.886   3.698 -0.4322  1.1537 -0.2243
17882TIP3   OH275060   5.569   2.152   4.736  0.1318 -0.3870 -0.5080
17882TIP3    H175061   5.498   2.152   4.800 -0.6996 -0.7812 -1.4317
17882TIP3    H275062   5.643   2.113   4.783  0.0805  1.0379  0.8080
17883TIP3   OH275063   6.620   2.649   6.192  0.6653  0.2910 -0.0488
17883TIP3    H175064   6.714   2.654   6.209  0.6663 -0.2562  0.1025
17883TIP3    H275065   6.613   2.616   6.103  0.6026 -0.6869  0.3172
17884TIP3   OH275066   6.728   1.958   4.025 -0.1144 -0.1727 -0.5264
17884TIP3    H175067   6.702   1.906   3.949 -2.6704 -0.7113  0.6800
17884TIP3    H275068   6.765   1.895   4.087  1.2677  0.1637 -0.9782
17885TIP3   OH275069   3.805   4.019   2.189  0.2447 -0.1517  0.3973
17885TIP3    H175070   3.764   4.000   2.105  1.8698 -3.5447  0.2600
17885TIP3    H275071   3.764   3.957   2.250  2.1085 -0.7266  1.1280
17886TIP3   OH275072   4.482   2.360   5.210 -0.2125 -0.0480 -0.0291
17886TIP3    H175073   4.484   2.447   5.249  0.2597 -0.5985  1.2103
17886TIP3    H275074   4.491   2.300   5.285 -0.4646 -1.1540 -0.8704
17887TIP3   OH275075   5.005   2.760   4.170  0.2443  0.5927  0.1929
17887TIP3    H175076   4.967   2.763   4.082  0.6077  1.1404  0.0477
17887TIP3    H275077   4.930   2.765   4.229  0.0168  0.5154 -0.0886
17888TIP3   OH275078   3.763   3.729   3.665  0.3813  0.6930  0.0409
17888TIP3    H175079   3.760   3.802   3.727  1.2952 -0.4103  1.3922
17888TIP3    H275080   3.842   3.744   3.614  1.0032  0.2213  0.8580
17889TIP3   OH275081   5.437   6.803   4.529 -0.0236  1.1442  0.1190
17889TIP3    H175082   5.482   6.821   4.446 -0.2724  0.1969 -0.2205
17889TIP3    H275083   5.502   6.756   4.581 -0.4825  0.1283 -0.2220
17890TIP3   OH275084   5.018   4.761   2.252 -0.4760  0.3198  0.1294
17890TIP3    H175085   5.088   4.753   2.317  0.6529 -0.8537 -1.1727
17890TIP3    H275086   4.960   4.687   2.270 -1.0357  0.9170  0.7984
17891TIP3   OH275087   4.382   3.840   4.916  0.1398  0.1713  0.4185
17891TIP3    H175088   4.291   3.818   4.897  0.6018 -0.2738 -1.2934
17891TIP3    H275089   4.378   3.887   5.000 -1.5023 -1.0775  1.0665
17892TIP3   OH275090   7.255   0.512   3.993 -0.4132  0.6062  0.1687
17892TIP3    H175091   7.168   0.474   4.009  0.5686 -1.6793  0.2488
17892TIP3    H275092   7.294   0.456   3.927  0.9855  1.6850  0.0618
17893TIP3   OH275093   2.514   5.623   5.103  0.4777 -0.5552  0.0651
17893TIP3    H175094   2.594   5.663   5.137 -0.5917  0.6051  1.2486
17893TIP3    H275095   2.521   5.530   5.126  1.5683 -0.5028 -0.0357
17894TIP3   OH275096   2.091   4.054   4.893 -0.3449 -0.2184  0.8431
17894TIP3    H175097   2.067   3.982   4.952  1.8801 -1.9084 -0.2650
17894TIP3    H275098   2.107   4.128   4.952 -0.6879 -1.1717  2.1633
17895TIP3   OH275099   3.371   3.961   5.422  0.0284  0.9495  0.1732
17895TIP3    H175100   3.330   3.890   5.371  1.4199  0.0544  0.2839
17895TIP3    H275101   3.300   3.995   5.476 -0.6261 -0.4693  0.2398
17896TIP3   OH275102   5.719   3.631   5.553 -0.4014 -0.2690 -0.5626
17896TIP3    H175103   5.783   3.603   5.618  0.2485 -1.4249 -1.6921
17896TIP3    H275104   5.731   3.726   5.547 -0.4473 -0.1614  0.9659
17897TIP3   OH275105   4.508   3.736   3.398 -0.3215 -0.2785  0.2492
17897TIP3    H175106   4.473   3.819   3.365 -1.0712 -0.6970 -0.0282
17897TIP3    H275107   4.603   3.747   3.395 -0.3499 -0.3888 -2.2871
17898TIP3   OH275108   6.674   0.853   3.628  0.0997  0.4877 -0.4304
17898TIP3    H175109   6.718   0.769   3.622 -0.2237  0.2773  0.1012
17898TIP3    H275110   6.700   0.888   3.713 -0.1523  0.7070 -0.4429
17899TIP3   OH275111   3.676   4.642   5.398  0.3569  0.0984 -0.2018
17899TIP3    H175112   3.623   4.568   5.371  0.0244 -0.0386  0.8064
17899TIP3    H275113   3.626   4.719   5.370  1.2083 -0.0529 -2.1980
17900TIP3   OH275114   2.560   5.860   1.558  0.3025 -0.2563 -0.2802
17900TIP3    H175115   2.608   5.782   1.531 -0.6289 -0.7437 -0.5428
17900TIP3    H275116   2.469   5.834   1.557 -0.0985  1.1035 -1.2369
17901TIP3   OH275117   3.737   3.578   6.046 -0.4167  0.0608  0.3882
17901TIP3    H175118   3.706   3.668   6.052  1.4197  0.6704  0.9614
17901TIP3    H275119   3.666   3.526   6.083 -1.4277  1.2760  0.1871
17902TIP3   OH275120   3.387   3.889   2.605 -0.4636  0.2544 -0.0209
17902TIP3    H175121   3.424   3.811   2.645 -0.5164 -0.4255 -1.2553
17902TIP3    H275122   3.308   3.858   2.560 -1.2834  1.2813  0.7011
17903TIP3   OH275123   5.105   0.772   2.887  0.3853  0.1535 -0.0284
17903TIP3    H175124   5.052   0.830   2.941 -0.5989 -0.5005 -0.2746
17903TIP3    H275125   5.082   0.796   2.797  1.9513  1.1807 -0.1651
17904TIP3   OH275126   4.585   3.767   4.601  0.3540  0.1536  0.4426
17904TIP3    H175127   4.517   3.718   4.647  0.5622  0.1343  0.7284
17904TIP3    H275128   4.655   3.703   4.587 -0.7394 -0.5419 -2.1577
17905TIP3   OH275129   6.157   2.565   4.136  0.0614 -0.3787 -0.3605
17905TIP3    H175130   6.127   2.622   4.065  0.7885  0.1337 -0.2618
17905TIP3    H275131   6.187   2.486   4.092  0.1026 -0.2368 -0.5860
17906TIP3   OH275132   3.843   6.115   4.904  0.3454  0.1228 -0.0573
17906TIP3    H175133   3.866   6.049   4.838  0.1407  2.2772 -2.3779
17906TIP3    H275134   3.927   6.154   4.928  0.0308  2.6273 -2.7120
17907TIP3   OH275135   5.129   1.701   4.434 -0.2188 -1.2167 -0.5856
17907TIP3    H175136   5.166   1.737   4.354  0.6922  1.0963  0.8064
17907TIP3    H275137   5.095   1.777   4.481 -0.1519 -2.4192  1.4955
17908TIP3   OH275138   2.866   3.621   5.219  0.0430  0.2277  0.4283
17908TIP3    H175139   2.902   3.533   5.216 -0.5066  0.0020  0.3624
17908TIP3    H275140   2.918   3.667   5.285 -0.0601 -0.3151  0.8814
17909TIP3   OH275141   3.196   5.785   5.226  0.4529 -0.4837  0.4587
17909TIP3    H175142   3.191   5.765   5.319  2.0956 -0.6721  0.5325
17909TIP3    H275143   3.115   5.749   5.189  0.3457 -1.4766  1.6236
17910TIP3   OH275144   3.526   1.451   0.885 -0.1215  0.0172 -0.0138
17910TIP3    H175145   3.432   1.468   0.891  0.3128  2.4094  0.5684
17910TIP3    H275146   3.532   1.368   0.839 -2.5779 -1.3636  2.0214
17911TIP3   OH275147   6.362   4.796   5.580  0.1654 -0.2675 -0.3888
17911TIP3    H175148   6.412   4.732   5.529 -0.3119 -0.1130 -1.0652
17911TIP3    H275149   6.316   4.744   5.646 -2.3642 -1.0154 -2.6265
17912TIP3   OH275150   7.299   2.461   4.076 -0.6575 -0.5153 -0.0270
17912TIP3    H175151   7.241   2.422   4.012  1.2918  0.5731 -2.5219
17912TIP3    H275152   7.386   2.428   4.053 -0.0646 -1.1955  2.9154
17913TIP3   OH275153   1.880   1.043   4.911 -0.0188  0.4969 -0.5384
17913TIP3    H175154   1.900   0.953   4.884  3.2532  0.4535  1.7834
17913TIP3    H275155   1.820   1.034   4.985  0.7641  0.2006  0.0612
17914TIP3   OH275156   4.676   1.235   5.527 -0.4438  0.4706 -0.0246
17914TIP3    H175157   4.632   1.226   5.612  0.6443  0.6097  0.5611
17914TIP3    H275158   4.754   1.179   5.535  1.1156  2.5964  0.0694
17915TIP3   OH275159   6.133   0.544   5.229  0.6622  0.2434  0.1558
17915TIP3    H175160   6.075   0.602   5.279 -1.8242 -1.2122 -0.9254
17915TIP3    H275161   6.145   0.468   5.286 -0.2788 -0.3941 -0.4791
17916TIP3   OH275162   6.512   4.701   5.367 -0.1846  0.1028 -0.0337
17916TIP3    H175163   6.603   4.694   5.394  0.1890  2.5355 -0.5741
17916TIP3    H275164   6.484   4.610   5.353  1.9812 -0.6915  0.6365
17917TIP3   OH275165   4.552   1.951   5.612 -0.1942 -0.1443 -0.4003
17917TIP3    H175166   4.466   1.964   5.651  0.3452  2.0702  0.1220
17917TIP3    H275167   4.582   1.866   5.646 -1.8139 -0.5587  0.0309
17918TIP3   OH275168   0.494   2.855   5.721  0.0687  0.1891 -0.1462
17918TIP3    H175169   0.541   2.938   5.716  0.3112  0.0027 -1.1003
17918TIP3    H275170   0.555   2.796   5.767 -0.0450  0.4956  0.3996
17919TIP3   OH275171   6.888   4.725   0.540  0.4753  0.4117 -0.2189
17919TIP3    H175172   6.887   4.724   0.445  2.3359  0.3159 -0.2566
17919TIP3    H275173   6.882   4.818   0.564  0.0988  0.4412 -0.4312
17920TIP3   OH275174   1.061   0.908   3.268 -0.2223 -0.3569 -0.2121
17920TIP3    H175175   1.067   0.990   3.219 -0.7975 -0.7919 -1.0352
17920TIP3    H275176   0.996   0.857   3.220 -0.2593 -1.0841  0.6006
17921TIP3   OH275177   3.406   1.268   2.879  0.0694 -0.6334  0.1733
17921TIP3    H175178   3.430   1.302   2.966  0.3485 -2.3354  0.7728
17921TIP3    H275179   3.486   1.278   2.827  0.0706 -0.1322  0.2689
17922TIP3   OH275180   4.258   4.193   2.498  0.3288  0.2741  0.1292
17922TIP3    H175181   4.288   4.271   2.544 -1.7966  1.6554 -0.7577
17922TIP3    H275182   4.185   4.160   2.550 -0.4400  0.3877 -0.8492
17923TIP3   OH275183   0.981   3.040   5.616  0.2714  0.1880 -0.0266
17923TIP3    H175184   0.946   3.071   5.533  2.5324  0.3358 -0.9329
17923TIP3    H275185   0.915   3.067   5.681 -0.7224  1.4912 -1.5467
17924TIP3   OH275186   5.168   1.797   4.197  0.8965  0.2014  0.3765
17924TIP3    H175187   5.233   1.728   4.192  1.6476  0.9761 -0.5807
17924TIP3    H275188   5.211   1.875   4.162 -0.1465  1.0091  0.8325
17925TIP3   OH275189   2.124   1.145   3.078  0.2357  0.0210 -0.0555
17925TIP3    H175190   2.204   1.136   3.130  0.4978 -0.0148 -0.4627
17925TIP3    H275191   2.053   1.120   3.138  0.2807  2.4613  1.0835
17926TIP3   OH275192   3.137   7.262  15.683 -0.1715 -0.2645 -0.0021
17926TIP3    H175193   3.127   7.182  15.734  1.8142 -0.2051  0.5083
17926TIP3    H275194   3.198   7.238  15.613  0.9290  0.9605  0.5245
17927TIP3   OH275195   4.526   2.228   5.769  0.5337 -0.5864 -0.4635
17927TIP3    H175196   4.473   2.264   5.839  2.0878 -1.5190  1.2363
17927TIP3    H275197   4.493   2.139   5.755  0.1198 -0.3473 -1.0434
17928TIP3   OH275198   6.746   2.416   3.405  0.4434 -0.1993 -0.0158
17928TIP3    H175199   6.829   2.399   3.360 -0.4896 -2.9221 -0.7705
17928TIP3    H275200   6.685   2.440   3.335 -0.5743 -2.7721 -0.0494
17929TIP3   OH275201   1.474   3.185   4.806 -0.4857 -0.1939 -0.2265
17929TIP3    H175202   1.423   3.219   4.880 -0.7218 -1.8082  0.3803
17929TIP3    H275203   1.563   3.178   4.841 -0.3394  0.2448 -0.5045
17930TIP3   OH275204   4.842   3.894   3.749  0.0303  0.2067  0.2246
17930TIP3    H175205   4.779   3.836   3.790 -1.4759  3.0373  2.1197
17930TIP3    H275206   4.927   3.860   3.776 -0.8800  0.4556  3.5838
17931TIP3   OH275207   6.319   3.733   5.490  0.1327 -0.3842  0.1965
17931TIP3    H175208   6.248   3.758   5.430 -0.3634 -1.3180  0.3900
17931TIP3    H275209   6.320   3.638   5.488  0.7826 -0.3941  0.9086
17932TIP3   OH275210   6.896   1.810   2.074  0.1735 -0.2017  0.3107
17932TIP3    H175211   6.847   1.872   2.021 -0.3906 -0.1552  0.8902
17932TIP3    H275212   6.839   1.790   2.148 -0.2891 -2.5681 -0.6400
17933TIP3   OH275213   3.387   1.552   3.367 -0.0035  0.6070 -0.0222
17933TIP3    H175214   3.412   1.468   3.406 -0.2548  1.0724  1.1693
17933TIP3    H275215   3.302   1.535   3.325 -0.7531  0.6098  1.4558
17934TIP3   OH275216   4.877   2.409   4.295 -0.1854 -0.3096  0.0744
17934TIP3    H175217   4.861   2.367   4.380  0.1629 -0.6310 -0.0130
17934TIP3    H275218   4.889   2.501   4.316  0.3672 -0.4577  0.4343
17935TIP3   OH275219   4.822   2.895   3.108  0.2957 -0.4338 -0.5099
17935TIP3    H175220   4.898   2.912   3.164 -0.4444 -1.1845  0.7631
17935TIP3    H275221   4.813   2.974   3.054  0.7361  0.5209  0.7866
17936TIP3   OH275222   3.716   1.373   3.874  0.1655  0.0819 -0.0510
17936TIP3    H175223   3.716   1.328   3.789 -0.1594 -0.5998  0.3044
17936TIP3    H275224   3.668   1.454   3.858  1.2089  0.5644 -0.8316
17937TIP3   OH275225   5.347   0.379   5.476 -0.4582  0.1845  0.0417
17937TIP3    H175226   5.273   0.413   5.526 -0.6558  0.1291 -0.2079
17937TIP3    H275227   5.307   0.320   5.411 -0.1696 -0.0866  0.1071
17938TIP3   OH275228   5.183   2.043   3.834 -0.3578  0.0057 -0.3463
17938TIP3    H175229   5.222   2.121   3.796  0.0862 -0.1082 -0.1388
17938TIP3    H275230   5.210   2.045   3.926 -0.6732 -0.1857 -0.2470
17939TIP3   OH275231   5.978   3.877   4.065  0.9206  0.2031 -0.3835
17939TIP3    H175232   6.070   3.899   4.049  0.5555  0.9442 -1.5626
17939TIP3    H275233   5.941   3.865   3.977 -0.7290  2.5522 -0.0735
17940TIP3   OH275234   5.151   5.126   4.590  0.1761  0.6618  0.2877
17940TIP3    H175235   5.189   5.150   4.675 -2.1311  0.9047  1.3101
17940TIP3    H275236   5.211   5.061   4.554  1.2135  0.5781  2.1094
17941TIP3   OH275237   6.426   4.817   4.146  0.4197  0.3959  0.3761
17941TIP3    H175238   6.358   4.885   4.153  0.6264  0.7657 -0.9387
17941TIP3    H275239   6.478   4.826   4.225  0.6799  2.0431  0.0375
17942TIP3   OH275240   3.094   3.987   4.573  0.3304  0.0826  0.7509
17942TIP3    H175241   3.100   3.915   4.636  0.8748 -2.7888 -2.4104
17942TIP3    H275242   3.000   3.995   4.555  0.2951 -0.1560  0.8214
17943TIP3   OH275243   0.199   4.565   4.908  0.2228  0.1718  0.0037
17943TIP3    H175244   0.121   4.520   4.878  0.1485 -0.8858  1.7623
17943TIP3    H275245   0.248   4.584   4.828 -1.1262 -0.4545 -0.9791
17944TIP3   OH275246   5.209   1.714   2.057 -0.6119  0.2939 -0.4116
17944TIP3    H175247   5.135   1.748   2.007  0.0882  1.1278 -0.9044
17944TIP3    H275248   5.171   1.685   2.140 -1.7317 -0.8252 -1.3024
17945TIP3   OH275249   5.430   2.281   4.028 -0.7082 -0.1090 -0.4940
17945TIP3    H175250   5.474   2.328   4.098 -0.8572 -0.1065 -0.4022
17945TIP3    H275251   5.492   2.283   3.955 -1.4087  1.7251 -1.0577
17946TIP3   OH275252   4.754   4.748   5.125  0.3266  0.4122 -0.1952
17946TIP3    H175253   4.681   4.716   5.178  0.5934  0.9975  0.5290
17946TIP3    H275254   4.727   4.730   5.035 -0.4425  0.0655  0.0969
17947TIP3   OH275255   2.750   5.314   2.393  0.0384  0.1137 -0.0167
17947TIP3    H175256   2.839   5.349   2.397 -0.3662  1.5751 -2.7649
17947TIP3    H275257   2.704   5.371   2.331 -2.8775 -0.5093  1.4853
17948TIP3   OH275258   4.801   4.733   3.715 -0.4344 -0.2088 -0.4646
17948TIP3    H175259   4.858   4.684   3.775 -0.9648  0.5184  0.6595
17948TIP3    H275260   4.784   4.672   3.644  1.9910 -0.3457 -0.9824
17949TIP3   OH275261   5.592   3.512   5.357  0.3361  0.0825 -0.1453
17949TIP3    H175262   5.630   3.552   5.435 -0.0518 -1.2938  0.7716
17949TIP3    H275263   5.499   3.534   5.362  0.2728 -0.1867 -0.0874
17950TIP3   OH275264   7.029   4.255   4.303  0.2632 -0.0313  0.1544
17950TIP3    H175265   7.026   4.195   4.228  2.5374  0.0730 -0.0509
17950TIP3    H275266   6.940   4.288   4.311  0.0309  0.1353 -2.6841
17951TIP3   OH275267   2.554   1.756   4.057 -0.4927 -0.2268 -0.2132
17951TIP3    H175268   2.618   1.717   3.997 -0.4663 -0.7904  0.1748
17951TIP3    H275269   2.569   1.710   4.140  1.2343  2.3487  0.9396
17952TIP3   OH275270   4.587   4.837   2.516  0.0949 -0.2935  0.3021
17952TIP3    H175271   4.664   4.880   2.554 -0.0036 -0.0910  0.2770
17952TIP3    H275272   4.621   4.792   2.438  0.0910  0.2672 -0.0299
17953TIP3   OH275273   6.394   3.165   3.986  0.3401 -0.1117 -0.0494
17953TIP3    H175274   6.439   3.081   3.994 -2.3474 -1.6973 -1.0538
17953TIP3    H275275   6.398   3.187   3.893  0.5080  0.5654  0.1153
17954TIP3   OH275276   3.698   5.481   4.710 -0.5611  0.1357 -0.2708
17954TIP3    H175277   3.757   5.405   4.707 -0.7359  0.0403 -1.6744
17954TIP3    H275278   3.616   5.446   4.746 -0.0497  0.0742  0.8437
17955TIP3   OH275279   3.870   5.174   4.602  0.4014  0.1314  0.4208
17955TIP3    H175280   3.963   5.197   4.597  0.4599 -0.2831 -0.6559
17955TIP3    H275281   3.866   5.101   4.663  0.7216  0.4523  0.8272
17956TIP3   OH275282   3.757   4.142   3.373  0.0515  0.7606  0.6966
17956TIP3    H175283   3.670   4.179   3.364 -0.5982 -0.8578  0.1343
17956TIP3    H275284   3.770   4.133   3.467 -1.1446 -0.6753  0.7471
17957TIP3   OH275285   4.302   6.566   4.236  0.2739 -0.6498 -0.2063
17957TIP3    H175286   4.288   6.495   4.298 -0.0209 -0.2857  0.1464
17957TIP3    H275287   4.397   6.577   4.234  0.3529 -1.3573 -0.6131
17958TIP3   OH275288   3.408   3.435   5.122  0.0151  0.3831 -0.3593
17958TIP3    H175289   3.466   3.463   5.051 -0.4321 -0.0798 -0.9132
17958TIP3    H275290   3.398   3.341   5.109  1.7907 -0.1362  1.6950
17959TIP3   OH275291   5.332   4.221   5.784  0.3635  0.0720  0.1935
17959TIP3    H175292   5.345   4.307   5.744  2.1710  0.2181  1.0476
17959TIP3    H275293   5.420   4.191   5.804 -0.3190 -1.6015  0.7162
17960TIP3   OH275294   2.892   5.307   5.924  0.4007 -0.7063 -0.0757
17960TIP3    H175295   2.915   5.400   5.936 -0.3678 -0.2842 -1.8717
17960TIP3    H275296   2.837   5.287   6.000 -0.6969  0.7214 -0.4684
17961TIP3   OH275297   5.311   0.627   2.682  0.2339 -0.2138  0.0308
17961TIP3    H175298   5.322   0.539   2.717  0.0174 -0.3373 -0.2049
17961TIP3    H275299   5.282   0.680   2.757  0.5079 -0.3102  0.2042
17962TIP3   OH275300   6.249   4.076   4.320 -0.2244  0.2856  0.6111
17962TIP3    H175301   6.251   4.171   4.328 -3.0230  0.5383 -1.1105
17962TIP3    H275302   6.333   4.053   4.281 -0.1050  2.1950 -0.2867
17963TIP3   OH275303   4.737   1.779   5.282  1.1431  0.6097 -0.4062
17963TIP3    H175304   4.649   1.742   5.291  0.0890  3.5057  1.9652
17963TIP3    H275305   4.782   1.749   5.361  2.3378 -0.8391 -1.6001
17964TIP3   OH275306   5.907   4.122   5.142  0.4644  0.1062 -0.1275
17964TIP3    H175307   5.989   4.099   5.187  1.0192  1.0027 -0.6570
17964TIP3    H275308   5.853   4.163   5.211  1.2643  1.3650 -0.2249
17965TIP3   OH275309   5.631   3.360   5.744 -0.0978 -0.1885  0.0833
17965TIP3    H175310   5.675   3.424   5.798 -1.5271  0.6544  0.2841
17965TIP3    H275311   5.695   3.337   5.676  0.1309  2.1455 -0.5460
17966TIP3   OH275312   4.025   4.133   2.094  0.3595  0.3905 -0.0631
17966TIP3    H175313   3.984   4.213   2.060 -0.4378 -0.6103 -1.4949
17966TIP3    H275314   3.952   4.080   2.125  0.7970 -0.2355 -0.0884
17967TIP3   OH275315   4.293   5.138   4.433 -0.0655  0.0543  0.1462
17967TIP3    H175316   4.307   5.224   4.473 -0.6929  0.7109 -1.0170
17967TIP3    H275317   4.271   5.081   4.507  1.2393  0.6852  1.0377
17968TIP3   OH275318   5.563   2.610   5.394 -0.2157 -0.0949  0.1416
17968TIP3    H175319   5.569   2.657   5.476 -0.2126  0.0860  0.0366
17968TIP3    H275320   5.542   2.520   5.420 -0.1763 -0.0470  0.3400
17969TIP3   OH275321   4.529   4.319   5.496  0.3551 -0.2569  0.0179
17969TIP3    H175322   4.483   4.402   5.488 -0.1957 -0.3175  2.1583
17969TIP3    H275323   4.462   4.252   5.483  0.2253 -0.3382  0.9990
17970TIP3   OH275324   4.209   1.342   5.554 -0.2552 -0.1354  0.4655
17970TIP3    H175325   4.228   1.339   5.648 -1.4416 -0.2473  0.7065
17970TIP3    H275326   4.263   1.272   5.516  1.1279  0.6839  0.8894
17971TIP3   OH275327   3.069   2.626   5.299  0.0265 -0.6445 -0.0992
17971TIP3    H175328   3.086   2.720   5.300 -0.6459 -0.5036 -0.9924
17971TIP3    H275329   3.046   2.604   5.389 -1.6273  0.4015 -0.2377
17972TIP3   OH275330   2.765   0.204   4.940 -0.4579 -0.3068 -0.1158
17972TIP3    H175331   2.796   0.127   4.891 -0.8914 -1.2165  1.0388
17972TIP3    H275332   2.807   0.197   5.025 -2.9395 -0.9718  1.1052
17973TIP3   OH275333   0.147   4.267   5.539 -0.1726  0.0268 -0.0954
17973TIP3    H175334   0.216   4.327   5.569  0.2262 -1.5895  2.4045
17973TIP3    H275335   0.088   4.260   5.615 -2.5322  0.5200 -1.8101
17974TIP3   OH275336   4.767   2.196   5.904  0.2881 -0.0518 -0.3986
17974TIP3    H175337   4.754   2.104   5.924 -0.5181  0.6939  2.7926
17974TIP3    H275338   4.690   2.221   5.852  0.1209 -0.9914 -0.5989
17975TIP3   OH275339   3.673   5.060   3.150 -0.2692 -0.1389  0.1322
17975TIP3    H175340   3.586   5.021   3.153 -0.2885 -0.2022 -1.1196
17975TIP3    H275341   3.687   5.081   3.058  1.1051 -0.2666  0.2994
17976TIP3   OH275342   6.751   0.398   0.967 -0.4003 -0.0043 -0.5036
17976TIP3    H175343   6.771   0.403   1.061 -0.2130  0.6890 -0.5782
17976TIP3    H275344   6.725   0.307   0.953 -0.0977 -0.1962  0.1572
17977TIP3   OH275345   4.779   0.692   5.205 -0.1630 -0.2671 -0.3881
17977TIP3    H175346   4.808   0.775   5.167 -0.4342 -0.0455 -0.1122
17977TIP3    H275347   4.838   0.627   5.168 -0.1064  0.0155 -0.7987
17978TIP3   OH275348   6.800   3.562   4.571  0.7556  0.5662 -0.3339
17978TIP3    H175349   6.752   3.591   4.494 -2.5553  1.8621  2.1380
17978TIP3    H275350   6.781   3.468   4.576 -1.2420  0.9919  0.3991
17979TIP3   OH275351   6.862   4.289   3.366 -0.4447  0.2875  0.3074
17979TIP3    H175352   6.799   4.322   3.431 -0.6898  3.3379 -1.4180
17979TIP3    H275353   6.838   4.333   3.285  1.5915 -1.4154 -1.2596
17980TIP3   OH275354   6.060   2.453   0.919  0.5674 -1.0841 -0.1874
17980TIP3    H175355   6.033   2.446   1.010  2.6188  0.1204  0.5580
17980TIP3    H275356   6.004   2.391   0.872  1.7255 -4.2410  2.3729
17981TIP3   OH275357   5.854   4.946   3.674 -0.3299 -0.2074 -0.0669
17981TIP3    H175358   5.843   4.928   3.581 -1.4191  0.7369 -0.1333
17981TIP3    H275359   5.766   4.940   3.710 -0.3558  2.2359  0.3844
17982TIP3   OH275360   3.908   4.218   4.901  0.2246 -0.1295  0.0253
17982TIP3    H175361   3.858   4.287   4.946 -0.7137 -1.3520  0.9215
17982TIP3    H275362   3.930   4.156   4.971  0.2444 -1.1973 -0.9107
17983TIP3   OH275363   4.844   3.526   3.224  0.7777  0.2019  0.2606
17983TIP3    H175364   4.846   3.508   3.318 -0.8203 -0.3079  0.2099
17983TIP3    H275365   4.871   3.443   3.184 -1.8878 -0.6688  0.1815
17984TIP3   OH275366   3.915   3.519   4.684 -0.1509  0.3560  0.1517
17984TIP3    H175367   3.889   3.510   4.776  1.1090 -4.7196  0.1970
17984TIP3    H275368   3.854   3.463   4.636  0.1020  1.8146 -1.9214
17985TIP3   OH275369   4.490   3.237   2.362 -0.3641 -0.2341 -0.1701
17985TIP3    H175370   4.565   3.286   2.329 -0.7517 -0.6125 -1.6491
17985TIP3    H275371   4.414   3.281   2.323 -0.8081 -0.9950 -0.1742
17986TIP3   OH275372   2.505   4.413   2.677 -0.2236  0.1357 -0.4858
17986TIP3    H175373   2.549   4.413   2.592 -2.9454 -0.2729 -1.9491
17986TIP3    H275374   2.539   4.490   2.721  0.5325  0.8963 -2.3267
17987TIP3   OH275375   4.640   5.726   2.267  0.3311  0.3293  0.4755
17987TIP3    H175376   4.554   5.697   2.235  1.6001 -1.1283 -1.7965
17987TIP3    H275377   4.677   5.648   2.308  1.7463  0.0713 -1.2260
17988TIP3   OH275378   1.497   1.434   1.359  0.6825  0.2194  0.6948
17988TIP3    H175379   1.508   1.455   1.266  0.1917  0.3791  0.6700
17988TIP3    H275380   1.405   1.454   1.377  0.9416  0.7931  1.3779
17989TIP3   OH275381   4.257   5.638   4.682 -0.4266  0.7212  0.1352
17989TIP3    H175382   4.258   5.728   4.713  0.6752  0.6592  0.2731
17989TIP3    H275383   4.239   5.645   4.588  0.7625  1.1435 -0.0627
17990TIP3   OH275384   3.826   3.641   4.961 -0.6524  1.0337  0.0481
17990TIP3    H175385   3.796   3.712   5.018  0.2124 -0.1358  2.0536
17990TIP3    H275386   3.894   3.597   5.013 -1.5505 -1.5693 -0.8955
17991TIP3   OH275387   1.964   0.566   1.095  0.0651 -0.0030  0.1162
17991TIP3    H175388   1.886   0.615   1.070  0.1614  0.3696  0.5364
17991TIP3    H275389   2.007   0.544   1.012  1.6798  3.3249  0.0036
17992TIP3   OH275390   5.055   4.819   5.864 -0.5408  0.0843  0.2214
17992TIP3    H175391   5.052   4.759   5.789  0.1233 -1.2935  1.2657
17992TIP3    H275392   5.003   4.775   5.932 -0.4147  0.9020  0.8559
17993TIP3   OH275393   1.870   1.244   4.127  0.2462 -0.3528 -0.2822
17993TIP3    H175394   1.940   1.309   4.120 -0.2254  0.1186 -0.6676
17993TIP3    H275395   1.876   1.194   4.045  0.7771 -0.9709  0.1290
17994TIP3   OH275396   4.709   4.602   1.990  0.0857  0.6634 -0.0322
17994TIP3    H175397   4.689   4.546   1.915 -0.5863  1.3458 -0.3646
17994TIP3    H275398   4.792   4.568   2.024  0.8522  0.9167 -1.6062
17995TIP3   OH275399   5.422   2.930   2.890 -0.3364 -0.7379  0.1207
17995TIP3    H175400   5.415   2.858   2.828 -0.3025 -0.6867  0.0568
17995TIP3    H275401   5.451   2.890   2.972  0.9575 -0.6180 -0.2696
17996TIP3   OH275402   4.833   0.283   1.882  0.7694  0.0174  0.0526
17996TIP3    H175403   4.790   0.363   1.850  0.1857 -1.3644 -2.7050
17996TIP3    H275404   4.802   0.274   1.972 -1.7800  1.1119 -0.6706
17997TIP3   OH275405   3.698   2.156   5.368  0.3519 -0.5447  0.2551
17997TIP3    H175406   3.793   2.157   5.363  0.4812 -1.0671  2.1602
17997TIP3    H275407   3.674   2.239   5.409  0.0359 -0.6039  0.1951
17998TIP3   OH275408   4.987   5.762   3.385 -0.8210 -0.1152 -0.1209
17998TIP3    H175409   5.006   5.836   3.328  1.2508 -1.9853 -1.9946
17998TIP3    H275410   4.921   5.794   3.447  0.9486  3.5968 -0.0840
17999TIP3   OH275411   5.870   2.049   5.915  0.2941  0.4110 -0.3140
17999TIP3    H175412   5.837   2.002   5.992  0.2990 -0.2566 -0.7252
17999TIP3    H275413   5.904   2.131   5.951 -0.8010  0.6302  0.2487
18000TIP3   OH275414   4.522   3.659   2.706 -0.0368  0.1130 -0.0481
18000TIP3    H175415   4.433   3.689   2.691  0.0524  0.6598  0.5435
18000TIP3    H275416   4.513   3.581   2.761 -0.1181  0.4487  0.4122
18001TIP3   OH275417   5.764   2.741   4.447 -0.7547  0.3322  0.3213
18001TIP3    H175418   5.795   2.710   4.362 -2.0168 -1.5838  0.5517
18001TIP3    H275419   5.687   2.795   4.427 -0.5406  0.5926  0.1940
18002TIP3   OH275420   3.544   2.693   5.151  0.2481 -0.4737  0.2420
18002TIP3    H175421   3.532   2.715   5.059 -1.1406 -1.3161  0.2091
18002TIP3    H275422   3.523   2.773   5.199 -0.9353 -0.5796 -0.0801
18003TIP3   OH275423   6.488   1.436   5.540  0.0777  0.1173  0.2689
18003TIP3    H175424   6.508   1.392   5.458 -1.3953  0.8960 -0.5392
18003TIP3    H275425   6.553   1.507   5.545  0.4001 -0.1534 -0.0468
18004TIP3   OH275426   1.018   2.447   5.539 -0.1413  0.0842 -0.3610
18004TIP3    H175427   1.005   2.423   5.631  0.4786 -0.0093 -0.2942
18004TIP3    H275428   1.096   2.398   5.512  0.9673  1.7783 -0.3137
18005TIP3   OH275429   6.864   7.028   4.852  0.0976 -0.1761  0.3462
18005TIP3    H175430   6.811   6.958   4.891  2.6347 -2.4828 -0.1978
18005TIP3    H275431   6.935   7.041   4.915  0.5693  0.7404 -0.3697
18006TIP3   OH275432   6.200   4.925   5.259 -0.4322  0.4095  0.2803
18006TIP3    H175433   6.117   4.897   5.219  0.2879  0.9143 -1.6323
18006TIP3    H275434   6.174   4.967   5.341 -2.0669  0.4582 -0.2459
18007TIP3   OH275435   4.455   2.201   6.147  0.1408  0.4203 -0.1288
18007TIP3    H175436   4.505   2.216   6.067  0.1885  0.9738  0.0014
18007TIP3    H275437   4.364   2.216   6.121  0.0518 -0.5076 -0.3466
18008TIP3   OH275438   4.298   2.323   5.933 -0.6041  0.5050  0.2861
18008TIP3    H175439   4.227   2.260   5.939 -0.0062  0.0020  2.8845
18008TIP3    H275440   4.258   2.401   5.894 -2.3202 -0.1459  0.6969
18009TIP3   OH275441   5.239   2.796   2.372 -0.6278  0.6712 -0.9851
18009TIP3    H175442   5.334   2.799   2.366 -0.6505  2.6830 -0.5250
18009TIP3    H275443   5.216   2.706   2.346  1.5792 -0.7503  1.7070
18010TIP3   OH275444   6.057   5.240   2.493 -0.2974  0.4050  0.4264
18010TIP3    H175445   6.086   5.325   2.460  0.8605 -0.0264  0.2987
18010TIP3    H275446   6.045   5.187   2.414  0.2736  0.0592  0.5647
18011TIP3   OH275447   4.282   1.232   4.622  0.3725  0.5481  0.4496
18011TIP3    H175448   4.216   1.180   4.576 -1.1030  3.3265 -0.6955
18011TIP3    H275449   4.345   1.168   4.653 -1.8539 -2.0113 -0.1083
18012TIP3   OH275450   3.226   3.382   4.132 -0.5451  0.1994 -0.0678
18012TIP3    H175451   3.173   3.450   4.173  1.8733  1.1187  1.6758
18012TIP3    H275452   3.297   3.430   4.088 -0.1527 -1.0678 -0.8532
18013TIP3   OH275453   2.633   5.589   3.319  0.4933  0.7000 -0.3607
18013TIP3    H175454   2.612   5.496   3.318  1.8215  0.3897 -0.4278
18013TIP3    H275455   2.632   5.615   3.227 -0.5055  0.9000 -0.2943
18014TIP3   OH275456   4.446   5.449   2.506 -0.2079 -0.2093 -0.0376
18014TIP3    H175457   4.512   5.454   2.575 -0.7459  0.4915  0.4290
18014TIP3    H275458   4.426   5.355   2.500  0.3456 -0.3521  0.2743
18015TIP3   OH275459   4.541   3.268   5.087  0.3438  0.6742  0.2198
18015TIP3    H175460   4.497   3.304   5.164  1.7085  1.0834  0.8202
18015TIP3    H275461   4.498   3.310   5.013 -2.0670 -0.8907  0.6444
18016TIP3   OH275462   5.019   3.692   4.991 -0.0458 -0.7070 -0.5861
18016TIP3    H175463   4.957   3.624   4.964  1.3671 -0.8656 -3.6469
18016TIP3    H275464   5.075   3.649   5.056 -1.4476 -1.3407  0.2283
18017TIP3   OH275465   6.314   2.220   5.906 -0.5036  0.3988 -0.4040
18017TIP3    H175466   6.374   2.240   5.977  0.9374  0.6091 -1.6553
18017TIP3    H275467   6.237   2.183   5.949  0.5217  0.1181  1.2166
18018TIP3   OH275468   6.611   4.830   6.297  0.1850  0.5293 -0.3982
18018TIP3    H175469   6.605   4.741   6.262 -2.8615  0.8371 -0.8422
18018TIP3    H275470   6.663   4.878   6.233 -2.4593  0.2428 -2.9045
18019TIP3   OH275471   3.831   3.710   2.979 -0.2729  0.1220 -0.9599
18019TIP3    H175472   3.819   3.658   3.059  1.3405 -1.2598 -1.5931
18019TIP3    H275473   3.784   3.662   2.912  0.0004  0.2492 -1.2437
18020TIP3   OH275474   3.610   2.989   4.994  0.5286 -1.0224 -0.4447
18020TIP3    H175475   3.605   3.002   5.089 -0.3361 -0.8979 -0.4999
18020TIP3    H275476   3.610   3.078   4.958  3.0553 -1.0071 -0.4789
18021TIP3   OH275477   4.666   6.727   2.097  0.6383 -0.0674 -0.1345
18021TIP3    H175478   4.735   6.691   2.041  2.1151  0.1180  1.5274
18021TIP3    H275479   4.647   6.813   2.060  2.3420  0.4877  0.2625
18022TIP3   OH275480   4.688   5.759   4.027  0.0298 -0.0453 -0.1465
18022TIP3    H175481   4.724   5.847   4.023 -0.0861 -0.0055 -0.3612
18022TIP3    H275482   4.611   5.767   4.083 -0.0284  0.0085 -0.2331
18023TIP3   OH275483   2.717   3.309   4.232  0.0784  0.0771  0.9187
18023TIP3    H175484   2.789   3.306   4.169  0.6859 -0.8399  1.6445
18023TIP3    H275485   2.639   3.328   4.178  0.8093  0.8213  0.1065
18024TIP3   OH275486   6.023   3.424   4.680 -0.2039  0.2263 -0.3103
18024TIP3    H175487   6.029   3.329   4.671 -3.7946 -0.2646  1.6932
18024TIP3    H275488   5.935   3.446   4.647  0.7569  2.9468 -1.2339
18025TIP3   OH275489   6.966   0.678   5.571  0.1747 -0.0606 -0.4526
18025TIP3    H175490   7.002   0.711   5.653  0.1999  0.7580 -0.7926
18025TIP3    H275491   6.882   0.722   5.561 -1.4204 -2.7055  0.8284
18026TIP3   OH275492   4.665   2.958   3.497  0.3051 -0.6493 -0.4926
18026TIP3    H175493   4.598   2.912   3.547  0.5229 -2.3176 -1.6807
18026TIP3    H275494   4.744   2.905   3.508  1.7863  1.8911  1.8369
18027TIP3   OH275495   4.496   1.465   2.020  0.1072 -0.1644 -0.1936
18027TIP3    H175496   4.495   1.369   2.015 -0.9872 -0.1573 -0.1343
18027TIP3    H275497   4.565   1.485   2.084 -0.5953 -0.9600  0.8338
18028TIP3   OH275498   6.183   2.665   3.329 -0.3654  0.3925  0.5718
18028TIP3    H175499   6.163   2.742   3.383  0.7504  0.2076  1.2731
18028TIP3    H275500   6.265   2.688   3.285 -0.6454  0.0625 -0.1257
18029TIP3   OH275501   2.830   1.661   4.033 -0.7280 -0.1662 -0.5685
18029TIP3    H175502   2.888   1.716   4.086 -1.7760  0.4654 -0.0695
18029TIP3    H275503   2.846   1.572   4.066 -0.3352  0.0528 -0.1565
18030TIP3   OH275504   5.394   2.956   3.555  0.4822 -0.0020 -0.0368
18030TIP3    H175505   5.351   3.041   3.561  1.4437  0.4172  1.2861
18030TIP3    H275506   5.337   2.903   3.499 -1.2492  0.8322  0.9114
18031TIP3   OH275507   5.281   2.303   3.782  0.0572 -0.1850  0.4172
18031TIP3    H175508   5.311   2.316   3.872  1.7600 -0.5759 -0.0611
18031TIP3    H275509   5.362   2.301   3.731 -0.9196  0.3433 -1.1626
18032TIP3   OH275510   2.707   3.772   5.078  0.2664 -0.2669  1.1427
18032TIP3    H175511   2.698   3.715   5.002  0.7194  0.3805  0.5953
18032TIP3    H275512   2.766   3.724   5.137  1.3607  0.0185  0.3006
18033TIP3   OH275513   2.815   2.700   4.723  0.1115 -0.2461  0.2971
18033TIP3    H175514   2.812   2.795   4.716  2.0416 -0.2182 -0.4208
18033TIP3    H275515   2.906   2.679   4.742 -0.0243 -2.0052 -0.7774
18034TIP3   OH275516   6.365   0.670   4.243 -0.1789 -0.1939 -0.4614
18034TIP3    H175517   6.358   0.697   4.334 -2.5109  1.9281 -1.2312
18034TIP3    H275518   6.374   0.751   4.193 -3.2191 -0.9662 -2.4536
18035TIP3   OH275519   4.248   4.093   2.210  0.2571 -0.7266 -0.0345
18035TIP3    H175520   4.240   4.101   2.305 -0.8967  3.9768 -0.4134
18035TIP3    H275521   4.158   4.093   2.177  0.6692  2.1179 -1.3187
18036TIP3   OH275522   1.293   3.592   4.344  0.1904  0.0644  0.2286
18036TIP3    H175523   1.274   3.655   4.275  0.4581 -0.4798 -0.3402
18036TIP3    H275524   1.375   3.623   4.382 -1.3238  1.9323  2.1321
18037TIP3   OH275525   4.991   3.316   4.818 -0.3043 -0.2300 -0.3343
18037TIP3    H175526   5.072   3.274   4.787 -0.7020 -1.8975  0.8525
18037TIP3    H275527   4.922   3.254   4.797 -1.2292  0.9182 -0.7653
18038TIP3   OH275528   4.093   1.764   4.123  0.3443 -0.6775  0.5027
18038TIP3    H175529   4.014   1.729   4.081  0.5435  0.8331 -1.1856
18038TIP3    H275530   4.155   1.776   4.052  0.7985  1.6333  1.2447
18039TIP3   OH275531   3.876   3.296   3.744 -0.3493  0.1268  0.5087
18039TIP3    H175532   3.890   3.377   3.794 -1.2168  0.2227  0.6038
18039TIP3    H275533   3.781   3.294   3.728 -0.2330 -0.5093 -0.1056
18040TIP3   OH275534   4.183   5.493   4.944 -0.9274  0.0804  0.5284
18040TIP3    H175535   4.214   5.553   4.876 -0.2286 -3.0555 -2.0243
18040TIP3    H275536   4.107   5.538   4.982 -0.5157  2.5057 -1.3577
18041TIP3   OH275537   4.981   5.434   5.496 -0.3287 -0.4619  0.1617
18041TIP3    H175538   4.972   5.361   5.435 -0.6681 -1.0087  0.8710
18041TIP3    H275539   4.901   5.486   5.484  0.4772  0.5065 -1.2629
18042TIP3   OH275540   5.068   2.222   5.019 -0.0639  0.2933 -0.3916
18042TIP3    H175541   5.044   2.131   5.002  0.9890 -0.2509  0.9693
18042TIP3    H275542   5.006   2.251   5.086 -0.1613  0.4543 -0.5515
18043TIP3   OH275543   7.024   3.255   3.080 -0.4314 -0.3666 -1.1624
18043TIP3    H175544   6.968   3.191   3.035 -1.3430 -0.9552  0.7135
18043TIP3    H275545   6.962   3.309   3.130  0.5004  0.5459 -0.9899
18044TIP3   OH275546   3.696   6.306   3.521 -0.4527 -0.2995  0.7273
18044TIP3    H175547   3.754   6.349   3.458 -1.3109 -0.7400 -0.3681
18044TIP3    H275548   3.703   6.359   3.600  0.4451  0.3998  0.1848
18045TIP3   OH275549   5.564   4.797   4.051  0.4914  0.3243 -0.1808
18045TIP3    H175550   5.567   4.737   3.976  0.5833 -1.3315  1.1107
18045TIP3    H275551   5.598   4.880   4.017 -0.6494 -0.0493 -2.2855
18046TIP3   OH275552   0.038   3.899   4.167  0.4821 -0.2355  0.5132
18046TIP3    H175553  -0.024   3.933   4.103  0.0715 -1.2697  0.3518
18046TIP3    H275554   0.053   3.972   4.227  0.8734  0.7507 -0.7515
18047TIP3   OH275555   3.135   1.079   3.410  0.5891  0.3991  0.1718
18047TIP3    H175556   3.108   1.006   3.355  0.6027  1.0887 -0.7589
18047TIP3    H275557   3.193   1.039   3.476 -1.2408 -0.7876  1.0864
18048TIP3   OH275558   4.155   3.356   4.810  0.4876 -0.4661  0.6986
18048TIP3    H175559   4.175   3.302   4.886 -1.1660 -4.4513 -1.5589
18048TIP3    H275560   4.229   3.345   4.751 -0.8127 -2.0984 -0.6869
18049TIP3   OH275561   2.893   5.920   3.462  0.0971 -0.0589 -0.2337
18049TIP3    H175562   2.894   5.829   3.432  0.7477  0.1013 -0.7235
18049TIP3    H275563   2.846   5.967   3.394 -0.5733 -0.0925  0.2102
18050TIP3   OH275564   3.095   1.727   4.919  0.3521  0.1174 -0.6472
18050TIP3    H175565   3.144   1.755   4.996  1.4075  0.9466 -1.6160
18050TIP3    H275566   3.162   1.697   4.857 -0.4968 -0.6863 -1.1995
18051TIP3   OH275567   2.441   0.786   4.982  0.1799 -0.1544  0.1827
18051TIP3    H175568   2.372   0.791   5.047  2.0091 -0.9235  2.2339
18051TIP3    H275569   2.478   0.874   4.980 -1.1234  0.3942 -1.2798
18052TIP3   OH275570   5.850   3.480   3.394  0.2520  0.3223 -0.6335
18052TIP3    H175571   5.775   3.468   3.452 -0.3812  0.9218 -1.3295
18052TIP3    H275572   5.856   3.399   3.344  0.0729  0.2718 -0.5709
18053TIP3   OH275573   6.276   3.115   5.840 -0.2024  0.6916 -0.0689
18053TIP3    H175574   6.242   3.154   5.921 -4.1954 -1.5960 -0.4849
18053TIP3    H275575   6.330   3.042   5.869  0.0567  1.1308  0.5617
18054TIP3   OH275576   3.498   1.385   4.776  0.0607 -0.5633  0.4029
18054TIP3    H175577   3.518   1.291   4.773 -0.8164 -0.7595  0.4431
18054TIP3    H275578   3.418   1.390   4.829 -0.5468  0.0945 -0.5701
18055TIP3   OH275579   5.122   2.402   4.802  0.0607 -0.3191  0.4184
18055TIP3    H175580   5.213   2.380   4.781  0.4188 -0.2859  1.8567
18055TIP3    H275581   5.103   2.352   4.881 -0.8681  0.4023  0.6624
18056TIP3   OH275582   0.188   4.659   4.305 -0.3538  0.1844  0.2502
18056TIP3    H175583   0.207   4.670   4.398 -1.0943 -0.4565  0.4922
18056TIP3    H275584   0.194   4.747   4.268  1.8165  0.1873  0.5308
18057TIP3   OH275585   6.075   1.825   5.180  0.1186 -0.9020  0.0051
18057TIP3    H175586   5.987   1.814   5.143  1.2561 -1.3436 -2.6621
18057TIP3    H275587   6.097   1.916   5.161  0.8021 -1.2014 -0.6782
18058TIP3   OH275588   6.893   0.199   4.591  0.5554  0.1737 -0.1976
18058TIP3    H175589   6.864   0.272   4.646 -1.6930 -0.3884 -0.5644
18058TIP3    H275590   6.890   0.123   4.649  3.1178  0.3597  0.2478
18059TIP3   OH275591   5.574   1.904   3.611  0.1800 -0.2474  0.5715
18059TIP3    H175592   5.612   1.985   3.578 -1.1527  0.4387  0.6659
18059TIP3    H275593   5.636   1.835   3.585  1.3169  0.8030  0.5056
18060TIP3   OH275594   3.405   3.062   5.591  0.2740 -0.1766 -0.1508
18060TIP3    H175595   3.453   3.014   5.659 -0.5474 -0.7607  0.0275
18060TIP3    H275596   3.428   3.154   5.605  0.9323 -0.3993  0.2529
18061TIP3   OH275597   6.688   1.703   5.100 -0.0305  0.6118 -0.0546
18061TIP3    H175598   6.680   1.747   5.185  0.8764 -2.6526  1.7965
18061TIP3    H275599   6.630   1.627   5.106  0.6609 -0.1130 -2.0635
18062TIP3   OH275600   1.904   6.224   3.742  0.2511  0.2535  0.3495
18062TIP3    H175601   1.841   6.211   3.812 -0.3562  0.3182 -0.1841
18062TIP3    H275602   1.888   6.153   3.680  0.7086  0.2610  0.2161
18063TIP3   OH275603   4.237   3.278   5.043 -0.2266 -0.1921 -0.0083
18063TIP3    H175604   4.220   3.187   5.069 -0.2050  0.4049  2.2490
18063TIP3    H275605   4.168   3.328   5.088  1.2461  1.1476  0.7929
18064TIP3   OH275606   5.103   1.043   4.039 -0.2685  0.1359  0.1843
18064TIP3    H175607   5.054   1.035   4.120 -0.7828 -0.0471 -0.1407
18064TIP3    H275608   5.192   1.067   4.066 -0.1630 -0.9960  0.8512
18065TIP3   OH275609   4.386   2.117   6.406  0.3563  0.8101 -0.2711
18065TIP3    H175610   4.440   2.144   6.332  0.0264  1.6877 -0.2004
18065TIP3    H275611   4.296   2.134   6.378  0.2525  1.5554  0.4990
18066TIP3   OH275612   1.998   2.968   5.218 -0.0834  0.2228  0.5269
18066TIP3    H175613   1.907   2.995   5.204 -0.5989  0.7701  4.3970
18066TIP3    H275614   1.992   2.873   5.231  0.2958 -0.1671 -1.9257
18067TIP3   OH275615   3.608   3.313   3.624  0.4095  0.6060  0.3283
18067TIP3    H175616   3.552   3.274   3.556 -0.5227  1.9802  0.2923
18067TIP3    H275617   3.653   3.384   3.579 -0.3054  1.5964  1.1673
18068TIP3   OH275618   4.375   4.829   4.972 -0.2428  0.3213 -0.5594
18068TIP3    H175619   4.407   4.908   4.929 -0.7253  0.5046 -0.5827
18068TIP3    H275620   4.445   4.764   4.957  0.0140  0.6510 -0.8028
18069TIP3   OH275621   2.009   5.425   2.758 -0.3352 -0.0487  0.4011
18069TIP3    H175622   1.963   5.449   2.678  0.0846 -1.4932 -0.2975
18069TIP3    H275623   1.963   5.347   2.789 -0.4035  0.4159  1.4937
18070TIP3   OH275624   6.456   0.854   4.703  0.6720 -0.0654 -0.0715
18070TIP3    H175625   6.550   0.850   4.684  0.4215 -1.2373 -1.0592
18070TIP3    H275626   6.451   0.859   4.798  1.7684  0.9968 -0.0578
18071TIP3   OH275627   0.422   4.389   3.857  0.1259 -0.3919  0.0221
18071TIP3    H175628   0.376   4.423   3.780 -0.7248  1.1180  1.1964
18071TIP3    H275629   0.354   4.373   3.921  1.1084  0.8697  1.4052
18072TIP3   OH275630   3.937   4.492   4.396 -0.5175 -0.2785  0.2720
18072TIP3    H175631   3.942   4.495   4.492 -0.2555  0.5635  0.2323
18072TIP3    H275632   3.876   4.420   4.378  2.0908 -2.7891  0.9931
18073TIP3   OH275633   5.720   6.554   4.904  0.5230 -0.0035  0.0663
18073TIP3    H175634   5.748   6.629   4.851  0.2783  1.5657  2.0778
18073TIP3    H275635   5.791   6.542   4.967  1.1764 -2.3489 -1.0433
18074TIP3   OH275636   4.915   3.729   2.111  0.2299 -0.1328  0.7200
18074TIP3    H175637   4.949   3.652   2.066 -1.5412 -0.8665  0.6243
18074TIP3    H275638   4.868   3.694   2.187 -0.1669  0.8756  0.9480
18075TIP3   OH275639   6.621   4.770   3.971 -0.2806  0.1905 -0.1170
18075TIP3    H175640   6.590   4.834   3.907 -0.2142  0.9108  0.5604
18075TIP3    H275641   6.549   4.763   4.034  0.2389  0.5768  0.5212
18076TIP3   OH275642   0.512   0.089   4.748  0.1461 -0.4195  0.0668
18076TIP3    H175643   0.427   0.055   4.775  0.1367 -0.5402 -0.1127
18076TIP3    H275644   0.532   0.042   4.667 -0.3821  0.8048 -0.7870
18077TIP3   OH275645   7.104   2.303   4.976 -0.8272  0.0706  0.4306
18077TIP3    H175646   7.195   2.329   4.990 -0.7807  0.7124 -0.9497
18077TIP3    H275647   7.107   2.208   4.964  0.2006  0.5075 -3.4757
18078TIP3   OH275648   0.910   3.361   4.395 -0.2046  0.5228 -0.0326
18078TIP3    H175649   0.890   3.424   4.464  0.1247  1.5616 -0.8647
18078TIP3    H275650   1.000   3.334   4.413  0.2766  1.6465 -0.6857
18079TIP3   OH275651   6.199   2.628   4.853  0.2356 -0.1309  0.3146
18079TIP3    H175652   6.147   2.589   4.784  0.2839  0.5695 -0.1203
18079TIP3    H275653   6.240   2.554   4.898 -3.0106 -0.8637  2.2069
18080TIP3   OH275654   6.452   3.188   5.567  0.1112 -0.7962  0.0524
18080TIP3    H175655   6.374   3.214   5.518  0.0911 -0.5488  0.2169
18080TIP3    H275656   6.507   3.266   5.569  0.0782 -0.7834  0.4935
18081TIP3   OH275657   5.528   3.393   4.874  0.1852 -0.4890  0.4625
18081TIP3    H175658   5.609   3.356   4.909  1.6056  2.8395  0.8885
18081TIP3    H275659   5.482   3.427   4.950 -0.3254  0.0293 -0.0728
18082TIP3   OH275660   5.128   6.891   4.650  0.6648  0.0495 -0.7982
18082TIP3    H175661   5.105   6.967   4.703 -0.1423  1.1255 -2.6299
18082TIP3    H275662   5.174   6.833   4.710 -0.5812  1.0353  1.1643
18083TIP3   OH275663   6.753   1.457   4.182  0.5048  0.5208  0.0670
18083TIP3    H175664   6.683   1.491   4.238  1.6897 -0.8236  2.4806
18083TIP3    H275665   6.739   1.362   4.183  1.7176  0.3349 -0.3084
18084TIP3   OH275666   4.949   3.711   4.365  0.0799 -0.6146 -0.0772
18084TIP3    H175667   5.043   3.703   4.353  0.3903  1.7070  0.5628
18084TIP3    H275668   4.933   3.675   4.452  0.1996 -1.9087 -0.5659
18085TIP3   OH275669   0.261   0.967   5.694  1.0142 -0.4697  0.0788
18085TIP3    H175670   0.247   0.891   5.750  1.1482 -0.4372  0.1566
18085TIP3    H275671   0.329   1.018   5.738  1.8842 -0.9901 -0.6484
18086TIP3   OH275672   0.424   4.449  15.941 -0.1778 -0.2042  0.0082
18086TIP3    H175673   0.376   4.518  15.895 -0.6656 -0.7965 -0.3809
18086TIP3    H275674   0.425   4.376  15.879  0.9058 -0.3174  0.1656
18087TIP3   OH275675   0.069   3.108   5.278  0.6171  0.0215  0.4268
18087TIP3    H175676   0.155   3.120   5.318  0.5655  1.3195  0.1817
18087TIP3    H275677   0.075   3.153   5.194 -0.4741  0.6319  0.6596
18088TIP3   OH275678   6.537   1.013   2.123 -0.0225 -0.1528 -0.7209
18088TIP3    H175679   6.514   1.011   2.216  0.3271 -0.4472 -0.6393
18088TIP3    H275680   6.617   1.065   2.120 -0.8091  1.0646 -1.0318
18089TIP3   OH275681   7.029   3.711   4.353 -0.6712 -0.1640  0.4389
18089TIP3    H175682   6.942   3.745   4.332 -0.7778  0.2758  1.5538
18089TIP3    H275683   7.048   3.650   4.282 -1.3501  0.6796 -0.4938
18090TIP3   OH275684   5.443   2.195   3.552 -0.1527 -0.2987 -0.5097
18090TIP3    H175685   5.449   2.149   3.469  1.8166 -1.3051  0.1462
18090TIP3    H275686   5.521   2.252   3.554 -0.4453  0.0919  0.4160
18091TIP3   OH275687   7.272   1.201   5.807 -0.0513  0.5991  0.2264
18091TIP3    H175688   7.321   1.259   5.866  1.3034  0.9984 -1.2416
18091TIP3    H275689   7.289   1.113   5.840  0.3134  0.8515  0.7188
18092TIP3   OH275690   5.222   4.025   4.298 -0.2326  0.4843 -0.2999
18092TIP3    H175691   5.286   3.972   4.345  0.7550  1.2911 -0.7349
18092TIP3    H275692   5.143   4.020   4.352  0.4550  0.2054  0.6853
18093TIP3   OH275693   4.765   3.401   4.130 -0.5806  0.4119  0.0454
18093TIP3    H175694   4.751   3.494   4.149  0.1787  0.3031  1.1616
18093TIP3    H275695   4.677   3.366   4.116 -0.9628  1.0298  0.8671
18094TIP3   OH275696   6.311   5.390   5.089 -0.2448  0.1755  0.1968
18094TIP3    H175697   6.337   5.321   5.150  0.9837 -0.7728 -1.3516
18094TIP3    H275698   6.237   5.353   5.040  0.4317 -0.0509 -0.6550
18095TIP3   OH275699   0.248   2.976   5.775 -0.0862  0.2605 -0.5936
18095TIP3    H175700   0.251   2.964   5.869  0.5104 -1.3780 -0.8077
18095TIP3    H275701   0.317   2.920   5.741  0.6652  1.9432 -1.9152
18096TIP3   OH275702   0.258   3.674   4.750 -0.4059 -0.6972  0.2089
18096TIP3    H175703   0.252   3.689   4.656  0.4488 -0.7837  0.1372
18096TIP3    H275704   0.288   3.584   4.759 -1.1799 -0.9272  0.5835
18097TIP3   OH275705   5.873   2.619   5.258 -0.0193  0.1554  0.2905
18097TIP3    H175706   5.778   2.620   5.271 -0.2709  0.2857 -1.4732
18097TIP3    H275707   5.900   2.531   5.285 -0.8204 -0.3036 -0.3664
18098TIP3   OH275708   7.282   1.382   4.406 -0.4804  0.6853  0.3604
18098TIP3    H175709   7.250   1.302   4.364  1.2007  1.0143 -1.6644
18098TIP3    H275710   7.204   1.433   4.425 -1.2816  1.1293 -3.7151
18099TIP3   OH275711   5.391   5.436   5.274 -0.0161  0.0146 -0.2093
18099TIP3    H175712   5.298   5.460   5.275 -0.1241 -0.4178  0.4651
18099TIP3    H275713   5.420   5.454   5.185 -0.4542  1.2822 -0.1071
18100TIP3   OH275714   5.286   1.974   4.807 -0.6715 -0.2366  0.3070
18100TIP3    H175715   5.308   2.062   4.838  0.6993 -0.3226 -0.3946
18100TIP3    H275716   5.197   1.960   4.838 -1.1596  1.6781 -0.1658
18101TIP3   OH275717   0.128   5.863   2.802 -0.1780 -0.2761 -0.0160
18101TIP3    H175718   0.160   5.952   2.811 -1.5370  0.3421 -1.1500
18101TIP3    H275719   0.163   5.817   2.879 -0.8582  1.6340  1.4620
18102TIP3   OH275720   5.128   5.432   5.224  0.4883 -0.0716  0.1783
18102TIP3    H175721   5.078   5.356   5.254  0.6228 -0.7099 -1.1810
18102TIP3    H275722   5.098   5.447   5.134  0.4149  1.5350  0.4522
18103TIP3   OH275723   5.271   3.192   3.557  0.0214  0.1535  0.2715
18103TIP3    H175724   5.192   3.179   3.611 -0.7749  0.8931 -0.7022
18103TIP3    H275725   5.238   3.232   3.477  1.1291 -1.4718 -1.0046
18104TIP3   OH275726   5.175   2.135   3.053  0.2883 -0.2796 -0.0475
18104TIP3    H175727   5.118   2.106   2.981 -0.1923  3.0207 -1.0849
18104TIP3    H275728   5.166   2.067   3.120 -1.8076 -1.7830 -1.7976
18105TIP3   OH275729   7.155   0.057   4.875  0.8714 -0.2615  0.1864
18105TIP3    H175730   7.069   0.095   4.890  1.1365  1.2044 -1.7742
18105TIP3    H275731   7.145   0.007   4.793  1.4406 -1.5773  0.8966
18106TIP3   OH275732   4.639   6.849   5.465 -0.1000 -0.1799 -0.1175
18106TIP3    H175733   4.678   6.871   5.550  0.7000  0.6479 -0.6908
18106TIP3    H275734   4.589   6.927   5.441 -0.8688 -0.6680 -0.0954
18107TIP3   OH275735   0.101   1.540   5.656 -0.2858  0.1356 -0.2037
18107TIP3    H175736   0.052   1.540   5.738  0.7622  0.6453  0.4350
18107TIP3    H275737   0.114   1.448   5.635  1.2345 -0.0175  1.3051
18108TIP3   OH275738   4.328   3.324   3.283  0.0059  0.3727 -1.1224
18108TIP3    H175739   4.397   3.269   3.320  1.2212  1.3817 -1.8452
18108TIP3    H275740   4.303   3.384   3.354 -0.6703 -0.4846 -0.6269
18109TIP3   OH275741   3.846   2.828   1.832 -0.3678 -0.1947 -0.5003
18109TIP3    H175742   3.765   2.851   1.878  0.3112 -1.6744  1.5175
18109TIP3    H275743   3.894   2.911   1.825 -1.6679  0.5235 -0.9155
18110TIP3   OH275744   6.514   2.062   1.987  0.4510  0.4669  0.1830
18110TIP3    H175745   6.483   2.141   2.031  0.2494 -0.5655  1.9591
18110TIP3    H275746   6.434   2.017   1.960  0.4688 -0.4419  1.5886
18111TIP3   OH275747   5.969   3.927   5.877 -0.1509 -0.5232  0.4762
18111TIP3    H175748   5.878   3.949   5.895  0.0659  0.0997  0.8252
18111TIP3    H275749   6.020   3.987   5.932  0.4677 -0.8134  0.2263
18112TIP3   OH275750   1.956   5.006   4.288  0.0636 -0.3439  0.2763
18112TIP3    H175751   1.890   5.050   4.236 -0.6998  0.6990  2.0972
18112TIP3    H275752   2.039   5.028   4.246 -0.5133  0.8006 -0.2585
18113TIP3   OH275753   3.945   4.947   4.764 -0.5891  0.0439  0.0338
18113TIP3    H175754   3.896   4.939   4.845 -1.2280 -0.8724 -0.4344
18113TIP3    H275755   4.009   4.875   4.766 -0.1982  0.3851  0.0007
18114TIP3   OH275756   5.968   2.830   4.694  0.8876 -0.2001  0.2597
18114TIP3    H175757   5.885   2.864   4.725  0.1340 -1.8738  0.1479
18114TIP3    H275758   5.961   2.834   4.598  1.6262  1.2542  0.2586
18115TIP3   OH275759   0.389   2.068   4.270  0.3722  0.0324 -0.0509
18115TIP3    H175760   0.325   2.082   4.200 -1.6453 -0.4463  1.6276
18115TIP3    H275761   0.377   1.976   4.294  1.3317  0.0904  0.6627
18116TIP3   OH275762   0.270   4.187   3.287 -0.3824  0.2053  0.2647
18116TIP3    H175763   0.329   4.197   3.213 -3.1374 -0.4567 -2.1374
18116TIP3    H275764   0.294   4.104   3.327  0.9119  0.4223 -0.0392
18117TIP3   OH275765   6.898   2.590   6.158  0.5432  0.4622  0.2305
18117TIP3    H175766   6.964   2.648   6.120 -0.1129  1.1120  0.0853
18117TIP3    H275767   6.927   2.502   6.133  1.8478  0.6826  0.9368
18118TIP3   OH275768   5.038   2.976   3.323  0.2011  0.5034  0.2237
18118TIP3    H175769   4.995   2.920   3.387  1.3114  0.5450  1.0271
18118TIP3    H275770   5.013   3.065   3.348  0.5464  0.5134  0.5315
18119TIP3   OH275771   4.513   4.490   3.683  0.0015 -0.0996  0.3056
18119TIP3    H175772   4.497   4.582   3.663  0.8027  0.0235  0.2476
18119TIP3    H275773   4.606   4.477   3.667 -0.0770 -0.8853  0.4600
18120TIP3   OH275774   2.087   6.640   5.154 -0.3834 -0.0067 -0.4445
18120TIP3    H175775   2.072   6.665   5.062 -1.2639 -0.3273 -0.3891
18120TIP3    H275776   2.086   6.723   5.201 -1.3005  0.0394 -0.5400
18121TIP3   OH275777   5.967   1.434   3.890 -0.1507 -1.1432  0.1844
18121TIP3    H175778   5.873   1.423   3.903 -0.4971 -0.1195 -1.3634
18121TIP3    H275779   5.988   1.377   3.817  0.1711 -0.3068 -0.3826
18122TIP3   OH275780   1.766   1.307   5.238  0.4693  0.1209 -0.3694
18122TIP3    H175781   1.847   1.345   5.203  0.2779 -1.1035 -2.2226
18122TIP3    H275782   1.702   1.378   5.234  0.4474  0.0190 -2.6082
18123TIP3   OH275783   6.121   6.233   2.705 -0.0176  0.3807  0.0298
18123TIP3    H175784   6.062   6.170   2.662  2.2760 -1.2992 -0.7318
18123TIP3    H275785   6.132   6.198   2.793 -0.4990  0.9442  0.3153
18124TIP3   OH275786   4.072   6.486   3.768 -0.2572  0.0346 -0.4088
18124TIP3    H175787   4.101   6.410   3.718  1.2629  1.2505 -1.4051
18124TIP3    H275788   4.151   6.517   3.813 -0.7529  1.3369 -0.4173
18125TIP3   OH275789   6.347   5.693   3.991  0.2520 -0.5204 -0.6588
18125TIP3    H175790   6.290   5.711   4.066 -2.0603 -3.1993 -1.6911
18125TIP3    H275791   6.315   5.751   3.922 -1.3702 -2.0661 -1.2577
18126TIP3   OH275792   0.073   3.276   5.986 -0.5866  0.6302 -0.3121
18126TIP3    H175793   0.030   3.324   6.057 -0.7975  1.3697 -0.9229
18126TIP3    H275794   0.121   3.206   6.029  0.2601  1.7927  0.6666
18127TIP3   OH275795   1.453   4.142   4.710  0.1997 -0.3391 -0.1601
18127TIP3    H175796   1.406   4.221   4.738 -1.6123 -1.4023 -0.0948
18127TIP3    H275797   1.459   4.088   4.788  2.7680  0.3218  0.1541
18128TIP3   OH275798   3.643   0.784   3.430 -0.0027  0.3644  0.1141
18128TIP3    H175799   3.612   0.730   3.503  1.0905  1.4073  1.4104
18128TIP3    H275800   3.736   0.762   3.422  0.0466  0.7806 -0.4776
18129TIP3   OH275801   1.159   2.536   4.256  0.5840  0.3203  0.0348
18129TIP3    H175802   1.187   2.580   4.175 -0.4221  1.5649  0.3552
18129TIP3    H275803   1.118   2.605   4.308  0.9652 -0.5353  1.4988
18130TIP3   OH275804   5.754   1.372   4.039 -0.0645  0.1260  0.2023
18130TIP3    H175805   5.781   1.282   4.021 -0.2274 -0.1880  1.5027
18130TIP3    H275806   5.668   1.363   4.080 -0.1313  0.8890  0.2273
18131TIP3   OH275807   4.856   2.527   5.022 -1.6258  0.1138  0.7263
18131TIP3    H175808   4.857   2.446   5.073 -0.7634  0.7705  1.7640
18131TIP3    H275809   4.802   2.587   5.073 -2.3578  0.1803 -0.0970
18132TIP3   OH275810   2.045   1.581   3.923 -0.4454  0.5372  0.0342
18132TIP3    H175811   2.072   1.536   4.002  2.0344  1.1790 -0.4134
18132TIP3    H275812   2.086   1.667   3.928  0.7962  0.1540 -2.5076
18133TIP3   OH275813   6.885   3.434   5.560  0.1396  0.3694 -0.1893
18133TIP3    H175814   6.863   3.350   5.520  0.3969  0.9271 -1.5234
18133TIP3    H275815   6.907   3.491   5.486  0.6880  1.3968  0.7508
18134TIP3   OH275816   0.928   6.631   4.283 -0.8221 -0.2491  0.4293
18134TIP3    H175817   0.836   6.618   4.258 -0.7284  1.6635 -1.0413
18134TIP3    H275818   0.935   6.726   4.298  1.2269 -0.1825 -0.7832
18135TIP3   OH275819   4.100   3.603   4.451  0.2396  0.3858  0.0036
18135TIP3    H175820   4.043   3.534   4.487  0.3582 -1.6411 -3.4650
18135TIP3    H275821   4.120   3.659   4.526 -2.3528 -1.6255  2.3152
18136TIP3   OH275822   6.478   2.393   2.271  0.7046  0.1736  0.5835
18136TIP3    H175823   6.389   2.411   2.301  0.9714  0.9788  0.9070
18136TIP3    H275824   6.501   2.469   2.217  1.5229  0.3827  1.2277
18137TIP3   OH275825   5.529   2.387   4.250  0.1714 -0.3113  0.3336
18137TIP3    H175826   5.502   2.478   4.255 -0.1422 -0.4433  1.0723
18137TIP3    H275827   5.622   2.387   4.271  0.2881 -0.1087 -0.1620
18138TIP3   OH275828   5.033   4.964   4.995 -0.0692 -0.0433 -0.3480
18138TIP3    H175829   4.952   4.993   4.954 -0.1448  1.3313  0.7309
18138TIP3    H275830   5.006   4.899   5.059 -0.3473  0.4954  0.0900
18139TIP3   OH275831   7.248   7.021   4.052  0.2164 -0.5741  0.0160
18139TIP3    H175832   7.225   7.104   4.093  0.2132 -1.5723  2.1099
18139TIP3    H275833   7.344   7.023   4.046  0.2422 -0.5539  0.3987
18140TIP3   OH275834   4.688   4.941   3.223 -0.1185 -0.5917 -0.3204
18140TIP3    H175835   4.673   4.872   3.158 -0.5983  1.1806 -2.1057
18140TIP3    H275836   4.755   4.997   3.185  1.7712 -1.1472  2.0195
18141TIP3   OH275837   0.234   3.077   0.917 -0.3892  0.0337  0.1776
18141TIP3    H175838   0.180   3.127   0.978 -1.6005  1.0924 -1.6841
18141TIP3    H275839   0.320   3.119   0.921 -0.4046 -0.0368  1.2902
18142TIP3   OH275840   5.772   1.469   4.331  0.7645 -0.0891  0.5183
18142TIP3    H175841   5.781   1.531   4.259  2.3163 -0.4680  0.3702
18142TIP3    H275842   5.794   1.521   4.409  0.1368  0.0484  0.6030
18143TIP3   OH275843   4.330   1.274   5.215 -0.1019  0.0311 -0.3235
18143TIP3    H175844   4.381   1.235   5.286  1.0396  0.7894 -0.7130
18143TIP3    H275845   4.314   1.363   5.244 -1.5835 -0.3293 -0.0192
18144TIP3   OH275846   2.377   2.643   4.399  0.1257 -0.0586 -0.0507
18144TIP3    H175847   2.290   2.679   4.416  0.6085  0.5933  1.0622
18144TIP3    H275848   2.402   2.681   4.315 -0.3329  0.3715  0.0017
18145TIP3   OH275849   0.073   2.425   0.782 -0.4773  0.7290  0.2493
18145TIP3    H175850   0.107   2.480   0.712 -2.0115  1.7908  0.3042
18145TIP3    H275851   0.019   2.360   0.738 -1.7927  1.6598  0.4428
18146TIP3   OH275852   0.218   0.164   5.831  0.5101  0.6847 -0.2245
18146TIP3    H175853   0.195   0.246   5.875 -1.2102  0.0751  0.0522
18146TIP3    H275854   0.209   0.097   5.900 -0.5957 -0.0685 -1.0976
18147TIP3   OH275855   1.048   3.051   2.140 -0.5689 -0.8046 -0.0670
18147TIP3    H175856   1.039   2.964   2.181  3.2129 -1.0851  0.4102
18147TIP3    H275857   1.032   3.112   2.212 -0.1012 -1.2010  0.3900
18148TIP3   OH275858   1.345   4.739   4.213  0.6475 -0.0350  0.7518
18148TIP3    H175859   1.420   4.725   4.156  1.2628  1.7560  1.0736
18148TIP3    H275860   1.315   4.827   4.191 -1.0655 -0.5486  0.9703
18149TIP3   OH275861   3.047   2.702   2.641 -0.0647 -0.3148  0.3313
18149TIP3    H175862   2.962   2.657   2.648  0.9508 -2.3458 -0.1119
18149TIP3    H275863   3.108   2.634   2.614  2.0519  0.7393  2.2555
18150TIP3   OH275864   4.123   5.920   4.973  0.1114  0.3256 -0.6306
18150TIP3    H175865   4.047   5.885   4.927  0.1697 -0.7179  0.0539
18150TIP3    H275866   4.086   5.969   5.047  0.0791  0.2945 -0.6266
18151TIP3   OH275867   0.460   3.536   4.598 -0.4963 -0.3965  0.2970
18151TIP3    H175868   0.459   3.627   4.568 -1.4321 -0.6385 -0.4359
18151TIP3    H275869   0.513   3.490   4.533 -0.8495 -0.5502  0.1141
18152TIP3   OH275870   0.336   3.842   5.495 -0.6142 -0.2284  0.5911
18152TIP3    H175871   0.261   3.814   5.442 -0.7771  1.5534 -0.1279
18152TIP3    H275872   0.297   3.873   5.577 -0.4389 -1.9167  1.3447
18153TIP3   OH275873   6.080   2.396   5.590  0.0833  0.3430  0.1380
18153TIP3    H175874   6.173   2.391   5.612  0.3732  3.1516 -0.2652
18153TIP3    H275875   6.039   2.438   5.665 -0.9769 -1.3189  0.5221
18154TIP3   OH275876   3.915   3.010   3.848 -0.6025 -0.2099  0.3723
18154TIP3    H175877   3.845   2.963   3.804  0.1783 -0.6844 -0.3594
18154TIP3    H275878   3.923   3.092   3.799  0.3938 -0.8194 -0.4878
18155TIP3   OH275879   0.281   4.048   1.653  0.2619 -0.0027 -0.0104
18155TIP3    H175880   0.204   4.052   1.596  0.1603  2.4524  0.2581
18155TIP3    H275881   0.253   3.998   1.729 -0.9962  0.6792 -0.0207
18156TIP3   OH275882   2.975   3.150   3.084  0.4295 -0.0999 -0.5601
18156TIP3    H175883   2.903   3.088   3.073  0.9593 -1.2598  2.1951
18156TIP3    H275884   2.940   3.215   3.145  0.8935  0.7136 -1.1479
18157TIP3   OH275885   5.486   5.550   3.989  0.3585 -0.5368  0.4067
18157TIP3    H175886   5.542   5.503   3.927  0.6878  0.4849 -0.0839
18157TIP3    H275887   5.439   5.481   4.036  1.4776 -1.3855  0.3085
18158TIP3   OH275888   5.045   4.046   1.128 -0.2239 -0.1569  0.4682
18158TIP3    H175889   5.043   4.117   1.192 -1.2116 -0.7296  1.0842
18158TIP3    H275890   4.985   3.980   1.163  1.2806 -1.6619  0.3472
18159TIP3   OH275891   7.053   4.923   5.368 -0.0370 -0.5319  0.6768
18159TIP3    H175892   7.000   4.920   5.447  1.3421  0.6925  1.6801
18159TIP3    H275893   7.137   4.885   5.394 -0.6680 -3.3611 -1.1449
18160TIP3   OH275894   6.861   2.488   1.388  0.4611 -0.1093  0.2690
18160TIP3    H175895   6.778   2.440   1.391  0.5651 -0.2586  1.1092
18160TIP3    H275896   6.926   2.425   1.419  0.3946  0.9532  2.6751
18161TIP3   OH275897   3.762   6.998   3.349  0.1437  0.6527 -0.4544
18161TIP3    H175898   3.741   7.083   3.310 -0.5790 -0.2502 -2.0844
18161TIP3    H275899   3.730   7.005   3.439  0.7244  2.3493 -0.3598
18162TIP3   OH275900   7.301   0.140   5.091 -0.0256 -0.5557  0.2664
18162TIP3    H175901   7.251   0.131   5.173  0.3807 -0.6687  0.5010
18162TIP3    H275902   7.239   0.115   5.023 -0.3475 -0.5253  0.5452
18163TIP3   OH275903   6.635   4.946   3.389 -0.7664 -0.0329  0.0557
18163TIP3    H175904   6.591   4.991   3.461  0.0681  0.4798  0.2590
18163TIP3    H275905   6.698   5.010   3.355 -0.0359 -0.8097 -0.0938
18164TIP3   OH275906   6.597   3.185   3.241  0.2545  0.3879 -0.3697
18164TIP3    H175907   6.560   3.200   3.155 -0.6603 -2.0982 -0.4731
18164TIP3    H275908   6.663   3.117   3.227  0.1227 -0.0134  0.8582
18165TIP3   OH275909   0.113   4.536   5.656  0.2193  0.2371  0.2765
18165TIP3    H175910   0.128   4.587   5.577 -0.9908 -0.2138 -0.2534
18165TIP3    H275911   0.200   4.526   5.695  0.6871  1.2603 -0.4996
18166TIP3   OH275912   6.870   4.590   2.802  0.9465 -0.4670  0.4392
18166TIP3    H175913   6.778   4.565   2.805  0.3785  1.2299 -1.9084
18166TIP3    H275914   6.883   4.639   2.883 -1.0959  2.0622 -0.6945
18167TIP3   OH275915   5.587   0.402   4.011 -0.2223 -0.0806 -0.5555
18167TIP3    H175916   5.534   0.481   4.021 -2.0868 -1.4366  0.5688
18167TIP3    H275917   5.581   0.381   3.918  1.0841  1.6054 -1.0525
18168TIP3   OH275918   0.323   5.738   4.999  0.0107  0.3566 -0.1509
18168TIP3    H175919   0.391   5.789   4.955  0.1531  0.2936 -0.0013
18168TIP3    H275920   0.349   5.736   5.091  0.0820 -0.1124 -0.1805
18169TIP3   OH275921   4.845   5.618   5.238  0.1167  0.3758 -0.1583
18169TIP3    H175922   4.927   5.596   5.193 -0.3304 -0.5127 -0.5290
18169TIP3    H275923   4.835   5.712   5.223  0.5086  0.2853 -1.0383
18170TIP3   OH275924   7.250   2.412   3.036 -0.4270  0.7995 -0.2930
18170TIP3    H175925   7.184   2.478   3.017 -0.9079  0.3878 -0.0967
18170TIP3    H275926   7.252   2.356   2.959 -3.3928 -1.7005  1.3311
18171TIP3   OH275927   5.367   1.227   1.592 -0.8494 -0.2928  0.3238
18171TIP3    H175928   5.436   1.222   1.659  0.1731  0.6868 -0.6368
18171TIP3    H275929   5.405   1.184   1.516 -1.0338  0.8725 -0.4375
18172TIP3   OH275930   4.861   4.698   5.414 -0.1053  0.7770 -0.0984
18172TIP3    H175931   4.884   4.612   5.451  0.5954  0.5524 -1.0473
18172TIP3    H275932   4.837   4.751   5.490 -0.2778 -0.1743  0.5231
18173TIP3   OH275933   0.676   3.535   5.676 -0.6228 -0.5101 -0.5333
18173TIP3    H175934   0.602   3.493   5.721 -0.5452 -0.1312 -0.0437
18173TIP3    H275935   0.721   3.463   5.633  0.1338 -1.1093  1.2058
18174TIP3   OH275936   0.834   0.067   2.381  0.1626  0.0548  0.0915
18174TIP3    H175937   0.893   0.141   2.396  0.5556 -0.4737  1.2187
18174TIP3    H275938   0.804   0.042   2.468 -0.8248 -0.4262 -0.3773
18175TIP3   OH275939   6.538   2.318   3.542  0.0466 -0.3468  0.2530
18175TIP3    H175940   6.631   2.333   3.525 -0.0915  0.0233 -0.2135
18175TIP3    H275941   6.517   2.377   3.614 -0.0702  0.3729 -0.3605
18176TIP3   OH275942   7.056   0.431   2.209 -0.6675  0.2660  0.1291
18176TIP3    H175943   7.015   0.429   2.296 -0.0852  2.6039  0.4704
18176TIP3    H275944   7.090   0.519   2.200  1.0492 -0.5510 -1.6924
18177TIP3   OH275945   2.742   0.928   2.242  0.2600 -0.5952  0.3820
18177TIP3    H175946   2.685   0.889   2.175 -0.4803  2.3750 -0.7685
18177TIP3    H275947   2.686   0.933   2.320 -0.5425  0.7844 -0.2739
18178TIP3   OH275948   3.480   4.415   5.365 -0.2004  0.1042  1.1882
18178TIP3    H175949   3.399   4.436   5.410 -1.7882  0.6584 -1.7723
18178TIP3    H275950   3.466   4.445   5.275  2.1075 -2.6436 -0.1839
18179TIP3   OH275951   4.799   5.715   4.368  0.5180 -0.1024  0.0955
18179TIP3    H175952   4.821   5.795   4.321  0.0849 -0.0108  0.0514
18179TIP3    H275953   4.846   5.722   4.451 -1.0530  1.0909  0.9056
18180TIP3   OH275954   0.369   3.447   3.837 -0.4484  0.2625 -0.7049
18180TIP3    H175955   0.317   3.371   3.863  0.0249 -0.0790 -0.7472
18180TIP3    H275956   0.456   3.411   3.819 -0.4266  0.6853 -1.4941
18181TIP3   OH275957   4.578   4.871   1.346  0.3523 -0.3601 -0.0203
18181TIP3    H175958   4.571   4.821   1.428  1.2149 -2.0661 -0.9509
18181TIP3    H275959   4.634   4.945   1.367  0.4409 -0.7062  0.9674
18182TIP3   OH275960   7.215   7.085   3.420  0.3131  0.1953  0.4920
18182TIP3    H175961   7.287   7.148   3.434  0.9699 -0.3728 -0.3267
18182TIP3    H275962   7.150   7.135   3.371  0.0164  0.7953  1.4679
18183TIP3   OH275963   5.086   3.628   2.508 -0.2112  0.3628  0.2553
18183TIP3    H175964   5.036   3.590   2.580  1.2214 -0.5816  0.7729
18183TIP3    H275965   5.047   3.590   2.429 -2.3810  2.1002  0.4471
18184TIP3   OH275966   7.040   5.194   4.519 -0.2631 -0.1088  0.0506
18184TIP3    H175967   7.066   5.199   4.427 -0.2188  2.6013  0.1564
18184TIP3    H275968   6.969   5.257   4.527 -1.4242 -1.5557  1.5335
18185TIP3   OH275969   7.014   4.241   5.463 -0.1636  0.2491 -0.2486
18185TIP3    H175970   7.023   4.300   5.538  1.4489 -1.2367  0.7812
18185TIP3    H275971   7.083   4.176   5.476  0.3184  0.1143 -3.1846
18186TIP3   OH275972   0.700   3.024   0.992 -0.0372 -0.7840  0.1080
18186TIP3    H175973   0.742   3.098   1.036 -0.6197 -1.0456  1.1153
18186TIP3    H275974   0.754   3.008   0.915  1.3344 -0.7192  1.0551
18187TIP3   OH275975   6.058   1.152   4.950 -0.2234  0.2945  0.0816
18187TIP3    H175976   6.036   1.178   5.039 -0.9201  2.0754 -0.5970
18187TIP3    H275977   5.980   1.172   4.898 -0.1999 -1.6702 -0.7753
18188TIP3   OH275978   5.131   0.550   5.563  0.6932  0.6835  0.5384
18188TIP3    H175979   5.063   0.603   5.606  1.4291  0.7421  1.6616
18188TIP3    H275980   5.143   0.591   5.478  1.3105  2.4270  1.4257
18189TIP3   OH275981   6.818   1.322   5.514  0.4462 -0.0974  0.5011
18189TIP3    H175982   6.833   1.315   5.609  0.7210 -1.0742  0.3923
18189TIP3    H275983   6.791   1.235   5.487  2.5907 -0.4423 -0.6909
18190TIP3   OH275984   7.048   2.434   2.061  0.3245 -0.0254 -0.4165
18190TIP3    H175985   6.976   2.493   2.040  0.5145  0.4372  0.1968
18190TIP3    H275986   7.064   2.385   1.981 -1.1714 -0.6663 -0.3407
18191TIP3   OH275987   5.408   2.064   2.701  0.3030  0.1480  0.0505
18191TIP3    H175988   5.367   1.989   2.744  2.0340 -1.2660 -0.7093
18191TIP3    H275989   5.474   2.095   2.763 -0.4591  1.1300  0.3979
18192TIP3   OH275990   2.004   6.489   3.408 -0.0313  0.7876  0.0527
18192TIP3    H175991   2.033   6.497   3.317  0.7213 -3.1239 -0.1463
18192TIP3    H275992   2.006   6.578   3.442  3.0300  1.8981 -2.7873
18193TIP3   OH275993   2.841   5.530   4.693 -0.0097  0.3582  0.1348
18193TIP3    H175994   2.912   5.581   4.653  0.1822 -0.5095 -0.6443
18193TIP3    H275995   2.766   5.543   4.634  0.1825 -0.6589 -0.3437
18194TIP3   OH275996   7.109   0.491   2.998  0.5604 -0.1308 -0.0896
18194TIP3    H175997   7.033   0.466   2.945  0.5183  1.0969 -0.6317
18194TIP3    H275998   7.077   0.562   3.054  0.8185 -0.8752  1.0112
18195TIP3   OH275999   5.281   0.228   4.812 -0.5284 -0.1215  0.6438
18195TIP3    H176000   5.276   0.191   4.900 -2.2776 -1.1536  0.1389
18195TIP3    H276001   5.275   0.152   4.753  0.4223  0.5680 -0.3761
18196TIP3   OH276002   1.808   3.155   5.606  0.3220 -0.0715  0.4083
18196TIP3    H176003   1.871   3.183   5.673  0.9556 -1.5134  0.4400
18196TIP3    H276004   1.739   3.110   5.654 -0.7529  1.5005  0.3713
18197TIP3   OH276005   5.160   3.902   1.529 -0.1697 -0.3394  0.2164
18197TIP3    H176006   5.137   3.994   1.544 -0.5194 -0.3736 -0.0839
18197TIP3    H276007   5.076   3.857   1.529  0.1179 -0.8976  1.9307
18198TIP3   OH276008   3.858   3.578   3.228 -0.2087 -0.2109 -0.5110
18198TIP3    H176009   3.838   3.549   3.317  0.5778 -0.1366 -0.3051
18198TIP3    H276010   3.936   3.633   3.238 -1.0329  1.0688 -1.0527
18199TIP3   OH276011   6.355   2.399   5.690  0.7470 -0.2841 -0.6769
18199TIP3    H176012   6.357   2.344   5.768  1.0653 -2.3988 -2.1346
18199TIP3    H276013   6.438   2.447   5.693  0.6493 -0.1601  0.3926
18200TIP3   OH276014   0.190   2.033   5.475 -0.6828 -0.1301  0.1789
18200TIP3    H176015   0.230   1.997   5.554  1.3233 -0.4877 -0.9562
18200TIP3    H276016   0.162   1.956   5.425 -2.2062  0.1000  0.6443
18201TIP3   OH276017   4.790   3.015   4.832  1.1988  0.1630 -0.5991
18201TIP3    H176018   4.744   3.048   4.754  1.0539 -0.3683 -0.7394
18201TIP3    H276019   4.721   2.998   4.896  1.3087  0.5045 -0.3867
18202TIP3   OH276020   0.668   2.077   3.114 -0.1131  0.0776 -0.5787
18202TIP3    H176021   0.748   2.040   3.150 -0.5841 -0.2416  0.1451
18202TIP3    H276022   0.598   2.021   3.148 -0.7153  0.8417 -0.5441
18203TIP3   OH276023   0.410   1.766   3.906 -0.3120 -0.6120 -0.3660
18203TIP3    H176024   0.453   1.773   3.991 -1.3239 -0.8822  0.1695
18203TIP3    H276025   0.326   1.725   3.924 -1.0843  0.4983 -1.3135
18204TIP3   OH276026   6.925   2.268   5.490  0.1623 -0.3048  0.2429
18204TIP3    H176027   6.912   2.174   5.475 -1.2437  0.4085 -3.5797
18204TIP3    H276028   7.008   2.287   5.447  0.2861  0.2840  0.7429
18205TIP3   OH276029   0.121   3.008   4.726  0.3526 -1.0217  0.0630
18205TIP3    H176030   0.098   2.946   4.657 -1.5834 -0.0964 -0.1559
18205TIP3    H276031   0.185   3.066   4.687 -0.8808 -0.3800 -1.0534
18206TIP3   OH276032   1.678   2.147   4.554  0.3648  0.0458  0.0644
18206TIP3    H176033   1.741   2.087   4.514  0.0831 -0.7074  0.7302
18206TIP3    H276034   1.593   2.107   4.538  0.0069  1.3077 -1.2540
18207TIP3   OH276035   6.439   0.896   5.615  0.1793 -0.0031  0.0332
18207TIP3    H176036   6.390   0.970   5.581  1.4673  0.3220 -1.1858
18207TIP3    H276037   6.422   0.825   5.553  0.3930 -0.2011  0.1973
18208TIP3   OH276038   7.190   2.304   5.617  0.1923 -0.4310 -0.1918
18208TIP3    H176039   7.126   2.363   5.658 -0.0188 -0.1489 -0.9192
18208TIP3    H276040   7.248   2.278   5.689 -0.0780  0.1870  0.2577
18209TIP3   OH276041   4.952   1.805   4.773 -0.1575 -0.5395 -1.1405
18209TIP3    H176042   5.000   1.844   4.846 -1.0007 -1.2957 -0.1686
18209TIP3    H276043   4.934   1.878   4.714 -1.5602  0.5120  0.5553
18210TIP3   OH276044   4.288   4.161   5.487 -0.2105 -0.3355 -0.3397
18210TIP3    H176045   4.231   4.238   5.486  0.4063  0.1233 -1.8353
18210TIP3    H276046   4.236   4.093   5.530 -0.8711  0.8266  0.7216
18211TIP3   OH276047   5.372   2.600   4.256  0.1773  0.1710 -0.2701
18211TIP3    H176048   5.316   2.578   4.330  0.6449  2.0366  0.6697
18211TIP3    H276049   5.400   2.690   4.273  0.7569  0.4258 -2.4236
18212TIP3   OH276050   5.014   3.304   4.210  0.0907  0.1593  0.4562
18212TIP3    H176051   4.973   3.218   4.206 -0.3358  0.3957 -0.5481
18212TIP3    H276052   4.997   3.335   4.299 -0.5657 -0.3970  0.5291
18213TIP3   OH276053   5.077   3.490   2.022 -0.0538  1.0114  0.2550
18213TIP3    H176054   5.101   3.471   2.113  0.5315  1.4937  0.2072
18213TIP3    H276055   5.149   3.544   1.990 -0.4541  1.1663 -0.3772
18214TIP3   OH276056   0.013   4.272   5.098 -0.4421 -0.1543  0.2899
18214TIP3    H176057   0.048   4.225   5.023 -0.0355  0.2129  0.2505
18214TIP3    H276058  -0.079   4.288   5.076  0.1197  1.5368 -0.9087
18215TIP3   OH276059   6.755   4.013   5.576 -0.0937  0.3370  0.2847
18215TIP3    H176060   6.779   3.921   5.571  1.0115  0.6039  0.5507
18215TIP3    H276061   6.766   4.036   5.668 -1.2389  0.5160  0.3907
18216TIP3   OH276062   5.469   0.808   3.175  0.0664  0.3800 -0.2232
18216TIP3    H176063   5.406   0.736   3.172  1.2092 -0.5790 -1.2529
18216TIP3    H276064   5.490   0.825   3.084 -2.2911  3.8979 -0.2266
18217TIP3   OH276065   6.482   1.038   2.450 -0.1658  0.2238  0.6138
18217TIP3    H176066   6.426   1.075   2.519 -0.7041 -0.1754  0.3911
18217TIP3    H276067   6.469   0.944   2.457  4.2761 -0.2856  3.8479
18218TIP3   OH276068   7.185   3.925   5.081 -0.5110 -0.1819  0.2055
18218TIP3    H176069   7.156   3.838   5.106 -1.1261 -0.6343 -1.9309
18218TIP3    H276070   7.104   3.974   5.064 -0.1495  0.1157 -0.7407
18219TIP3   OH276071   6.495   4.416   5.403 -0.5446  0.5028 -0.6764
18219TIP3    H176072   6.437   4.341   5.387  0.2829  0.1887 -2.2618
18219TIP3    H276073   6.552   4.387   5.475  0.4652 -0.7902 -1.9811
18220TIP3   OH276074   5.703   2.336   4.587 -0.3584 -0.8766  0.0265
18220TIP3    H176075   5.647   2.409   4.614 -0.6868 -1.1691  0.1261
18220TIP3    H276076   5.681   2.265   4.647  0.0685 -1.0135  0.0239
18221TIP3   OH276077   5.878   0.807   4.713  0.0572 -0.1653 -0.6813
18221TIP3    H176078   5.874   0.895   4.675  1.4155  0.3200  0.2727
18221TIP3    H276079   5.818   0.811   4.788 -0.4641 -0.2828 -1.0893
18222TIP3   OH276080   2.085   2.366   2.641  0.0698 -0.3390  0.2784
18222TIP3    H176081   2.052   2.424   2.710 -0.1975  1.0528 -1.0120
18222TIP3    H276082   2.152   2.417   2.596 -0.0854 -1.0684 -0.8086
18223TIP3   OH276083   4.926   4.368   4.415  0.0037 -0.2352  0.4247
18223TIP3    H176084   4.865   4.302   4.449 -0.6314  1.3599  2.5436
18223TIP3    H276085   5.013   4.332   4.432 -0.2918 -2.4068 -2.3636
18224TIP3   OH276086   5.826   5.788   5.301 -0.2688 -0.2255  0.0870
18224TIP3    H176087   5.733   5.775   5.318 -0.2385 -0.0356  0.3958
18224TIP3    H276088   5.839   5.883   5.304 -0.2890 -0.1740 -1.1509
18225TIP3   OH276089   5.270   1.714   3.201 -0.2433  0.2891  0.4363
18225TIP3    H176090   5.258   1.631   3.156  0.5028 -0.1084  0.9549
18225TIP3    H276091   5.362   1.715   3.226 -0.3218  1.1250  0.7172
18226TIP3   OH276092   5.895   2.117   5.637 -0.1350 -0.3702 -0.2657
18226TIP3    H176093   5.829   2.182   5.613  0.0210 -0.0772  0.0806
18226TIP3    H276094   5.866   2.084   5.722 -0.2938 -0.8633 -0.5132
18227TIP3   OH276095   5.471   0.283   5.190 -0.1889 -0.1082 -0.2778
18227TIP3    H176096   5.492   0.230   5.267 -0.3872 -0.5600 -0.5311
18227TIP3    H276097   5.553   0.328   5.169 -0.3102  0.5496  0.6050
18228TIP3   OH276098   0.249   4.607   6.062 -0.1951  0.1882 -0.2469
18228TIP3    H176099   0.231   4.701   6.068  0.2681  0.3508 -1.3816
18228TIP3    H276100   0.334   4.602   6.019 -0.4236 -0.7705 -0.5840
18229TIP3   OH276101   5.776   3.907   5.610 -0.1711  0.0882 -0.5462
18229TIP3    H176102   5.755   3.947   5.694  2.3695 -2.4691  1.4292
18229TIP3    H276103   5.827   3.973   5.564  2.7492 -0.2350  2.0667
18230TIP3   OH276104   7.246   2.626   4.302 -0.1009  0.2096  0.2064
18230TIP3    H176105   7.324   2.611   4.356 -0.4470 -1.0701  0.3674
18230TIP3    H276106   7.265   2.582   4.219 -0.8735 -0.6202  0.4565
18231TIP3   OH276107   5.000   3.602   4.091  0.5165  0.2288 -0.4555
18231TIP3    H176108   4.977   3.517   4.128 -1.3494  0.9648  0.1490
18231TIP3    H276109   5.041   3.650   4.163 -0.1095  0.4892 -0.2693
18232TIP3   OH276110   3.775   3.232   5.424 -0.5490 -0.5695  0.0631
18232TIP3    H176111   3.767   3.240   5.519  1.0019  0.5530  0.1194
18232TIP3    H276112   3.835   3.302   5.399 -1.2152 -0.6293 -1.7973
18233TIP3   OH276113   6.372   6.052   5.378 -0.7000 -0.2680  0.0709
18233TIP3    H176114   6.448   5.996   5.395  0.2276  0.7777 -0.5313
18233TIP3    H276115   6.301   5.991   5.360  0.2472 -1.2567 -0.3877
18234TIP3   OH276116   0.233   3.980   5.991  0.2674 -0.5174 -0.4224
18234TIP3    H176117   0.321   4.013   5.973  0.1999 -0.4471 -0.6288
18234TIP3    H276118   0.238   3.946   6.080  0.7004 -1.1689 -0.6916
18235TIP3   OH276119   6.123   5.620   4.564  0.3956 -0.4466 -0.1600
18235TIP3    H176120   6.088   5.708   4.545  2.6123  0.2156 -1.3266
18235TIP3    H276121   6.048   5.573   4.601 -0.6134  2.2036  1.3923
18236TIP3   OH276122   1.749   3.459   4.153  0.8036 -0.5529 -0.3504
18236TIP3    H176123   1.837   3.489   4.175  0.4442  0.8244 -0.7486
18236TIP3    H276124   1.717   3.523   4.089 -1.3400  0.2930  1.4832
18237TIP3   OH276125   4.320   3.807   2.068 -0.4378 -0.1991 -0.2145
18237TIP3    H176126   4.378   3.742   2.109 -1.6309 -0.9435  0.3043
18237TIP3    H276127   4.273   3.847   2.142  0.7564  1.7530 -0.4546
18238TIP3   OH276128   3.790   1.240   3.196  0.6141 -0.2630 -0.1249
18238TIP3    H176129   3.757   1.196   3.118  0.5934 -0.4379 -0.0166
18238TIP3    H276130   3.872   1.280   3.168 -0.0083  0.7061 -0.5613
18239TIP3   OH276131   2.847   4.863   5.814 -0.1004  0.4068  0.1905
18239TIP3    H176132   2.933   4.903   5.824 -0.0189  0.0054  1.1543
18239TIP3    H276133   2.859   4.796   5.747  0.1111  0.9831 -0.3528
18240TIP3   OH276134   6.432   0.250   2.333 -0.0790 -0.1726 -0.5121
18240TIP3    H176135   6.467   0.335   2.307  0.9184 -0.2118  0.6524
18240TIP3    H276136   6.509   0.200   2.360 -0.5074 -1.8527 -2.2637
18241TIP3   OH276137   6.210   2.365   2.360 -0.1033 -0.4411 -0.0310
18241TIP3    H176138   6.133   2.356   2.304 -1.3125  1.6753  1.2088
18241TIP3    H276139   6.194   2.445   2.410  3.0889  0.2885 -0.0443
18242TIP3   OH276140   0.214   1.162   2.489 -0.2285 -0.1307  0.5151
18242TIP3    H176141   0.141   1.158   2.550 -0.4972  1.7326  0.3204
18242TIP3    H276142   0.225   1.255   2.470 -1.1216 -0.7365 -3.4334
18243TIP3   OH276143   6.652   0.530   2.624 -0.1053 -0.1144 -0.4018
18243TIP3    H176144   6.576   0.473   2.638  0.0227 -0.0504  0.5302
18243TIP3    H276145   6.725   0.482   2.663  0.0336  0.6088  0.2223
18244TIP3   OH276146   5.808   0.615   6.006  0.2879 -0.0480  0.2889
18244TIP3    H176147   5.740   0.583   6.065 -0.4433 -1.8339 -1.4686
18244TIP3    H276148   5.865   0.540   5.992 -0.0469  0.0702 -1.9530
18245TIP3   OH276149   7.253   0.803   2.891  0.3204  0.0064  0.6620
18245TIP3    H176150   7.200   0.732   2.927 -1.3161  1.0258  0.3398
18245TIP3    H276151   7.295   0.766   2.813 -0.9763 -0.4530  0.1772
18246TIP3   OH276152   7.157   2.088   5.291 -0.2356  0.3468  0.3537
18246TIP3    H176153   7.133   2.177   5.266 -1.1871  0.5785  2.0751
18246TIP3    H276154   7.244   2.097   5.329 -0.0467  0.4305 -0.0918
18247TIP3   OH276155   4.199   2.019   5.461 -0.2872 -0.0084  0.1277
18247TIP3    H176156   4.214   2.000   5.553 -2.0737 -0.9362  0.2625
18247TIP3    H276157   4.173   1.935   5.423 -0.4220  0.5420 -1.0270
18248TIP3   OH276158   2.761   1.494  15.425 -0.1232  0.5881  0.1391
18248TIP3    H176159   2.853   1.469  15.432 -0.8230 -1.5140  2.5221
18248TIP3    H276160   2.742   1.487  15.332  1.5842 -0.9786 -0.1211
18249TIP3   OH276161   6.641   1.102   5.608  0.5177 -0.5736 -0.1565
18249TIP3    H176162   6.548   1.087   5.626  0.5968 -0.7390  0.1261
18249TIP3    H276163   6.680   1.115   5.694  0.6097  0.3798 -0.3452
18250TIP3   OH276164   0.633   5.612   1.448 -0.1321 -0.2209  0.1161
18250TIP3    H176165   0.693   5.681   1.476  1.7081 -3.2296  4.0471
18250TIP3    H276166   0.687   5.551   1.397 -1.0159 -0.3878 -0.6438
18251TIP3   OH276167   1.130   0.510   5.389  0.6286 -0.5434 -0.1496
18251TIP3    H176168   1.087   0.555   5.462  0.1691 -1.6488  0.2815
18251TIP3    H276169   1.222   0.535   5.395  0.3791  0.3256  0.0808
18252TIP3   OH276170   0.041   2.824   5.440  0.1993 -0.2865  0.0932
18252TIP3    H176171   0.079   2.811   5.353  0.6451  0.2168  0.2176
18252TIP3    H276172   0.069   2.911   5.467  1.0743 -0.9125  1.2591
18253TIP3   OH276173   5.677   2.188   5.042 -0.6923 -0.7614 -0.1596
18253TIP3    H176174   5.712   2.171   5.129  1.5598 -2.2201 -1.2970
18253TIP3    H276175   5.689   2.282   5.029 -1.1653 -0.5156  1.1328
18254TIP3   OH276176   0.349   3.402   4.992 -0.0414  0.2493 -0.3053
18254TIP3    H176177   0.423   3.395   4.933 -0.8030  1.0793 -1.3788
18254TIP3    H276178   0.375   3.468   5.056 -0.0004  0.8228 -0.9088
18255TIP3   OH276179   0.565   3.271   4.897  0.4556  0.3967 -0.0383
18255TIP3    H176180   0.486   3.218   4.890  0.3804  0.5746 -0.5742
18255TIP3    H276181   0.637   3.210   4.883  0.3317  0.6335 -1.8802
18256TIP3   OH276182   3.549   3.228   4.783  0.2636 -0.3288 -0.7761
18256TIP3    H176183   3.590   3.290   4.843 -0.3951  1.3358 -2.0269
18256TIP3    H276184   3.461   3.262   4.769  0.1194 -1.1834 -2.0053
18257TIP3   OH276185   1.059   4.890   5.096  0.0019  0.5787 -0.2065
18257TIP3    H176186   1.126   4.883   5.028 -0.0400 -0.8205 -0.1125
18257TIP3    H276187   1.095   4.843   5.171 -1.3773 -0.8319 -0.3959
18258TIP3   OH276188   5.884   4.133   3.856 -0.3334 -0.6084 -0.3451
18258TIP3    H176189   5.881   4.084   3.774 -1.6138 -1.1122 -0.0196
18258TIP3    H276190   5.815   4.094   3.909 -0.0146  0.2145  0.6887
18259TIP3   OH276191   1.493   0.193   5.070 -0.4251 -0.7330  0.2450
18259TIP3    H176192   1.460   0.104   5.058  1.5822 -1.4008 -0.4374
18259TIP3    H276193   1.526   0.218   4.984  2.9932 -0.9857  1.4159
18260TIP3   OH276194   1.806   6.220   5.063  0.1972  0.0871  0.0667
18260TIP3    H176195   1.840   6.216   4.974 -1.8454 -2.3448 -0.6643
18260TIP3    H276196   1.826   6.134   5.100  1.4661  1.2414  2.1577
18261TIP3   OH276197   3.745   4.223   2.389 -0.4185 -0.4810  0.0799
18261TIP3    H176198   3.686   4.176   2.448 -2.2679 -0.1553 -1.4726
18261TIP3    H276199   3.782   4.155   2.333 -0.0068 -0.5823  0.4786
18262TIP3   OH276200   0.666   5.144   2.744 -0.0377  0.1788  0.1890
18262TIP3    H176201   0.580   5.107   2.724  0.9223 -1.5549 -0.7956
18262TIP3    H276202   0.711   5.147   2.660  1.8155 -1.3709  1.0924
18263TIP3   OH276203   2.341   5.817   4.480 -0.5621  0.1228 -0.0278
18263TIP3    H176204   2.356   5.765   4.559  1.3055 -1.0620 -1.1092
18263TIP3    H276205   2.306   5.754   4.417 -0.5208  0.7061 -0.6363
18264TIP3   OH276206   7.011   2.437   3.969 -0.2518  0.1127 -0.1937
18264TIP3    H176207   6.948   2.366   3.982  0.4960 -0.7585 -1.3230
18264TIP3    H276208   7.012   2.483   4.054 -2.7452  0.4395 -0.2812
18265TIP3   OH276209   0.463   1.171   4.790 -0.1703 -0.1926 -0.2970
18265TIP3    H176210   0.377   1.136   4.766 -0.5441 -1.2710  2.5173
18265TIP3    H276211   0.517   1.153   4.713 -2.0754 -0.7882 -1.5575
18266TIP3   OH276212   6.473   4.829   4.847  0.2572 -0.0331 -0.3189
18266TIP3    H176213   6.480   4.735   4.830  2.0066 -0.1132  0.6309
18266TIP3    H276214   6.472   4.835   4.943 -1.5523  0.8225 -0.3809
18267TIP3   OH276215   6.308   2.489   6.055 -0.3815  0.5475 -0.4282
18267TIP3    H176216   6.323   2.412   6.110 -1.0951 -0.1532 -1.1897
18267TIP3    H276217   6.395   2.516   6.027 -0.0188  0.8505  0.9562
18268TIP3   OH276218   5.157   3.836   3.217 -0.0780 -0.1645  0.3165
18268TIP3    H176219   5.098   3.770   3.180  0.5265 -1.7478  2.1098
18268TIP3    H276220   5.129   3.845   3.308  1.4561  0.1649  0.7740
18269TIP3   OH276221   0.354   6.931   0.999  0.7020 -0.3828  0.2210
18269TIP3    H176222   0.290   6.915   1.069  1.3352 -0.6557  0.7360
18269TIP3    H276223   0.300   6.955   0.923  0.0524  0.8490  1.0469
18270TIP3   OH276224   2.542   5.900   5.342 -0.6589  0.4413 -0.1666
18270TIP3    H176225   2.575   5.848   5.416 -1.2033  0.0557 -0.1873
18270TIP3    H276226   2.586   5.984   5.350 -0.5248  0.3152  0.4532
18271TIP3   OH276227   6.611   0.304   3.544 -0.1851 -0.4498  0.0079
18271TIP3    H176228   6.647   0.237   3.486  1.5571  0.9331 -0.5785
18271TIP3    H276229   6.585   0.375   3.485 -0.8007 -0.0840  0.7146
18272TIP3   OH276230   1.707   3.856   5.919 -0.0331 -0.2408  0.0251
18272TIP3    H176231   1.734   3.948   5.917 -1.1235  0.0526 -2.9980
18272TIP3    H276232   1.713   3.832   6.012 -0.7700  3.1809  1.0323
18273TIP3   OH276233   4.219   5.378   3.727  0.2498 -0.3194  0.1136
18273TIP3    H176234   4.134   5.337   3.742 -0.7166  1.6108  0.1880
18273TIP3    H276235   4.279   5.331   3.784 -0.7934 -1.6443  0.1471
18274TIP3   OH276236   2.430   6.884   4.381 -0.0332 -0.4898 -0.0365
18274TIP3    H176237   2.461   6.869   4.291  0.8449 -3.3627  0.6979
18274TIP3    H276238   2.510   6.902   4.431 -0.4949  0.8406  0.2593
18275TIP3   OH276239   1.568   0.027   1.406  0.1654  0.2760  0.6452
18275TIP3    H176240   1.485   0.060   1.441  0.4581  1.5917  0.1299
18275TIP3    H276241   1.542  -0.041   1.344 -0.4322 -0.7430  1.9858
18276TIP3   OH276242   6.007   2.556   4.693  0.3693  0.0897 -0.2752
18276TIP3    H176243   5.992   2.642   4.654  2.6403  0.3134 -0.7405
18276TIP3    H276244   6.035   2.501   4.620  1.9402 -0.2154  0.5378
18277TIP3   OH276245   0.221   1.069   4.667  0.2184 -0.9596 -0.2567
18277TIP3    H176246   0.230   0.975   4.682  0.6637 -0.9666 -0.5636
18277TIP3    H276247   0.270   1.085   4.586  0.5476 -0.3817  0.0621
18278TIP3   OH276248   1.923   6.243   5.632  0.1642 -0.3716 -0.1143
18278TIP3    H176249   1.854   6.192   5.589  0.3408 -0.4224 -0.3390
18278TIP3    H276250   1.986   6.177   5.662 -0.7471 -0.4637  1.6498
18279TIP3   OH276251   3.942   4.367   3.583  0.1669 -0.4002 -0.0563
18279TIP3    H176252   3.912   4.277   3.594  0.0625 -0.3361  0.1793
18279TIP3    H276253   3.862   4.419   3.576  0.2040 -0.6071 -2.5946
18280TIP3   OH276254   1.397   2.623   5.111  0.0705  0.2819 -0.0292
18280TIP3    H176255   1.483   2.598   5.144  0.2079  0.6206 -0.1346
18280TIP3    H276256   1.372   2.699   5.163  0.3017  0.8378 -0.7265
18281TIP3   OH276257   6.541   3.828   5.610  0.2850  0.5463 -0.4976
18281TIP3    H176258   6.461   3.790   5.574  1.0055  0.2067 -1.8139
18281TIP3    H276259   6.547   3.914   5.569  0.0185  1.0213  0.4537
18282TIP3   OH276260   0.990   0.247   5.855  0.1461 -0.0088 -0.7835
18282TIP3    H176261   0.945   0.228   5.937 -0.1240 -0.2012 -0.9733
18282TIP3    H276262   1.079   0.213   5.867 -0.1735 -0.8884 -0.9193
18283TIP3   OH276263   4.575   0.352   3.162 -0.4513  0.2583 -0.1697
18283TIP3    H176264   4.509   0.309   3.217  0.5073  1.0333  1.6225
18283TIP3    H276265   4.657   0.337   3.208  0.7206 -1.0974 -2.6217
18284TIP3   OH276266   2.587   4.638   5.870 -0.3273  0.2423 -0.3534
18284TIP3    H176267   2.551   4.706   5.813 -1.2279 -1.4269 -1.8338
18284TIP3    H276268   2.521   4.568   5.869  0.4214 -0.5227  1.3949
18285TIP3   OH276269   2.503   1.035   5.103  0.1806 -0.2053  0.6850
18285TIP3    H176270   2.592   1.000   5.098  0.7155  1.1036  0.9237
18285TIP3    H276271   2.514   1.123   5.137 -1.0331  0.7356 -1.2824
18286TIP3   OH276272   0.842   6.119   4.568  0.0993  0.0631 -0.0818
18286TIP3    H176273   0.780   6.175   4.521 -1.1783 -1.3598 -0.1333
18286TIP3    H276274   0.788   6.072   4.632  0.9746 -1.7800 -0.6688
18287TIP3   OH276275   6.693   2.698   4.630 -0.4691  0.4834 -0.6009
18287TIP3    H176276   6.689   2.742   4.545 -0.8308  0.8093 -0.4164
18287TIP3    H276277   6.602   2.675   4.650 -0.2077 -0.9186 -0.9916
18288TIP3   OH276278   2.919   4.116   3.141  0.1011  0.0853  0.2283
18288TIP3    H176279   2.926   4.212   3.140 -0.0615  0.0956 -0.7874
18288TIP3    H276280   2.843   4.098   3.086  0.7686 -0.6731 -0.4589
18289TIP3   OH276281   6.883   6.672   3.074 -0.0624 -0.2646  0.1404
18289TIP3    H176282   6.897   6.767   3.073  1.4598 -0.4821 -0.2204
18289TIP3    H276283   6.793   6.661   3.044 -1.1208  1.2053  2.6302
18290TIP3   OH276284   1.429   5.075   5.314  0.8626  0.1592  1.2879
18290TIP3    H176285   1.438   5.039   5.225  1.5848  1.9091  0.6372
18290TIP3    H276286   1.481   5.155   5.313  1.2025 -0.0119  3.4279
18291TIP3   OH276287   6.136   6.095   4.059 -0.5288  0.6161  0.3396
18291TIP3    H176288   6.161   6.123   3.970 -0.8130  0.9244  0.3579
18291TIP3    H276289   6.136   6.000   4.054 -0.2467  0.6250  0.0886
18292TIP3   OH276290   5.656   6.613   4.569 -0.7477  0.1535  0.6900
18292TIP3    H176291   5.643   6.520   4.587  0.8644 -0.5873 -1.6247
18292TIP3    H276292   5.749   6.628   4.587 -0.0949  0.3693 -2.5014
18293TIP3   OH276293   2.862   6.308   3.490  0.1090 -0.4166 -0.3392
18293TIP3    H176294   2.784   6.286   3.439 -0.8606  0.0938  0.9062
18293TIP3    H276295   2.860   6.249   3.565  1.0448 -0.5495 -0.4108
18294TIP3   OH276296   1.787   3.893   4.307  0.3930 -0.1760 -0.0994
18294TIP3    H176297   1.810   3.806   4.274 -2.1040 -0.6548 -0.6577
18294TIP3    H276298   1.754   3.877   4.396  0.5092  0.2834  0.0274
18295TIP3   OH276299   1.472   1.834   2.042  0.1264  0.4016  0.1068
18295TIP3    H176300   1.473   1.755   2.096  0.9363 -0.2550 -0.8328
18295TIP3    H276301   1.546   1.822   1.982 -0.1710  1.5566 -0.4993
18296TIP3   OH276302   4.229   2.997   5.111 -0.1903  0.0677  0.2885
18296TIP3    H176303   4.316   2.996   5.151 -0.5957 -2.0026  1.1400
18296TIP3    H276304   4.169   2.999   5.185 -0.9065  2.3109 -0.2970
18297TIP3   OH276305   0.117   2.673   3.014  0.4894 -0.1750  0.5932
18297TIP3    H176306   0.024   2.686   3.034  0.3472 -1.2570  0.6620
18297TIP3    H276307   0.123   2.684   2.920  0.5889  1.5650  0.7697
18298TIP3   OH276308   6.850   5.349   3.131 -0.2834 -0.1082  0.1679
18298TIP3    H176309   6.944   5.353   3.114 -0.5307 -1.3420 -1.6364
18298TIP3    H276310   6.813   5.418   3.076 -0.3374  1.2523  1.8625
18299TIP3   OH276311   1.069   2.633   5.779  0.5748 -0.1152 -0.7475
18299TIP3    H176312   1.054   2.542   5.804 -0.0627  0.1192 -0.2643
18299TIP3    H276313   0.994   2.680   5.815  2.2347  1.0220  1.3533
18300TIP3   OH276314   0.236   1.133   3.299  0.2369 -0.1535  0.3271
18300TIP3    H176315   0.227   1.110   3.391  0.2399  1.7986  0.8261
18300TIP3    H276316   0.146   1.141   3.267  0.2404 -0.1642  0.3141
18301TIP3   OH276317   1.428   5.610   4.824 -0.1986 -0.6919 -0.0472
18301TIP3    H176318   1.391   5.522   4.837 -1.0935 -0.2363  0.4930
18301TIP3    H276319   1.416   5.654   4.908  0.6766 -0.1933 -0.1734
18302TIP3   OH276320   2.908   4.002   1.930 -0.0391  0.3105  0.1747
18302TIP3    H176321   2.836   4.042   1.980 -1.8082 -1.4839 -0.8709
18302TIP3    H276322   2.875   3.916   1.906  1.8615  0.0905 -1.7295
18303TIP3   OH276323   6.780   6.908   2.546 -0.6425 -0.0433  0.3131
18303TIP3    H176324   6.828   6.830   2.576  0.1046  0.2081 -0.2045
18303TIP3    H276325   6.689   6.889   2.566 -0.4318 -0.9257  0.4774
18304TIP3   OH276326   2.595   3.749   1.819  0.4277  0.5262  0.6824
18304TIP3    H176327   2.510   3.712   1.845  0.2582 -0.4597 -1.1633
18304TIP3    H276328   2.648   3.743   1.898 -0.9182  0.2212  1.5954
18305TIP3   OH276329   1.329   0.534   2.494  0.0445  0.3312 -0.6091
18305TIP3    H176330   1.284   0.464   2.446  0.1671  0.6455 -1.1934
18305TIP3    H276331   1.413   0.544   2.448  0.4846  0.1126  0.1481
18306TIP3   OH276332   0.719   3.719   5.878  0.5024 -0.1331 -0.3337
18306TIP3    H176333   0.810   3.729   5.909  0.9906  0.2999 -1.8896
18306TIP3    H276334   0.718   3.635   5.833  0.0226 -0.3349  0.0576
18307TIP3   OH276335   3.057   5.038   6.025  0.2720  0.2854  0.0068
18307TIP3    H176336   3.058   4.983   6.103  1.5519  0.9124  0.4511
18307TIP3    H276337   3.036   5.125   6.058 -1.4187  0.1295 -0.6476
18308TIP3   OH276338   1.718   2.656   2.103  0.7754  0.5098  0.6201
18308TIP3    H176339   1.717   2.642   2.197  0.8446 -0.7847  0.4349
18308TIP3    H276340   1.636   2.617   2.072  0.6088  1.1992  0.1792
18309TIP3   OH276341   1.562   4.962   4.369  0.2807 -0.1648 -0.3648
18309TIP3    H176342   1.616   5.032   4.333  1.1565 -0.5195  0.2323
18309TIP3    H276343   1.625   4.893   4.392 -0.1586  0.3315  2.4698
18310TIP3   OH276344   1.681   3.689   6.139  0.0205 -0.1028  0.3301
18310TIP3    H176345   1.757   3.691   6.198  1.1589 -0.9968 -1.0484
18310TIP3    H276346   1.649   3.599   6.145  0.6429 -0.4256 -1.0026
18311TIP3   OH276347   0.734   4.116   5.741 -0.1906  0.1266  0.3126
18311TIP3    H176348   0.685   4.070   5.810 -0.2050 -1.5092 -0.7700
18311TIP3    H276349   0.826   4.093   5.757 -0.2138 -0.4267 -0.3331
18312TIP3   OH276350   2.347   6.585   5.188 -0.2292 -0.1259 -0.2352
18312TIP3    H176351   2.253   6.590   5.168 -0.2628 -0.8154 -0.2711
18312TIP3    H276352   2.351   6.535   5.269  0.1700 -0.9649 -0.7667
18313TIP3   OH276353   5.641   0.353   3.743  0.2667  0.1731  0.5522
18313TIP3    H176354   5.684   0.269   3.722  1.4194  0.9590 -0.2777
18313TIP3    H276355   5.696   0.419   3.701 -1.5402  1.2451 -0.1447
18314TIP3   OH276356   7.000   5.125   5.166 -0.5766 -0.5815  0.2319
18314TIP3    H176357   6.938   5.052   5.171  0.2791 -1.3520 -0.4066
18314TIP3    H276358   7.043   5.125   5.252 -0.2517 -1.1189  0.0710
18315TIP3   OH276359   0.157   4.090   3.960 -0.2712 -0.1202  0.0498
18315TIP3    H176360   0.208   4.021   4.004  0.5650  0.0063 -0.7318
18315TIP3    H276361   0.140   4.055   3.873 -1.1328  0.0445  0.1401
18316TIP3   OH276362   6.743   3.823   3.235  0.1007 -0.3317 -0.0211
18316TIP3    H176363   6.754   3.832   3.330 -1.8732 -0.6316  0.2392
18316TIP3    H276364   6.830   3.842   3.200  1.2036 -1.5753  1.9270
18317TIP3   OH276365   5.448   3.879   4.994  0.5205 -0.1622 -0.5372
18317TIP3    H176366   5.411   3.946   5.052 -0.7680 -0.7142 -0.7033
18317TIP3    H276367   5.540   3.902   4.987  0.1724  1.3683 -0.2698
18318TIP3   OH276368   2.454   4.884   0.652 -0.6461  0.3251 -0.4728
18318TIP3    H176369   2.516   4.957   0.659 -0.0166 -0.2517 -0.0435
18318TIP3    H276370   2.509   4.806   0.648 -1.3749 -0.3929  2.3804
18319TIP3   OH276371   7.176   5.192   5.364 -0.0767 -0.5573  0.4958
18319TIP3    H176372   7.180   5.097   5.347  2.4072 -0.7487  1.8526
18319TIP3    H276373   7.137   5.199   5.452 -0.0131 -0.3425  0.5073
18320TIP3   OH276374   0.386   5.951   4.521 -0.6906  0.4346  0.3652
18320TIP3    H176375   0.448   5.891   4.561 -1.2733 -1.0662 -0.9045
18320TIP3    H276376   0.440   6.009   4.467 -0.1824  0.6352  1.0882
18321TIP3   OH276377   1.256   4.220   5.770  0.3549  0.5639 -0.1275
18321TIP3    H176378   1.266   4.188   5.680 -2.4298 -1.6889  0.2877
18321TIP3    H276379   1.332   4.186   5.816  0.4458 -0.5280 -1.0447
18322TIP3   OH276380   1.090   2.657   5.361 -0.3797 -0.3566  0.5091
18322TIP3    H176381   1.107   2.588   5.297 -0.8607 -1.1228  1.1927
18322TIP3    H276382   1.051   2.611   5.435  1.4636  0.3117  1.9289
18323TIP3   OH276383   0.667   5.168   4.391 -0.7782 -0.1245 -0.5467
18323TIP3    H176384   0.732   5.178   4.460  0.7334 -1.6032 -1.7165
18323TIP3    H276385   0.592   5.128   4.435 -0.4435  0.4340  0.5520
18324TIP3   OH276386   1.146   4.417   1.506  0.7757 -0.9907  0.5570
18324TIP3    H176387   1.088   4.410   1.430  0.4821 -1.2296  0.8000
18324TIP3    H276388   1.086   4.418   1.581  0.9736  0.7856  0.7141
18325TIP3   OH276389   0.460   6.277   5.520 -0.0886  0.2513 -0.2065
18325TIP3    H176390   0.368   6.289   5.544  0.1071  1.0820  0.1433
18325TIP3    H276391   0.488   6.202   5.573 -0.7331 -0.4113 -0.7889
18326TIP3   OH276392   3.014   5.240   5.682  0.8544  0.4414  0.3934
18326TIP3    H176393   2.970   5.237   5.767  1.6674 -1.5596  0.7702
18326TIP3    H276394   3.021   5.334   5.661 -0.5454  0.8926  1.8889
18327TIP3   OH276395   3.882   5.254   5.639 -0.0792  0.5904 -0.1793
18327TIP3    H176396   3.932   5.332   5.663 -3.1808  2.6722 -0.1750
18327TIP3    H276397   3.865   5.210   5.722  0.6857  0.5192 -0.0576
18328TIP3   OH276398   4.156   5.856   1.407  0.5300 -0.8586 -0.6140
18328TIP3    H176399   4.145   5.782   1.467 -0.6968  0.3215  0.6497
18328TIP3    H276400   4.248   5.882   1.417  0.4281 -0.9074  0.4691
18329TIP3   OH276401   5.484   6.507   5.352  1.0679  0.0911 -0.4114
18329TIP3    H176402   5.452   6.585   5.398 -1.6465 -1.8447  1.1525
18329TIP3    H276403   5.501   6.537   5.263 -0.0258  2.4593  0.1256
18330TIP3   OH276404   0.582   4.912   6.072  0.1705  0.9491 -0.0206
18330TIP3    H176405   0.589   4.817   6.074  2.7801  1.0885 -1.1972
18330TIP3    H276406   0.632   4.942   6.148  1.9668  1.4742 -1.3746
18331TIP3   OH276407   2.241   0.086   5.435  0.0721 -0.9642 -0.4319
18331TIP3    H176408   2.223   0.178   5.450 -1.5773 -0.9737 -2.2094
18331TIP3    H276409   2.281   0.056   5.516  2.3583  1.7265 -0.4618
18332TIP3   OH276410   6.445   6.539  15.840  0.7056 -0.4375  0.0981
18332TIP3    H176411   6.440   6.465  15.779  0.6966 -0.4703  0.1389
18332TIP3    H276412   6.373   6.525  15.901 -0.0351  0.2352 -0.6107
18333TIP3   OH276413   5.262   3.882   4.783  0.2376  0.3300 -0.4681
18333TIP3    H176414   5.323   3.863   4.854 -2.0811  1.1874  1.8656
18333TIP3    H276415   5.302   3.954   4.735  1.5074  0.2241  0.4119
18334TIP3   OH276416   3.090   4.984   5.762 -0.0534  0.1095 -0.2246
18334TIP3    H176417   3.082   5.063   5.709 -4.0064  0.4322  0.6929
18334TIP3    H276418   3.104   5.016   5.851  0.0399 -0.2698 -0.1007
18335TIP3   OH276419   1.461   3.727   4.810  0.0006  0.2734  0.2052
18335TIP3    H176420   1.455   3.669   4.734  0.3890  1.1956 -0.5420
18335TIP3    H276421   1.467   3.668   4.885  1.1803 -0.6706 -0.5975
18336TIP3   OH276422   1.650   0.238   4.804 -0.1124  0.3426  0.0385
18336TIP3    H176423   1.687   0.192   4.729 -1.4293 -1.7627  0.6375
18336TIP3    H276424   1.582   0.294   4.766  0.6592  0.8820 -0.5606
18337TIP3   OH276425   3.982   5.666   5.031 -0.0412 -0.8495 -0.4622
18337TIP3    H176426   3.929   5.618   5.094 -1.4912  1.5171  0.1471
18337TIP3    H276427   3.934   5.658   4.948  1.3923 -3.1683 -1.1234
18338TIP3   OH276428   6.640   2.829   5.579 -0.0816  0.2694 -0.6233
18338TIP3    H176429   6.635   2.753   5.520 -0.9713 -0.9631  0.9846
18338TIP3    H276430   6.690   2.798   5.654 -3.2536  0.1864  1.5618
18339TIP3   OH276431   1.100   4.986   4.677 -0.2870 -0.2125  0.2512
18339TIP3    H176432   1.180   5.021   4.639 -0.2853 -0.2558  0.2144
18339TIP3    H276433   1.078   5.047   4.747 -1.0384  0.6367 -0.7046
18340TIP3   OH276434   1.655   7.245   5.808 -0.5594  0.4859  0.1184
18340TIP3    H176435   1.657   7.179   5.877 -0.8497  1.4254  1.0279
18340TIP3    H276436   1.584   7.304   5.832 -0.7015  0.7969 -1.0121
18341TIP3   OH276437   4.142   7.049   4.831  0.5381  0.3533  0.0756
18341TIP3    H176438   4.222   7.003   4.856  1.1954  1.6267  0.3501
18341TIP3    H276439   4.107   6.999   4.757  2.3826  0.6071 -0.9981
18342TIP3   OH276440   1.935   0.300   4.155 -0.6032 -0.2420  0.5264
18342TIP3    H176441   1.891   0.343   4.082  0.0452  0.0058  0.2871
18342TIP3    H276442   1.971   0.371   4.207 -1.7402 -0.3758  1.5227
18343TIP3   OH276443   3.543   4.341   0.266  0.2427 -0.5858  0.0390
18343TIP3    H176444   3.613   4.361   0.204  0.2707 -0.6332  0.0557
18343TIP3    H276445   3.563   4.253   0.298  0.3239 -0.4909  0.2470
18344TIP3   OH276446   0.034   1.605   3.527  0.2322 -0.1662  0.3087
18344TIP3    H176447  -0.054   1.625   3.558 -0.0162  0.6014 -0.8698
18344TIP3    H276448   0.085   1.589   3.607  0.1620  4.0307  1.3087
18345TIP3   OH276449   6.129   7.069   0.824  0.1773 -0.1344  0.1362
18345TIP3    H176450   6.152   7.154   0.862  0.4766 -0.7434  1.3470
18345TIP3    H276451   6.197   7.054   0.758  1.3523 -0.3862  1.3757
18346TIP3   OH276452   6.802   3.573   3.509 -0.5223 -0.7465 -0.0638
18346TIP3    H176453   6.858   3.524   3.448 -0.4377 -0.0458 -0.5593
18346TIP3    H276454   6.817   3.664   3.486 -0.5694 -0.4810  0.9496
18347TIP3   OH276455   0.062   0.822   4.920  0.0545  0.0817 -0.6681
18347TIP3    H176456   0.130   0.831   4.853  0.3558 -1.9272 -0.6433
18347TIP3    H276457   0.090   0.879   4.991  0.7589  0.6676 -1.4004
18348TIP3   OH276458   6.985   2.204   3.060  0.0814  0.4094 -0.0605
18348TIP3    H176459   7.023   2.213   3.148  0.9715  1.9721 -0.6044
18348TIP3    H276460   6.974   2.109   3.050  2.1191  0.0319  0.8401
18349TIP3   OH276461   6.995   7.063   3.734  0.5239 -0.4341  0.0485
18349TIP3    H176462   6.941   6.994   3.772 -1.4278  0.5315 -0.9172
18349TIP3    H276463   7.052   7.016   3.672 -1.2028 -1.1509 -1.0545
18350TIP3   OH276464   5.205   6.919   5.258 -0.1734  0.4114 -0.3708
18350TIP3    H176465   5.114   6.941   5.274 -0.2818 -0.5514  0.3806
18350TIP3    H276466   5.213   6.918   5.163 -0.7302  1.3416 -0.4319
18351TIP3   OH276467   0.929   4.482   3.164 -0.5034 -0.4823 -0.0954
18351TIP3    H176468   0.945   4.576   3.168 -1.0080 -0.4135  0.4150
18351TIP3    H276469   1.010   4.445   3.129  0.0464  0.0527  0.5862
18352TIP3   OH276470   3.052   2.670   6.297 -0.1756  0.0357 -0.4466
18352TIP3    H176471   3.110   2.640   6.367 -0.9371 -0.0284  0.1691
18352TIP3    H276472   3.061   2.765   6.298 -1.6006  0.1866  1.0226
18353TIP3   OH276473   1.883   4.077   5.861 -0.0835 -0.7225  0.3175
18353TIP3    H176474   1.816   4.138   5.892  2.0797  1.6008  0.4971
18353TIP3    H276475   1.862   4.063   5.769 -0.9692 -0.2489  0.4433
18354TIP3   OH276476   4.538   1.245   5.779  0.0124 -0.0761 -0.3375
18354TIP3    H176477   4.580   1.320   5.821 -0.8314 -0.4400  1.2185
18354TIP3    H276478   4.456   1.234   5.827  0.1438 -2.0170 -0.5048
18355TIP3   OH276479   7.295   3.539   5.721  0.0608 -0.0524 -0.1788
18355TIP3    H176480   7.299   3.559   5.627  1.5483  0.8350  0.0572
18355TIP3    H276481   7.328   3.618   5.764  0.1880 -0.7597  1.0522
18356TIP3   OH276482   3.705   2.699   4.625  0.0049 -0.2043 -0.3748
18356TIP3    H176483   3.632   2.655   4.581 -0.9340  0.9277  0.0205
18356TIP3    H276484   3.688   2.686   4.719  0.5024 -0.2424 -0.2894
18357TIP3   OH276485   6.940   6.518   4.999 -0.8929 -1.4344  0.6174
18357TIP3    H176486   6.963   6.450   5.062 -0.4754 -1.8856 -0.0176
18357TIP3    H276487   7.022   6.537   4.953 -0.7020  0.4306  1.6819
18358TIP3   OH276488   0.466   5.576   0.271 -0.2023 -0.5621  0.3950
18358TIP3    H176489   0.522   5.582   0.193  0.4582 -2.1962  0.7387
18358TIP3    H276490   0.415   5.657   0.269  2.3977  1.1495  0.2492
18359TIP3   OH276491   0.943   4.108   5.467  0.0804  0.0822 -0.2559
18359TIP3    H176492   0.926   4.100   5.561  1.7377 -1.7040 -0.0778
18359TIP3    H276493   0.936   4.019   5.434 -0.3024  0.6764 -1.8090
18360TIP3   OH276494   0.456   2.824   5.451 -0.5587  0.6508 -0.0817
18360TIP3    H176495   0.427   2.799   5.539  1.6896 -0.1053  0.4715
18360TIP3    H276496   0.454   2.742   5.401 -0.0351  0.7326 -0.2331
18361TIP3   OH276497   4.042   4.286   5.499 -0.2328  0.2612  0.3690
18361TIP3    H176498   3.969   4.290   5.438  1.1925 -0.8612 -1.4563
18361TIP3    H276499   4.033   4.201   5.542  0.4533 -0.2398 -0.4620
18362TIP3   OH276500   2.084   1.659   5.480 -0.6897  0.1238 -0.9907
18362TIP3    H176501   2.122   1.619   5.559 -0.8030  1.1962 -0.3790
18362TIP3    H276502   2.036   1.588   5.438 -0.6939 -0.4451 -0.0424
18363TIP3   OH276503   3.251   5.442   4.808  0.4207 -0.3938 -0.0107
18363TIP3    H176504   3.316   5.437   4.878 -0.5819  0.9761  1.0496
18363TIP3    H276505   3.245   5.353   4.774  2.7593 -0.5659 -0.0530
18364TIP3   OH276506   0.710   4.801   4.749  0.2261 -0.3547 -0.1843
18364TIP3    H176507   0.645   4.851   4.800 -1.7616  0.0366 -2.9729
18364TIP3    H276508   0.695   4.710   4.775 -2.3023 -0.3972 -1.6148
18365TIP3   OH276509   6.327   6.590   5.092  0.4923  0.0526  0.0071
18365TIP3    H176510   6.380   6.659   5.052 -1.9098  2.6730  1.1794
18365TIP3    H276511   6.298   6.537   5.018  0.4656  1.6756 -1.1763
18366TIP3   OH276512   0.386   4.476   5.701 -0.3111  0.5871 -0.1354
18366TIP3    H176513   0.449   4.447   5.635 -0.5311 -0.2142  0.0014
18366TIP3    H276514   0.439   4.519   5.768 -0.0509  1.0981 -0.6666
18367TIP3   OH276515   0.412   5.957   5.998 -0.3685  0.0482  0.7050
18367TIP3    H176516   0.508   5.966   6.000 -0.5482  2.3711  0.8010
18367TIP3    H276517   0.394   5.877   6.046  1.5954 -0.9580 -0.1787
18368TIP3   OH276518   0.705   4.800   1.340  0.0209  0.3217  0.0477
18368TIP3    H176519   0.665   4.743   1.405  0.3233  0.5486  0.4389
18368TIP3    H276520   0.786   4.831   1.382  0.8230 -0.4771 -0.9005
18369TIP3   OH276521   0.394   3.911   5.074 -0.1201  0.6687 -0.3592
18369TIP3    H176522   0.315   3.937   5.122  0.4089 -1.0373  1.5484
18369TIP3    H276523   0.439   3.851   5.134  1.8248  0.3776 -2.0565
18370TIP3   OH276524   2.232   3.547   3.232  0.3438 -0.3627 -0.7855
18370TIP3    H176525   2.138   3.545   3.252  0.7137 -0.5174  1.0006
18370TIP3    H276526   2.238   3.603   3.155 -1.1040  0.7199 -0.1530
18371TIP3   OH276527   7.080   4.853   2.588 -1.0479  0.4456 -0.5960
18371TIP3    H176528   7.110   4.771   2.627 -2.8185  0.5863  1.1667
18371TIP3    H276529   7.110   4.850   2.498  0.4650 -1.3290 -0.0482
18372TIP3   OH276530   7.133   3.846   1.699  0.2164  0.0120  0.0498
18372TIP3    H176531   7.109   3.755   1.719  2.2992 -0.5121  0.2595
18372TIP3    H276532   7.085   3.866   1.618 -0.3304 -1.2402  0.0483
18373TIP3   OH276533   5.138   5.280   3.033 -0.4177  0.1339 -0.5907
18373TIP3    H176534   5.159   5.249   2.945  1.2941  1.5761 -0.7220
18373TIP3    H276535   5.089   5.361   3.018 -0.8082 -0.0367 -0.2313
18374TIP3   OH276536   6.784   2.398   4.884  0.3936 -0.1021  0.0778
18374TIP3    H176537   6.844   2.323   4.889 -0.1851 -0.5991 -0.2549
18374TIP3    H276538   6.713   2.374   4.944 -0.3205 -0.3066 -0.8448
18375TIP3   OH276539   2.487   3.811  15.843  0.0265 -0.1489 -0.0638
18375TIP3    H176540   2.493   3.818  15.747  0.3947  0.3801 -0.0017
18375TIP3    H276541   2.497   3.717  15.860 -0.5269 -0.3036 -0.5750
18376TIP3   OH276542   0.181   5.839   5.270 -0.3268 -0.2380  0.0361
18376TIP3    H176543   0.085   5.838   5.265 -0.3156  2.4475 -1.8213
18376TIP3    H276544   0.199   5.870   5.359 -1.2184  0.8438 -0.1447
18377TIP3   OH276545   0.122   3.270   5.059 -0.1103 -0.2191  0.6462
18377TIP3    H176546   0.210   3.294   5.030  0.4393 -0.2280  2.2843
18377TIP3    H276547   0.080   3.353   5.081 -0.9931 -0.0877 -1.3868
18378TIP3   OH276548   0.240   5.415   1.537  0.1331  0.0639 -0.2951
18378TIP3    H176549   0.287   5.454   1.610  2.2458 -0.9705 -1.0492
18378TIP3    H276550   0.175   5.481   1.511  2.5702  2.4351 -0.5708
18379TIP3   OH276551   2.258   4.624   4.855  0.3556  0.7717 -0.4327
18379TIP3    H176552   2.294   4.698   4.806 -0.4358  0.2697 -1.7836
18379TIP3    H276553   2.201   4.579   4.793 -1.9285  1.0366  1.3905
18380TIP3   OH276554   0.288   2.964   4.445 -0.0538 -0.4005 -0.4569
18380TIP3    H176555   0.309   2.929   4.531  0.7827  0.9478 -0.0929
18380TIP3    H276556   0.370   3.002   4.414 -1.2107  2.4427 -0.2156
18381TIP3   OH276557   2.823   3.390   3.485  0.0416 -0.1688 -0.1966
18381TIP3    H176558   2.843   3.477   3.449 -0.1918 -0.4360 -0.9764
18381TIP3    H276559   2.906   3.343   3.483 -0.0079 -0.2422 -0.5493
18382TIP3   OH276560   1.978   5.414   5.263 -0.1628  0.7742 -0.2487
18382TIP3    H176561   1.903   5.455   5.219  0.0361  1.0391 -0.3434
18382TIP3    H276562   2.054   5.449   5.217  0.0873  1.7708  0.8782
18383TIP3   OH276563   0.403   2.618   3.643 -0.3054 -0.4205 -0.6823
18383TIP3    H176564   0.333   2.638   3.705 -0.5992 -0.0880 -1.1166
18383TIP3    H276565   0.358   2.596   3.561  0.1065  0.3058 -1.1116
18384TIP3   OH276566   1.677   4.728   4.905  0.4377  0.7518 -0.2299
18384TIP3    H176567   1.743   4.704   4.839  1.3188  2.0985  0.1379
18384TIP3    H276568   1.659   4.646   4.952 -0.4389 -0.2836 -2.3327
18385TIP3   OH276569   7.097   6.538   5.385 -0.1515 -0.7301  0.3826
18385TIP3    H176570   7.021   6.487   5.359 -2.0521  2.1950 -0.0876
18385TIP3    H276571   7.123   6.585   5.306  0.4051  0.4025  1.2277
18386TIP3   OH276572   1.937   2.589   5.513  0.2940  0.1198  0.2193
18386TIP3    H176573   1.846   2.613   5.531 -0.9801 -1.8380 -3.1717
18386TIP3    H276574   1.983   2.672   5.506 -0.8391  1.1137  3.5631
18387TIP3   OH276575   0.249   5.068   5.568 -0.3577  0.4603 -0.3751
18387TIP3    H176576   0.213   5.074   5.480 -0.4283 -1.6647 -0.5266
18387TIP3    H276577   0.326   5.125   5.567  1.4438 -1.8803 -2.7585
18388TIP3   OH276578   0.812   1.262   5.138  0.2802  0.3976 -0.0656
18388TIP3    H176579   0.746   1.240   5.204 -0.7800 -0.7931 -1.4954
18388TIP3    H276580   0.797   1.200   5.067  1.1067  1.9558 -1.6407
18389TIP3   OH276581   5.758   3.896   3.601 -0.9409  0.3398 -0.1016
18389TIP3    H176582   5.732   3.843   3.525 -0.6753  0.0090  0.0376
18389TIP3    H276583   5.781   3.981   3.564 -1.9168  0.5438 -0.2674
18390TIP3   OH276584   6.319   3.242   4.384 -0.9531  1.1963  0.1016
18390TIP3    H176585   6.361   3.296   4.316  0.2594  1.3024  0.9042
18390TIP3    H276586   6.385   3.176   4.406 -1.6799  0.6060  0.5360
18391TIP3   OH276587   2.112   6.091   5.282  0.4341 -0.2798 -0.4950
18391TIP3    H176588   2.087   6.155   5.348 -1.0876 -0.4085 -0.9379
18391TIP3    H276589   2.193   6.052   5.316  0.4871  0.7161  0.5517
18392TIP3   OH276590   2.580   3.401   5.849 -0.4327 -0.0085  0.0900
18392TIP3    H176591   2.628   3.426   5.928  0.2429  1.2973 -0.7283
18392TIP3    H276592   2.501   3.358   5.882  0.2284 -0.2000  1.4664
18393TIP3   OH276593   6.273   2.909   5.599  0.1847  0.1687 -0.0858
18393TIP3    H176594   6.193   2.937   5.644 -0.5753  0.2998 -1.4864
18393TIP3    H276595   6.251   2.824   5.561  0.3966  0.6221 -1.2511
18394TIP3   OH276596   6.667   3.687   4.773 -0.1022 -0.4995 -0.4532
18394TIP3    H176597   6.585   3.644   4.747 -0.4383  0.4195 -0.9432
18394TIP3    H276598   6.732   3.651   4.713 -0.7242  1.0009 -2.0794
18395TIP3   OH276599   7.014   4.163   5.090 -0.3569  0.2135 -0.0200
18395TIP3    H176600   6.936   4.132   5.137  0.8562 -1.5273  0.8808
18395TIP3    H276601   7.001   4.133   5.000 -0.3534 -0.7924  0.3081
18396TIP3   OH276602   1.059   4.938   5.559 -0.6916  0.4692  0.2798
18396TIP3    H176603   1.153   4.936   5.538 -0.4308  0.1054  1.4176
18396TIP3    H276604   1.021   4.871   5.503 -0.4899  1.5809 -1.1936
18397TIP3   OH276605   1.463   7.268   4.924 -0.5858 -0.4605  0.2653
18397TIP3    H176606   1.413   7.193   4.954 -0.2097 -0.9446 -0.3084
18397TIP3    H276607   1.554   7.237   4.921 -0.3548  0.1759  0.5502
18398TIP3   OH276608   4.062   3.758   3.246  0.3064 -0.4344  0.0886
18398TIP3    H176609   4.058   3.845   3.206 -1.1100 -0.1044  0.9263
18398TIP3    H276610   4.147   3.723   3.218  0.2871  0.6575 -1.3858
18399TIP3   OH276611   3.825   1.032   3.821  0.3499 -0.0798  0.0881
18399TIP3    H176612   3.864   0.995   3.742  0.6112  2.0451 -0.8132
18399TIP3    H276613   3.847   1.125   3.817 -0.3434  0.2055  2.2502
18400TIP3   OH276614   1.650   2.165   3.387 -0.3560  0.3117 -0.1151
18400TIP3    H176615   1.608   2.171   3.474 -0.7821 -0.1362 -0.2868
18400TIP3    H276616   1.735   2.208   3.399 -0.4746  0.3941  0.4857
18401TIP3   OH276617   0.328   4.113   2.927 -0.1856 -0.1934 -0.0212
18401TIP3    H176618   0.274   4.191   2.937 -1.3081 -0.8447 -0.8741
18401TIP3    H276619   0.266   4.040   2.929  0.6153 -0.9379 -1.3394
18402TIP3   OH276620   6.086   6.658   1.521 -0.2646  0.0648  0.3400
18402TIP3    H176621   6.077   6.739   1.570 -0.4974  1.0231 -1.2682
18402TIP3    H276622   5.999   6.640   1.486 -0.1357 -0.6773  0.3859
18403TIP3   OH276623   2.572   3.633   5.320  0.8035  0.2300  0.0648
18403TIP3    H176624   2.656   3.629   5.274 -0.0830  0.8761 -1.6280
18403TIP3    H276625   2.509   3.598   5.257 -0.2474  0.0339  1.2179
18404TIP3   OH276626   7.158   4.734   2.291 -0.4593  0.3339  0.1173
18404TIP3    H176627   7.200   4.668   2.346  0.7909 -0.0137 -1.2202
18404TIP3    H276628   7.221   4.750   2.221 -1.6237  1.4637 -0.6895
18405TIP3   OH276629   0.429   7.115   3.032  0.2452 -0.1914 -0.0984
18405TIP3    H176630   0.366   7.110   2.960 -0.0364  1.0799  0.0516
18405TIP3    H276631   0.408   7.197   3.077  1.2705 -0.3228  0.6397
18406TIP3   OH276632   4.132   2.056   3.782  0.7966 -0.3214  0.1155
18406TIP3    H176633   4.111   2.149   3.787 -1.2929 -0.7729  0.1163
18406TIP3    H276634   4.050   2.011   3.803  1.2694 -2.1597 -1.7163
18407TIP3   OH276635   1.386   5.524   3.494  0.0716 -0.3171 -0.0307
18407TIP3    H176636   1.419   5.596   3.440  0.6522 -1.7940 -1.7027
18407TIP3    H276637   1.435   5.532   3.576  0.5481  0.8431 -0.4135
18408TIP3   OH276638   1.055   0.951   5.067 -0.0411 -0.5666  0.1203
18408TIP3    H176639   0.975   0.948   5.119  0.6258 -0.2312  1.1797
18408TIP3    H276640   1.125   0.937   5.131  0.7543 -0.6157 -0.7623
18409TIP3   OH276641   6.539   2.878   5.273 -0.2071 -0.2400 -0.0005
18409TIP3    H176642   6.599   2.939   5.316  1.6491 -0.2266 -2.4945
18409TIP3    H276643   6.457   2.927   5.265  0.0123  0.4444  1.7260
18410TIP3   OH276644   4.938   3.547   5.811 -0.4343 -0.1064 -0.2128
18410TIP3    H176645   4.949   3.498   5.729 -2.0151 -1.7235  0.4956
18410TIP3    H276646   4.872   3.613   5.790 -0.5627 -0.2742 -0.3442
18411TIP3   OH276647   6.619   2.592   5.447  0.6784 -0.4390  0.2966
18411TIP3    H176648   6.563   2.548   5.383  0.6839 -0.1919  0.1220
18411TIP3    H276649   6.584   2.564   5.532  1.2389 -1.4764  0.1850
18412TIP3   OH276650   6.998   4.922   4.656 -0.8411  0.2678  0.1266
18412TIP3    H176651   7.043   4.892   4.734  0.9080  1.7932 -0.2493
18412TIP3    H276652   6.981   5.015   4.672 -1.4139  0.3410 -0.8526
18413TIP3   OH276653   2.999   4.730   4.999  0.4423 -0.5419  0.2087
18413TIP3    H176654   2.922   4.740   5.053  0.9069 -2.5315  1.2836
18413TIP3    H276655   3.026   4.639   5.010  2.5315 -0.0915 -0.6922
18414TIP3   OH276656   0.732   6.555   3.466  0.2956  0.4324 -0.3426
18414TIP3    H176657   0.773   6.606   3.396 -0.7675  0.8238 -0.6935
18414TIP3    H276658   0.691   6.481   3.421 -0.6927  0.8744 -0.1826
18415TIP3   OH276659   6.086   4.321   5.049 -0.0470  0.1476  0.6442
18415TIP3    H176660   6.098   4.316   5.143 -1.2107  0.9460  0.8494
18415TIP3    H276661   5.994   4.299   5.035  0.2288 -0.4122 -0.3440
18416TIP3   OH276662   4.706   2.227   4.191 -0.0537 -0.1197  0.2145
18416TIP3    H176663   4.649   2.282   4.136  1.0341  0.5739 -0.2333
18416TIP3    H276664   4.752   2.289   4.247  0.4225 -0.6596  0.4220
18417TIP3   OH276665   3.772   5.151   5.366  0.1369  0.5611 -0.8999
18417TIP3    H176666   3.863   5.163   5.337  1.1229 -1.2139  1.2842
18417TIP3    H276667   3.775   5.167   5.460 -1.2027 -2.4224 -0.2885
18418TIP3   OH276668   3.273   5.675   5.482 -0.2818 -0.1735 -0.1188
18418TIP3    H176669   3.325   5.603   5.446 -0.1918 -1.1223  1.8146
18418TIP3    H276670   3.328   5.752   5.471  0.7808 -0.8710  0.2584
18419TIP3   OH276671   0.813   4.735   6.275  0.6456  0.3472  0.2300
18419TIP3    H176672   0.750   4.705   6.210  0.0963  0.4152  0.7256
18419TIP3    H276673   0.861   4.656   6.300 -0.0853  0.0643  0.7575
18420TIP3   OH276674   2.091   4.349   6.266 -0.5372 -0.0728  0.3101
18420TIP3    H176675   2.077   4.311   6.353 -0.8105 -1.2332 -0.2245
18420TIP3    H276676   2.167   4.302   6.232 -1.5780 -0.9783 -0.8208
18421TIP3   OH276677   4.119   3.452   2.903 -0.0241  0.6603 -0.1132
18421TIP3    H176678   4.202   3.499   2.914 -0.8488  2.3920 -1.2158
18421TIP3    H276679   4.100   3.417   2.991  0.8005  2.0578  0.6440
18422TIP3   OH276680   0.298   4.993   6.042 -0.3791  0.4719  0.1175
18422TIP3    H176681   0.394   4.991   6.050 -0.2815  1.6837 -0.6011
18422TIP3    H276682   0.267   5.021   6.128 -0.0297  1.0867  0.0472
18423TIP3   OH276683   1.000   5.466   5.279  0.3655 -0.0712 -0.9723
18423TIP3    H176684   0.994   5.506   5.366  1.7385 -0.6287 -0.6136
18423TIP3    H276685   1.057   5.524   5.229  1.4646 -0.9839 -0.7905
18424TIP3   OH276686   6.178   5.504   3.772 -0.5431 -0.2664  0.1482
18424TIP3    H176687   6.166   5.418   3.811 -0.1373 -0.5339 -0.3165
18424TIP3    H276688   6.218   5.557   3.841  1.1690 -1.0324 -0.2396
18425TIP3   OH276689   4.862   5.979   4.316 -0.2795  0.4276  0.1356
18425TIP3    H176690   4.791   6.042   4.320  0.0034  0.8170 -0.7704
18425TIP3    H276691   4.940   6.032   4.297 -0.4394 -0.4188 -3.1775
18426TIP3   OH276692   0.770   3.607   1.224  0.0341  0.0459 -0.1309
18426TIP3    H176693   0.752   3.600   1.130  1.8037 -1.5782 -0.3697
18426TIP3    H276694   0.866   3.601   1.230  0.0390  1.5941  1.6636
18427TIP3   OH276695   4.568   5.656   4.950 -0.6915  0.0023  0.7272
18427TIP3    H176696   4.654   5.639   4.910 -1.6014 -1.9649 -0.4800
18427TIP3    H276697   4.526   5.717   4.890 -0.4210  0.4170  0.9535
18428TIP3   OH276698   6.031   4.304   5.714 -0.0581  0.3902  1.0416
18428TIP3    H176699   6.018   4.314   5.809  1.5408  1.6101  1.1717
18428TIP3    H276700   6.005   4.388   5.678 -1.6442 -0.4188  0.2529
18429TIP3   OH276701   1.183   6.213   5.043 -0.2123 -0.8374 -0.2605
18429TIP3    H176702   1.114   6.275   5.020  0.5159  0.1246  0.1285
18429TIP3    H276703   1.169   6.194   5.135  0.8337  0.3917  0.1660
18430TIP3   OH276704   2.050   4.536   5.835  0.1286  0.2506  0.0494
18430TIP3    H176705   2.098   4.618   5.845  1.4852 -0.3031 -1.5933
18430TIP3    H276706   2.110   4.479   5.788 -2.3184 -0.2863 -2.5818
18431TIP3   OH276707   2.527   2.303   3.694 -0.0650 -0.3438  0.2064
18431TIP3    H176708   2.585   2.272   3.625  0.1746  0.2921  0.1217
18431TIP3    H276709   2.442   2.313   3.652 -0.6154 -2.7456  0.6828
18432TIP3   OH276710   3.045   7.075   3.604 -0.2808 -0.0500  0.0000
18432TIP3    H176711   3.113   7.015   3.573 -0.1775  0.1185 -0.0961
18432TIP3    H276712   3.074   7.161   3.575 -1.1425 -0.1135 -1.0764
18433TIP3   OH276713   2.040   0.958   2.866 -0.1811  0.0459  0.0564
18433TIP3    H176714   1.950   0.989   2.869 -0.9664 -2.2910  1.5619
18433TIP3    H276715   2.091   1.027   2.909 -1.6732 -0.0131  1.9674
18434TIP3   OH276716   6.328   5.811   4.691  0.8382 -0.4540  0.0675
18434TIP3    H176717   6.243   5.771   4.672  1.3609 -1.0341 -1.1181
18434TIP3    H276718   6.332   5.887   4.633  0.7164  0.1232  0.8221
18435TIP3   OH276719   1.596   1.721   4.617  0.3599  0.0941 -0.2447
18435TIP3    H176720   1.630   1.697   4.703  0.3618 -0.5529 -0.4204
18435TIP3    H276721   1.668   1.703   4.557 -0.0082 -0.4901 -0.5152
18436TIP3   OH276722   0.584   6.811   2.201 -0.1283  0.1238 -0.6295
18436TIP3    H176723   0.574   6.779   2.290  0.8999  0.8639 -0.2360
18436TIP3    H276724   0.495   6.832   2.173 -0.5465 -0.8914 -0.0770
18437TIP3   OH276725   1.113   4.206   4.249 -0.2263 -0.6745 -0.6397
18437TIP3    H176726   1.118   4.248   4.335  1.1155  2.3482 -2.1383
18437TIP3    H276727   1.058   4.129   4.264  0.0258 -0.2574  2.9302
18438TIP3   OH276728   2.958   2.606   3.318 -0.2934 -0.1661 -0.0965
18438TIP3    H176729   2.989   2.696   3.327 -1.2921  0.2349 -0.5285
18438TIP3    H276730   2.863   2.614   3.309 -0.1908 -1.0982 -2.4632
18439TIP3   OH276731   1.716   6.604   5.779  0.0515  0.0904 -0.1790
18439TIP3    H176732   1.792   6.619   5.836 -2.3074 -0.2751  3.2123
18439TIP3    H276733   1.658   6.679   5.797 -1.8496 -1.3452 -0.1800
18440TIP3   OH276734   4.192   1.763   2.437 -0.1024 -0.1116  0.2385
18440TIP3    H176735   4.194   1.844   2.489  0.5159  1.2147 -1.7730
18440TIP3    H276736   4.256   1.706   2.479 -0.2747  0.5759  1.4716
18441TIP3   OH276737   0.427   4.156   5.606 -0.3047 -0.2141 -0.1703
18441TIP3    H176738   0.353   4.107   5.570  0.3734 -0.9334 -0.6273
18441TIP3    H276739   0.453   4.107   5.684  0.2589 -0.5053 -0.5277
18442TIP3   OH276740   4.975   5.747   4.600  0.5562  0.1616  0.7331
18442TIP3    H176741   5.004   5.822   4.652 -0.0533 -1.4040  3.4338
18442TIP3    H276742   5.054   5.694   4.591  0.5394  0.1730  0.5250
18443TIP3   OH276743   1.644   3.988   2.929 -0.1027  0.0517  0.0958
18443TIP3    H176744   1.600   3.927   2.987  0.0668 -1.1368 -1.0178
18443TIP3    H276745   1.575   4.044   2.895 -0.6516 -1.2379 -0.9539
18444TIP3   OH276746   6.740   5.323   5.696 -0.5378 -0.0367  0.0004
18444TIP3    H176747   6.666   5.384   5.693 -1.1520 -0.6357  2.4572
18444TIP3    H276748   6.798   5.358   5.763 -0.3765 -1.5472  0.6726
18445TIP3   OH276749   7.162   4.758   5.875  0.0941 -0.2966 -0.0945
18445TIP3    H176750   7.071   4.741   5.851  0.2268 -0.8215 -0.2379
18445TIP3    H276751   7.202   4.671   5.878  0.2917 -0.1721  1.1699
18446TIP3   OH276752   7.115   1.227   2.104  0.6391  0.2025  0.1628
18446TIP3    H176753   7.091   1.172   2.029  2.2588 -0.3482  0.0274
18446TIP3    H276754   7.210   1.216   2.112  0.4946  0.3346  2.2378
18447TIP3   OH276755   6.416   2.861   2.935  0.3109 -0.1560  0.4317
18447TIP3    H176756   6.395   2.954   2.944 -2.3464 -0.3255 -3.0633
18447TIP3    H276757   6.452   2.853   2.846 -0.5186 -2.6412  0.2847
18448TIP3   OH276758   2.961   4.945   4.481  0.1433 -0.4853 -0.0695
18448TIP3    H176759   2.949   5.037   4.507  0.4186 -0.3258 -0.4995
18448TIP3    H276760   2.925   4.895   4.554  0.1077 -0.0347  0.2270
18449TIP3   OH276761   1.135   2.832   4.707 -0.6658 -0.0201 -0.6380
18449TIP3    H176762   1.206   2.791   4.756 -2.7944 -0.3344  2.3188
18449TIP3    H276763   1.163   2.924   4.698  0.7668 -0.4605 -0.8377
18450TIP3   OH276764   6.044   3.104   2.924 -0.1200  0.0305 -1.0666
18450TIP3    H176765   6.034   3.026   2.979  0.8268  1.1353  0.7435
18450TIP3    H276766   5.955   3.125   2.896 -0.3292 -2.0029 -2.0501
18451TIP3   OH276767   4.018   4.805   1.660 -0.1155 -1.4374 -0.2941
18451TIP3    H176768   4.094   4.811   1.718 -0.6087 -2.3066  0.4552
18451TIP3    H276769   4.043   4.854   1.582  0.3307  0.2408  0.8904
18452TIP3   OH276770   2.479   3.041   5.163  0.5072  0.0559  0.9265
18452TIP3    H176771   2.465   3.099   5.238 -1.4976 -0.1966  0.7910
18452TIP3    H276772   2.491   2.955   5.202 -0.8801 -0.1321  0.9605
18453TIP3   OH276773   0.980   0.278   3.225 -0.0428  0.2592  0.5009
18453TIP3    H176774   1.001   0.237   3.310 -1.4349 -0.9001  0.3182
18453TIP3    H276775   0.927   0.354   3.248 -1.1366 -0.5283  0.6607
18454TIP3   OH276776   5.656   4.916   4.944  0.0088  0.4213 -0.5791
18454TIP3    H176777   5.590   4.855   4.976  0.3089  0.9360  1.0539
18454TIP3    H276778   5.707   4.865   4.881 -1.0289 -0.4016 -0.7704
18455TIP3   OH276779   1.609   4.137   5.465 -0.1585  0.4803  0.0393
18455TIP3    H176780   1.699   4.142   5.434 -0.7709 -2.0359 -2.2695
18455TIP3    H276781   1.606   4.058   5.519 -1.3870 -0.3769 -1.2769
18456TIP3   OH276782   1.860   5.263   6.189 -0.6285 -0.2853 -0.1585
18456TIP3    H176783   1.907   5.200   6.133 -0.5234 -0.6018  0.2791
18456TIP3    H276784   1.817   5.208   6.255  0.2982  0.1631  0.8414
18457TIP3   OH276785   5.174   2.147   3.482 -0.1427 -0.2356 -0.2454
18457TIP3    H176786   5.251   2.179   3.529  0.2834 -4.0105  1.8608
18457TIP3    H276787   5.176   2.192   3.397  4.6535 -0.5767 -0.4242
18458TIP3   OH276788   2.163   6.812   4.609 -0.3452  0.2413  0.0410
18458TIP3    H176789   2.187   6.864   4.533  2.2558 -0.2479  0.4745
18458TIP3    H276790   2.238   6.820   4.668 -1.7592 -0.4706  1.9757
18459TIP3   OH276791   0.706   5.700   5.694  0.4789  0.0848  0.5406
18459TIP3    H176792   0.752   5.616   5.687 -0.6378 -0.5871  1.1602
18459TIP3    H276793   0.613   5.677   5.687  0.2295  1.4833 -1.2923
18460TIP3   OH276794   1.755   2.688   4.118  0.6021 -0.4360 -0.0514
18460TIP3    H176795   1.687   2.627   4.144  0.9672 -0.4055  1.0067
18460TIP3    H276796   1.795   2.649   4.040 -2.4198  0.8767 -2.3352
18461TIP3   OH276797   4.867   4.651   4.852  0.2273  0.1396  0.2351
18461TIP3    H176798   4.939   4.590   4.839 -1.1042 -1.4103 -0.0060
18461TIP3    H276799   4.863   4.701   4.771 -0.9887 -1.9576 -1.0263
18462TIP3   OH276800   1.255   5.320   5.139 -0.8029 -0.5388  0.5048
18462TIP3    H176801   1.214   5.403   5.164 -0.5946 -0.0401 -0.7666
18462TIP3    H276802   1.223   5.257   5.204 -3.0495 -0.0087 -0.0335
18463TIP3   OH276803   7.155   5.389   4.947 -0.3492 -0.0778  0.0725
18463TIP3    H176804   7.204   5.451   5.002  1.9637 -1.7536 -0.0326
18463TIP3    H276805   7.170   5.418   4.858  2.2206 -1.7666 -0.0900
18464TIP3   OH276806   1.059   5.938   4.863 -0.1400 -0.3238 -0.0981
18464TIP3    H176807   1.133   5.991   4.833  0.7412 -0.6526  1.4133
18464TIP3    H276808   0.983   5.974   4.817  0.8168  0.6279 -0.9642
18465TIP3   OH276809   6.557   4.191   2.658  0.4067 -0.3758  0.7805
18465TIP3    H176810   6.606   4.121   2.615  0.5983 -1.0317  2.0196
18465TIP3    H276811   6.607   4.270   2.642  0.2504 -0.5367 -0.5414
18466TIP3   OH276812   5.263   5.960   5.702 -0.2258 -0.3570  0.1861
18466TIP3    H176813   5.174   5.927   5.718 -0.2635 -0.4396 -0.1840
18466TIP3    H276814   5.310   5.943   5.783 -0.9002  0.8541  0.8342
18467TIP3   OH276815   2.018   6.619   4.064 -0.0419  0.0734 -0.3859
18467TIP3    H176816   2.058   6.567   4.133 -1.1722  0.3395  0.4735
18467TIP3    H276817   1.945   6.567   4.033 -1.2482  1.1670  0.5533
18468TIP3   OH276818   6.815   3.007   3.996 -0.1027 -0.4573 -0.6693
18468TIP3    H176819   6.895   2.972   3.957  1.4930  0.9505  1.2500
18468TIP3    H276820   6.796   3.086   3.946  0.4996 -0.0403 -0.2452
18469TIP3   OH276821   1.999   3.053   3.134  0.1486  0.1716 -0.2753
18469TIP3    H176822   1.986   3.143   3.102 -0.7231  0.1808  0.0930
18469TIP3    H276823   2.089   3.032   3.109  0.6795  1.4866  0.4416
18470TIP3   OH276824   5.555   5.719   4.812 -0.5525  0.7269  0.7704
18470TIP3    H176825   5.625   5.697   4.874 -1.9610  0.6017  2.3415
18470TIP3    H276826   5.595   5.783   4.753  1.9017 -1.8411 -0.4538
18471TIP3   OH276827   3.450   1.885   3.239  0.6747  0.8149 -0.5511
18471TIP3    H176828   3.379   1.825   3.261 -0.3621  2.0350 -0.5259
18471TIP3    H276829   3.524   1.827   3.217 -1.2877 -0.5564 -3.9720
18472TIP3   OH276830   3.067   5.379   5.099 -0.1658  0.0368 -0.0917
18472TIP3    H176831   3.085   5.468   5.067 -1.5135  0.0801 -0.7926
18472TIP3    H276832   3.081   5.323   5.022  3.0028 -0.6794  0.9291
18473TIP3   OH276833   6.338   1.117   2.695 -0.4062 -0.6103 -0.2765
18473TIP3    H176834   6.408   1.127   2.760 -0.8580  2.2197 -0.1456
18473TIP3    H276835   6.279   1.052   2.732  0.5764 -0.7645  1.0482
18474TIP3   OH276836   4.901   5.988   5.999  0.4597  0.1061  0.0065
18474TIP3    H176837   4.806   5.981   5.988  0.3354 -0.5036  1.3866
18474TIP3    H276838   4.912   6.056   6.066  1.0043  0.3881 -0.3716
18475TIP3   OH276839   3.626   4.886   5.284 -0.2829  0.5582  0.3476
18475TIP3    H176840   3.547   4.909   5.237 -0.3084  1.0072  0.6083
18475TIP3    H276841   3.662   4.969   5.313  0.0707  0.3299  0.5752
18476TIP3   OH276842   0.773   3.544   1.806 -0.8529 -0.0715 -0.0137
18476TIP3    H176843   0.824   3.472   1.844  0.9983  1.4236  0.4110
18476TIP3    H276844   0.699   3.555   1.865 -0.9734 -1.3898  0.1014
18477TIP3   OH276845   1.397   6.219   2.747  0.1297  0.4479  0.0922
18477TIP3    H176846   1.361   6.144   2.795 -1.0472  1.7479  1.2651
18477TIP3    H276847   1.404   6.288   2.812  0.3094  1.6524 -1.1993
18478TIP3   OH276848   6.573   4.522   2.043 -0.2561  0.4211  0.5961
18478TIP3    H176849   6.509   4.589   2.066 -0.7599 -0.2950  1.2841
18478TIP3    H276850   6.527   4.463   1.983 -0.0983  0.1692  0.7208
18479TIP3   OH276851   0.534   3.797   4.566 -0.0849  0.1745 -0.1285
18479TIP3    H176852   0.473   3.838   4.627 -0.9119  0.2712 -1.0146
18479TIP3    H276853   0.524   3.846   4.485  3.6452  2.4278  0.6666
18480TIP3   OH276854   2.676   6.849   4.495  0.4108 -0.0900  0.2199
18480TIP3    H176855   2.738   6.922   4.496  0.5975 -0.2509  1.5287
18480TIP3    H276856   2.727   6.776   4.458  0.6373  0.0988  0.1591
18481TIP3   OH276857   2.276   4.763   5.935 -0.2939 -0.4295 -0.2254
18481TIP3    H176858   2.297   4.855   5.947 -1.7452  0.0045 -0.8284
18481TIP3    H276859   2.347   4.715   5.979  0.2160  0.9694  0.4895
18482TIP3   OH276860   6.951   0.921   4.165 -0.3372 -0.0378  0.8160
18482TIP3    H176861   6.925   0.835   4.199  0.0664 -0.6443 -0.3920
18482TIP3    H276862   6.891   0.982   4.208 -1.9605 -1.1393  0.1604
18483TIP3   OH276863   5.334   3.667   4.607  0.0020  0.1482  0.0373
18483TIP3    H176864   5.396   3.628   4.669  3.6572  1.4302 -2.6265
18483TIP3    H276865   5.304   3.747   4.650  2.6231  1.1205  0.1215
18484TIP3   OH276866   4.937   7.284   4.377  0.3282  0.2075  0.2635
18484TIP3    H176867   4.967   7.364   4.420 -1.4740  0.8128  0.4165
18484TIP3    H276868   5.017   7.245   4.340  1.3181  1.6837  0.8223
18485TIP3   OH276869   4.373   0.260   5.454  0.1957 -0.1878 -0.1784
18485TIP3    H176870   4.364   0.323   5.383  2.2760  0.1182 -0.2011
18485TIP3    H276871   4.289   0.214   5.455 -0.2550  0.5056 -2.1503
18486TIP3   OH276872   0.655   4.042   4.013 -0.4202 -0.2685  0.2779
18486TIP3    H176873   0.641   4.076   3.925  0.5528  1.0013  0.5940
18486TIP3    H276874   0.679   4.119   4.065  0.8803 -1.2920  1.2240
18487TIP3   OH276875   6.438   5.829   4.336 -0.1404  0.8767  0.4773
18487TIP3    H176876   6.531   5.811   4.322  0.1328  0.9271  2.1660
18487TIP3    H276877   6.394   5.748   4.312  0.4753  0.3302  1.1645
18488TIP3   OH276878   7.150   7.225   4.639 -0.4050  0.0837 -0.3550
18488TIP3    H176879   7.141   7.280   4.561 -3.0974  0.3804  0.1297
18488TIP3    H276880   7.229   7.173   4.622 -0.9787  0.0812 -3.2972
18489TIP3   OH276881   4.291   3.635   3.101 -0.0326  0.2048 -0.2928
18489TIP3    H176882   4.306   3.604   3.190  0.4976 -1.2528 -0.8743
18489TIP3    H276883   4.378   3.662   3.070 -0.2947  1.1556 -0.2068
18490TIP3   OH276884   2.236   3.408   3.665 -0.1869 -0.0007  0.3042
18490TIP3    H176885   2.146   3.399   3.635 -0.3290 -0.3136  0.8283
18490TIP3    H276886   2.271   3.480   3.612 -0.2100 -1.0359 -1.1379
18491TIP3   OH276887   3.099   3.609   4.322 -0.1635  0.5078  0.4029
18491TIP3    H176888   3.029   3.627   4.385 -0.5593 -1.0818  0.4592
18491TIP3    H276889   3.160   3.681   4.332 -0.3962  0.4627  2.3758
18492TIP3   OH276890   1.476   3.256   5.955 -0.0724 -0.0852 -0.8994
18492TIP3    H176891   1.551   3.280   6.009 -1.2266  0.7255  0.3788
18492TIP3    H276892   1.490   3.301   5.872 -0.1307  1.7105  0.0346
18493TIP3   OH276893   2.658   6.135   5.949 -0.2416 -0.0159 -0.2380
18493TIP3    H176894   2.606   6.057   5.969 -0.4407  0.2310  0.2321
18493TIP3    H276895   2.719   6.141   6.022  1.0353 -0.7967 -1.2226
18494TIP3   OH276896   1.077   4.077   3.267  0.2776 -0.7382  0.1691
18494TIP3    H176897   1.169   4.089   3.289  0.6340 -2.4912 -0.2719
18494TIP3    H276898   1.056   4.150   3.208  1.8723 -1.3436 -1.1676
18495TIP3   OH276899   5.644   6.011   5.519  0.0693  0.2457  0.2812
18495TIP3    H176900   5.614   6.095   5.483  0.7290  0.3342 -0.0601
18495TIP3    H276901   5.739   6.019   5.522  0.0991 -0.3084  0.7050
18496TIP3   OH276902   0.731   1.409   4.905 -0.0169  0.3922 -0.0946
18496TIP3    H176903   0.801   1.404   4.840  0.2476  0.0760  0.2157
18496TIP3    H276904   0.768   1.370   4.984 -0.9525 -0.9094 -0.2768
18497TIP3   OH276905   3.823   3.898   2.730 -0.0459 -0.1130  0.2732
18497TIP3    H176906   3.847   3.874   2.820  1.8086  0.7464  0.0233
18497TIP3    H276907   3.899   3.946   2.697 -0.8654 -0.1072 -1.6382
18498TIP3   OH276908   3.459   5.630   3.144 -0.2044  0.2202 -0.1350
18498TIP3    H176909   3.366   5.651   3.144 -0.1714  0.3702 -0.3337
18498TIP3    H276910   3.503   5.712   3.168 -0.1796 -0.1293  1.0643
18499TIP3   OH276911   6.108   4.949   3.037  0.2273 -0.6684 -0.0028
18499TIP3    H176912   6.015   4.968   3.046  0.5320  0.6495  0.4390
18499TIP3    H276913   6.152   5.020   3.084  1.4764 -0.7999 -0.9507
18500TIP3   OH276914   2.279   4.971   1.704  0.0495  0.2914  0.0116
18500TIP3    H176915   2.199   4.964   1.756 -0.9113  3.1408 -1.0540
18500TIP3    H276916   2.253   5.013   1.623  2.2286 -0.8204 -1.3337
18501TIP3   OH276917   3.041   0.502   5.260  0.4636  0.2981  0.6149
18501TIP3    H176918   2.957   0.456   5.254  1.0691 -0.5944 -1.4517
18501TIP3    H276919   3.018   0.591   5.285 -0.9228 -0.4675  2.2311
18502TIP3   OH276920   4.433   5.385   5.044 -0.6612 -0.0630 -0.5729
18502TIP3    H176921   4.490   5.424   4.979  0.8501  1.2314  1.4800
18502TIP3    H276922   4.347   5.423   5.027 -0.0820  0.9629 -1.2200
18503TIP3   OH276923   2.161   3.737   3.930 -0.0863  0.2454 -0.3839
18503TIP3    H176924   2.115   3.682   3.867 -1.6925 -0.1139  1.0752
18503TIP3    H276925   2.112   3.727   4.012  2.0328  0.5870  0.9744
18504TIP3   OH276926   6.824   2.886   2.567  0.5422  0.1673  0.6325
18504TIP3    H176927   6.919   2.899   2.569  0.5376  0.2504  0.2044
18504TIP3    H276928   6.812   2.804   2.520  0.4386 -0.1927  1.2843
18505TIP3   OH276929   0.937   3.469   4.888 -0.4104  0.2912 -0.0696
18505TIP3    H176930   0.919   3.390   4.837 -0.7240  0.9554 -1.0078
18505TIP3    H276931   0.865   3.528   4.866 -0.1663  0.8448  0.6122
18506TIP3   OH276932   1.649   3.873   4.576  0.1719 -0.3355  0.1035
18506TIP3    H176933   1.572   3.816   4.584 -0.2683  0.5081  2.3407
18506TIP3    H276934   1.716   3.829   4.629  0.8811 -0.4594 -0.8803
18507TIP3   OH276935   5.452   7.209   4.992  0.1249 -0.0519  0.2802
18507TIP3    H176936   5.426   7.149   4.922 -0.3785  0.8928 -0.3526
18507TIP3    H276937   5.498   7.280   4.947  0.3380  0.2494  0.9721
18508TIP3   OH276938   2.538   5.141   6.088  0.4900 -0.8892 -0.6235
18508TIP3    H176939   2.530   5.231   6.056  0.1752 -1.2169 -1.4812
18508TIP3    H276940   2.460   5.128   6.141  1.2969 -0.1528  0.7963
18509TIP3   OH276941   5.059   5.932   4.778  0.5980 -0.4136  0.1025
18509TIP3    H176942   5.149   5.964   4.765  1.2074 -2.5571 -1.2511
18509TIP3    H276943   5.061   5.891   4.864  1.2884 -1.5768 -0.4511
18510TIP3   OH276944   3.266   5.764   2.945  0.1652  0.4313 -0.2397
18510TIP3    H176945   3.278   5.670   2.952 -0.1248  0.4260  0.2011
18510TIP3    H276946   3.351   5.801   2.971  0.1683  0.2995 -0.0597
18511TIP3   OH276947   1.542   0.572   2.341 -0.5675  0.0771  0.9484
18511TIP3    H176948   1.571   0.620   2.264  0.6877 -0.0790  1.3107
18511TIP3    H276949   1.614   0.513   2.361 -1.1318 -0.3042  1.8896
18512TIP3   OH276950   2.615   4.620   4.017 -0.4201 -0.1486 -0.1624
18512TIP3    H176951   2.571   4.700   4.045 -1.8976 -0.6760 -0.9057
18512TIP3    H276952   2.663   4.644   3.938 -0.8088  0.0172 -0.3480
18513TIP3   OH276953   3.711   3.557   3.870  0.0122  0.4608 -0.2715
18513TIP3    H176954   3.743   3.623   3.932 -1.2654  1.0690 -0.2529
18513TIP3    H276955   3.695   3.606   3.790  1.2778 -0.2550 -0.9854
18514TIP3   OH276956   1.425   3.580   3.418 -0.2182 -0.2093  0.5539
18514TIP3    H176957   1.412   3.567   3.324 -1.5127  0.6393  0.6130
18514TIP3    H276958   1.519   3.600   3.427 -0.5372  2.0911 -0.8382
18515TIP3   OH276959   6.498   6.516   3.414  0.0861 -0.2293  0.4839
18515TIP3    H176960   6.501   6.611   3.398  1.7990  0.1042  2.6159
18515TIP3    H276961   6.584   6.484   3.384  0.3785 -0.7493  1.8675
18516TIP3   OH276962   4.296   6.152  13.964  0.3886  0.3582 -0.5575
18516TIP3    H176963   4.358   6.095  13.919 -0.0488 -0.3751 -0.2340
18516TIP3    H276964   4.351   6.214  14.012  0.8716 -0.0005 -0.6452
18517TIP3   OH276965   6.268   5.315   1.096  0.0284 -0.0206  0.2683
18517TIP3    H176966   6.354   5.297   1.060  0.2963 -0.5747  1.1800
18517TIP3    H276967   6.219   5.234   1.083 -0.3451  0.2768 -0.2050
18518TIP3   OH276968   4.140   6.298   5.672 -0.2248  0.0602 -0.4005
18518TIP3    H176969   4.224   6.341   5.653 -0.3713  0.2057 -0.7133
18518TIP3    H276970   4.076   6.369   5.674 -0.4279 -0.1147 -0.6759
18519TIP3   OH276971   3.962   3.452   6.152 -0.5541  0.3729 -0.2922
18519TIP3    H176972   3.893   3.511   6.123 -1.2267  1.0239  2.4789
18519TIP3    H276973   4.038   3.477   6.100 -1.1436  2.9142  0.0179
18520TIP3   OH276974   1.679   4.289   5.698  0.3677 -0.2202 -0.1015
18520TIP3    H176975   1.637   4.302   5.613 -1.5215  1.1689  1.0178
18520TIP3    H276976   1.609   4.259   5.756  1.1551  0.9551  1.5131
18521TIP3   OH276977   2.455   5.416   2.760 -0.2001  0.5081  0.2785
18521TIP3    H176978   2.375   5.421   2.813 -0.3496  0.0325  0.1052
18521TIP3    H276979   2.452   5.494   2.705  0.3164  1.3693  1.4668
18522TIP3   OH276980   2.982   6.329   4.395  0.3157 -0.0324  0.1116
18522TIP3    H176981   3.029   6.351   4.315  1.3589  0.2996  0.8069
18522TIP3    H276982   3.030   6.373   4.464 -0.2650 -0.7561  0.9880
18523TIP3   OH276983   4.945   4.396   5.119 -0.7901  0.2113  0.5546
18523TIP3    H176984   4.894   4.411   5.198 -2.8284  0.5093 -0.7970
18523TIP3    H276985   4.885   4.352   5.059  0.2771  1.2958 -1.3583
18524TIP3   OH276986   6.111   5.947   3.697  0.1018  0.2513  0.3892
18524TIP3    H176987   6.056   5.892   3.753 -0.2139  0.8807  0.7030
18524TIP3    H276988   6.150   6.011   3.756 -0.0229  0.7554 -0.0687
18525TIP3   OH276989   0.512   4.552   5.371 -0.1625  0.3548  0.3335
18525TIP3    H176990   0.558   4.469   5.382 -1.4312 -0.6182 -1.5139
18525TIP3    H276991   0.513   4.568   5.277 -0.6776  2.0004  0.5922
18526TIP3   OH276992   0.954   2.925  15.995 -0.6718  0.2919  0.0116
18526TIP3    H176993   0.904   2.969  16.064  0.6682 -1.0481  1.8964
18526TIP3    H276994   0.909   2.841  15.984 -0.3492  0.1324 -0.0835
18527TIP3   OH276995   1.059   6.251   4.455 -0.6967 -0.1962 -0.0530
18527TIP3    H176996   1.086   6.203   4.377 -1.3333  0.0783 -0.4472
18527TIP3    H276997   1.001   6.190   4.502 -1.1021 -0.0023 -0.2983
18528TIP3   OH276998   1.976   1.834   4.951 -0.5315  0.6037  0.7516
18528TIP3    H176999   2.054   1.852   4.898 -1.7495 -0.7103 -1.6072
18528TIP3    H277000   1.996   1.754   4.998 -0.5698  0.0641 -0.1391
18529TIP3   OH277001   2.847   3.053   5.400  0.3535  0.2166 -0.4413
18529TIP3    H177002   2.802   2.978   5.438  1.1454  0.1498  0.3822
18529TIP3    H277003   2.788   3.127   5.416  0.4942  0.1208  0.5837
18530TIP3   OH277004   4.069   6.041   0.848  0.0462  0.1256 -0.1170
18530TIP3    H177005   4.023   6.035   0.932  0.0372 -0.1693 -0.1405
18530TIP3    H277006   4.037   5.965   0.799  3.6129 -2.5097  1.3843
18531TIP3   OH277007   0.772   2.681   2.256 -0.4921  0.7583 -0.5204
18531TIP3    H177008   0.754   2.730   2.175  1.0437 -0.6331 -1.7330
18531TIP3    H277009   0.685   2.661   2.291 -1.1626  2.3017 -1.2342
18532TIP3   OH277010   1.741   1.806   3.386  0.2380  0.4844 -0.5238
18532TIP3    H177011   1.716   1.854   3.307 -0.6564  0.4348 -0.2831
18532TIP3    H277012   1.828   1.840   3.408  0.8888 -0.1679 -2.0371
18533TIP3   OH277013   1.116   1.907   4.897  0.2163 -0.2219  0.3529
18533TIP3    H177014   1.035   1.953   4.875  0.1981  0.6480  2.1159
18533TIP3    H277015   1.110   1.891   4.992  2.0032 -0.3544  0.4739
18534TIP3   OH277016   3.366   4.269   2.090  0.4931 -0.1752  0.0683
18534TIP3    H177017   3.284   4.223   2.070  0.7955 -0.3379 -0.7940
18534TIP3    H277018   3.396   4.229   2.172 -1.9594  2.1106  2.1726
18535TIP3   OH277019   3.413   0.314   4.852  0.3259  0.0886 -0.7044
18535TIP3    H177020   3.357   0.289   4.926  1.5585 -2.0533 -0.4675
18535TIP3    H277021   3.498   0.332   4.891  0.8219 -0.4561 -1.5136
18536TIP3   OH277022   2.209   3.558   4.720  0.1950 -0.4444  0.3532
18536TIP3    H177023   2.214   3.490   4.787 -0.1489 -0.0684  0.7713
18536TIP3    H277024   2.205   3.640   4.770  1.2450 -0.0751 -0.1522
18537TIP3   OH277025   4.766   3.816   5.736 -0.0113 -0.3747  0.2696
18537TIP3    H177026   4.689   3.827   5.792 -0.2393 -4.0559  0.8336
18537TIP3    H277027   4.840   3.827   5.796 -0.1149  1.2434  0.1206
18538TIP3   OH277028   0.969   5.685   4.872  0.0613  0.2573  0.0751
18538TIP3    H177029   1.025   5.760   4.893  0.5793 -0.1499  0.1786
18538TIP3    H277030   0.902   5.686   4.940 -0.3270  1.0163 -0.3143
18539TIP3   OH277031   5.500   1.954   5.279  0.1367  0.3561  0.3033
18539TIP3    H177032   5.584   1.999   5.287  0.1261  0.3026  0.7445
18539TIP3    H277033   5.494   1.900   5.358 -1.1866  1.8281  1.2286
18540TIP3   OH277034   1.495   7.170   3.688 -0.4650 -0.1394 -0.3542
18540TIP3    H177035   1.577   7.154   3.641  0.2815  0.8967  0.5646
18540TIP3    H277036   1.490   7.100   3.753  0.6061  0.8272  0.7836
18541TIP3   OH277037   4.865   4.334   2.827 -0.1484  0.0619  0.0355
18541TIP3    H177038   4.819   4.257   2.795  0.4850 -0.4868  0.4209
18541TIP3    H277039   4.824   4.354   2.911 -0.7457  0.5368 -0.3675
18542TIP3   OH277040   2.123   2.381   3.216 -0.0092  0.0352 -0.5696
18542TIP3    H177041   2.072   2.337   3.148  0.1355 -2.7958  1.0590
18542TIP3    H277042   2.117   2.474   3.195  0.9604 -0.8252 -5.0454
18543TIP3   OH277043   3.403   0.006   3.975  0.1047  0.3207  0.5490
18543TIP3    H177044   3.363   0.087   3.944  1.1736  0.3644 -0.7350
18543TIP3    H277045   3.478   0.035   4.028  0.3798  0.1881  0.2381
18544TIP3   OH277046   1.697   6.829   5.424 -0.9170  0.0742  0.0992
18544TIP3    H177047   1.691   6.900   5.487 -1.2284  0.2795 -0.1612
18544TIP3    H277048   1.740   6.758   5.472  0.3067  0.7742  0.0621
18545TIP3   OH277049   4.010   6.559   5.527  0.5084  0.0883 -0.5193
18545TIP3    H177050   4.052   6.518   5.452 -0.5446 -2.1620  0.0614
18545TIP3    H277051   3.916   6.557   5.506  0.2525 -0.0689  0.6093
18546TIP3   OH277052   2.764   6.945   5.030  0.2859 -0.0114 -0.7170
18546TIP3    H177053   2.674   6.915   5.023  0.6537 -1.6211  1.0549
18546TIP3    H277054   2.786   6.933   5.122  2.6684 -0.7027 -1.3372
18547TIP3   OH277055   2.094   5.158   6.029  0.3539  0.1241 -0.3675
18547TIP3    H177056   2.170   5.114   5.989 -0.3785 -0.4546 -1.1527
18547TIP3    H277057   2.036   5.177   5.955 -0.7920 -0.4960  0.3590
18548TIP3   OH277058   6.770   2.823   2.900 -0.8399 -0.0148  0.1531
18548TIP3    H177059   6.704   2.836   2.831  0.7877  0.6589 -1.3118
18548TIP3    H277060   6.822   2.749   2.869  3.0202  3.3675 -1.8929
18549TIP3   OH277061   1.271   3.541   5.173  0.1013  0.3887  0.0319
18549TIP3    H177062   1.305   3.613   5.225 -1.9355  1.4962 -0.1059
18549TIP3    H277063   1.188   3.518   5.215 -0.7474  0.1739 -1.7191
18550TIP3   OH277064   4.254   5.064  15.774  0.0896 -0.4134  0.0580
18550TIP3    H177065   4.284   4.990  15.721  0.6452 -0.1896  0.0605
18550TIP3    H277066   4.286   5.044  15.862  1.0252  0.2619 -0.1120
18551TIP3   OH277067   1.520   6.182   4.765  0.0702 -0.6197  0.1608
18551TIP3    H177068   1.593   6.243   4.776  0.0697 -0.3993 -0.9767
18551TIP3    H277069   1.526   6.154   4.674  0.6843 -3.1230  0.9475
18552TIP3   OH277070   1.440   3.778   4.070 -0.2459  0.2772 -0.2505
18552TIP3    H177071   1.438   3.867   4.105  0.9051  1.2196 -2.4782
18552TIP3    H277072   1.532   3.754   4.069 -0.0947  0.7948 -3.7845
18553TIP3   OH277073   5.231   4.384   3.426  0.0750 -0.1158  0.0865
18553TIP3    H177074   5.136   4.391   3.437 -0.0664 -0.5600 -0.8434
18553TIP3    H277075   5.253   4.298   3.460  0.2097  0.1502  0.6865
18554TIP3   OH277076   3.120   4.221   2.789 -0.2245 -0.1163 -0.0001
18554TIP3    H177077   3.134   4.308   2.752 -0.9479 -0.3294 -0.7895
18554TIP3    H277078   3.074   4.173   2.720  0.6329 -1.2778  0.2217
18555TIP3   OH277079   6.738   0.845   4.606  0.1609 -0.4730 -0.2312
18555TIP3    H177080   6.806   0.782   4.581  0.2253 -1.3671  2.1001
18555TIP3    H277081   6.786   0.924   4.631  0.2553 -0.6358  0.0957
18556TIP3   OH277082   2.812   4.691   6.042 -0.2329 -0.3639  0.3504
18556TIP3    H177083   2.730   4.643   6.035 -0.6366  0.4430 -0.4900
18556TIP3    H277084   2.811   4.752   5.968  1.8865 -1.5155 -0.6993
18557TIP3   OH277085   5.801   6.914   5.770  0.1010 -0.1599  0.4726
18557TIP3    H177086   5.863   6.934   5.700  1.5521  0.9549  2.0332
18557TIP3    H277087   5.793   6.819   5.769  0.2530 -0.1656 -1.0746
18558TIP3   OH277088   3.028   6.163   4.993  0.1109 -0.8216  0.2296
18558TIP3    H177089   3.115   6.184   5.027 -0.6881  1.2027  1.1413
18558TIP3    H277090   2.995   6.095   5.052 -0.1626  0.6686  1.8291
18559TIP3   OH277091   4.437   0.296   4.176  0.0204  0.5523  0.4408
18559TIP3    H177092   4.416   0.314   4.267  1.5995  1.0053  0.7362
18559TIP3    H277093   4.409   0.206   4.162 -2.6806  1.3131  0.5927
18560TIP3   OH277094   5.064   4.736   4.566 -0.0799  0.1150  0.0996
18560TIP3    H177095   5.106   4.677   4.503 -0.6542  1.6103 -1.7459
18560TIP3    H277096   5.102   4.712   4.651  0.0511 -2.5634 -0.6618
18561TIP3   OH277097   6.291   5.462   3.247 -0.2851  0.1656  0.0922
18561TIP3    H177098   6.306   5.485   3.338  1.0099  0.4719 -0.1814
18561TIP3    H277099   6.374   5.422   3.218 -0.7004  0.0159 -0.9228
18562TIP3   OH277100   5.569   3.479   2.910  0.5225  0.4218 -0.1953
18562TIP3    H177101   5.629   3.550   2.932  0.9726  0.5794 -1.8286
18562TIP3    H277102   5.565   3.480   2.814 -0.0779 -1.2437 -0.2107
18563TIP3   OH277103   4.873   0.643   2.969 -0.2181 -0.1856 -0.3755
18563TIP3    H177104   4.961   0.678   2.952  0.4475 -0.6924  1.8413
18563TIP3    H277105   4.886   0.549   2.978 -1.1585 -0.3805 -0.9582
18564TIP3   OH277106   0.016   4.825   3.348  0.6676 -0.2407 -0.3167
18564TIP3    H177107   0.017   4.906   3.399 -1.6414 -0.7295  0.5548
18564TIP3    H277108   0.060   4.761   3.404  0.7881 -0.0522 -0.1943
18565TIP3   OH277109   4.396   4.553   5.386  0.5154 -0.3114 -0.2520
18565TIP3    H177110   4.471   4.609   5.365  0.3942 -0.5140 -1.2414
18565TIP3    H277111   4.320   4.602   5.356  0.1810  0.2061  1.3991
18566TIP3   OH277112   0.673   7.114   2.410  0.1530  0.5550 -0.1997
18566TIP3    H177113   0.718   7.171   2.472  0.9671 -0.1761 -0.1065
18566TIP3    H277114   0.738   7.096   2.342 -0.0060 -0.4848 -0.0848
18567TIP3   OH277115   0.638   2.736   4.894 -0.2251 -1.0481  0.6943
18567TIP3    H177116   0.597   2.683   4.825  0.4767 -0.5317 -0.1207
18567TIP3    H277117   0.729   2.706   4.896  1.2139  2.6541 -2.3678
18568TIP3   OH277118   2.494   4.572   5.017  0.1575 -0.2776  0.1776
18568TIP3    H177119   2.412   4.549   4.971 -1.6498  1.6947  2.3455
18568TIP3    H277120   2.479   4.660   5.050  1.6943 -1.3716  3.9480
18569TIP3   OH277121   4.547   5.219   3.583 -0.0648 -0.3100  0.3301
18569TIP3    H177122   4.539   5.123   3.582  3.5310 -0.7118  2.0749
18569TIP3    H277123   4.509   5.245   3.667  1.0373 -0.4860  0.9001
18570TIP3   OH277124   2.627   2.137   4.403 -0.1706 -0.0790  0.1643
18570TIP3    H177125   2.662   2.051   4.381  0.5100  0.2130  0.0814
18570TIP3    H277126   2.689   2.172   4.468  0.0410  0.6968 -0.4514
18571TIP3   OH277127   5.849   5.358   4.273 -0.2939  0.2164  0.1116
18571TIP3    H177128   5.855   5.277   4.324 -1.0263 -0.3886 -0.7753
18571TIP3    H277129   5.756   5.381   4.274 -0.4584 -0.2912 -1.7147
18572TIP3   OH277130   4.242   1.637   3.109 -0.4235 -0.1330 -0.4060
18572TIP3    H177131   4.232   1.730   3.087  0.5132 -0.0287 -0.4063
18572TIP3    H277132   4.182   1.624   3.183  0.8235  0.9277  0.8240
18573TIP3   OH277133   3.650   4.112   4.812  0.2176 -0.0084  0.0406
18573TIP3    H177134   3.712   4.161   4.865 -2.2988  1.1030  2.0652
18573TIP3    H277135   3.618   4.175   4.748  1.5234 -0.7237 -1.3467
18574TIP3   OH277136   1.776   5.138   4.137 -0.7026 -0.1078 -0.6190
18574TIP3    H177137   1.819   5.220   4.113 -2.0008  1.2159  1.4992
18574TIP3    H277138   1.709   5.126   4.070  0.1330  0.0342 -1.4933
18575TIP3   OH277139   3.058   2.102   4.806  0.0316 -0.0276  0.3198
18575TIP3    H177140   2.996   2.048   4.757 -0.8584 -0.1262  1.5411
18575TIP3    H277141   3.138   2.050   4.808 -0.4154 -0.7248  0.3525
18576TIP3   OH277142   0.756   2.715   5.548  0.0015 -0.0705  0.1867
18576TIP3    H177143   0.828   2.655   5.531  0.0762  0.4985 -1.6634
18576TIP3    H277144   0.770   2.787   5.487 -2.7460 -0.4979 -1.0440
18577TIP3   OH277145   5.362   3.355   4.393 -0.1160  0.6181  0.3341
18577TIP3    H177146   5.269   3.371   4.378  0.0863 -0.5706 -2.3731
18577TIP3    H277147   5.364   3.291   4.464 -1.2571  2.4407  2.0835
18578TIP3   OH277148   0.115   4.588   4.630 -0.2636 -0.4491 -0.1844
18578TIP3    H177149   0.037   4.578   4.685  0.8837 -3.0532  1.0272
18578TIP3    H277150   0.114   4.510   4.574 -0.1685  1.0412 -2.3217
18579TIP3   OH277151   1.502   6.461   4.596 -0.5156 -0.0376 -0.3764
18579TIP3    H177152   1.557   6.442   4.672 -0.0426 -0.4913 -0.8262
18579TIP3    H277153   1.413   6.441   4.625 -0.5230  1.2967  0.5586
18580TIP3   OH277154   2.248   5.355   5.508 -0.1221  0.7580 -0.8835
18580TIP3    H177155   2.252   5.313   5.422  2.4979 -1.9119  0.4795
18580TIP3    H277156   2.180   5.306   5.555  2.9229 -2.0931  0.7001
18581TIP3   OH277157   4.177   3.118   4.441  0.0285 -0.0149  0.4059
18581TIP3    H177158   4.217   3.058   4.503 -0.8765 -0.4976  0.5271
18581TIP3    H277159   4.147   3.192   4.494  0.4138  0.1743  0.3642
18582TIP3   OH277160   1.640   5.539   5.355 -0.5883 -0.7843  0.4800
18582TIP3    H177161   1.627   5.476   5.284  1.3832 -1.1160  0.3900
18582TIP3    H277162   1.558   5.590   5.357 -1.0211 -1.3693 -1.4147
18583TIP3   OH277163   2.186   3.117   4.755  0.1554 -0.3209  0.5872
18583TIP3    H177164   2.174   3.027   4.723  0.0020 -1.3269  3.3521
18583TIP3    H277165   2.276   3.120   4.786 -0.9064 -0.7215  3.9600
18584TIP3   OH277166   0.462   2.533   5.374 -0.4054 -0.0832  0.0556
18584TIP3    H177167   0.557   2.524   5.370 -0.4611 -0.4671 -0.5101
18584TIP3    H277168   0.438   2.564   5.287 -0.9110 -1.1152 -0.1860
18585TIP3   OH277169   3.239   5.706   6.160 -0.0425  0.1892  0.1591
18585TIP3    H177170   3.246   5.791   6.204  1.2590  0.0975  0.1449
18585TIP3    H277171   3.307   5.707   6.094 -0.2665 -0.7247 -0.0981
18586TIP3   OH277172   4.186   5.471   5.899 -0.4576  0.5708 -0.6058
18586TIP3    H177173   4.223   5.419   5.970  2.7024  0.5304 -2.1832
18586TIP3    H277174   4.177   5.559   5.936  1.1523  0.5538 -0.1320
18587TIP3   OH277175   2.319   7.053   5.395  0.7153 -0.0411 -0.3617
18587TIP3    H177176   2.372   7.116   5.443  0.4868  1.0577 -1.5199
18587TIP3    H277177   2.230   7.090   5.397  0.4233 -0.7274 -0.3663
18588TIP3   OH277178   3.091   6.350   0.161  0.1697  0.4530 -0.3445
18588TIP3    H177179   3.111   6.280   0.099 -1.9232  0.0737 -0.6303
18588TIP3    H277180   3.123   6.430   0.117 -0.4030  0.0681 -1.4909
18589TIP3   OH277181   1.428   3.341   4.037  0.2433  0.5178 -0.2265
18589TIP3    H177182   1.449   3.399   3.964 -1.3222 -0.5828 -1.5982
18589TIP3    H277183   1.332   3.341   4.041  0.2513 -0.9525  0.5551
18590TIP3   OH277184   2.482   4.092   4.149 -0.3444  0.1748  0.3965
18590TIP3    H177185   2.454   4.097   4.241  0.5358 -0.0062  0.6776
18590TIP3    H277186   2.523   4.006   4.142 -1.9749 -0.5328 -0.6113
18591TIP3   OH277187   1.987   6.412   5.848  0.3428 -0.1718 -0.3554
18591TIP3    H177188   2.076   6.384   5.827  0.6139  0.7684 -0.4504
18591TIP3    H277189   1.940   6.408   5.765  0.8667  1.4641 -0.7535
18592TIP3   OH277190   1.486   5.036   2.482 -0.7098  0.2235 -0.2040
18592TIP3    H177191   1.477   4.995   2.396  0.2706 -0.3472 -0.0460
18592TIP3    H277192   1.472   5.129   2.467  0.2153  0.2123 -1.1012
18593TIP3   OH277193   2.401   3.973   2.975 -0.0396  0.3738  0.0164
18593TIP3    H177194   2.356   3.956   2.892  0.4778 -3.5545  0.4703
18593TIP3    H277195   2.359   4.052   3.009 -1.7019  0.8327 -2.9547
18594TIP3   OH277196   1.176   4.084   6.136 -0.0527  0.2978 -0.6448
18594TIP3    H177197   1.193   4.052   6.047  1.2271  1.4323 -0.8284
18594TIP3    H277198   1.262   4.112   6.167 -0.4574 -0.2975  1.0434
18595TIP3   OH277199   5.320   4.911   4.564 -0.2795  0.5181  0.1976
18595TIP3    H177200   5.312   4.822   4.530  1.8277  0.3764  0.0029
18595TIP3    H277201   5.315   4.900   4.659  0.3556  0.1340  0.1927
18596TIP3   OH277202   3.379   4.376   5.061  0.0479 -0.2754  1.0670
18596TIP3    H177203   3.291   4.397   5.092 -0.0442  1.2354 -0.1202
18596TIP3    H277204   3.381   4.280   5.059 -1.4483 -0.3401  1.4482
18597TIP3   OH277205   0.701   5.958   5.757 -0.4100  0.5375  0.4219
18597TIP3    H177206   0.735   5.953   5.846 -2.2639 -0.5469  1.1032
18597TIP3    H277207   0.718   5.871   5.720 -0.9862  0.5032  0.2364
18598TIP3   OH277208   1.537   3.602   2.489  0.1828 -0.2499  0.1929
18598TIP3    H177209   1.617   3.652   2.470  0.4545 -0.7101  0.1228
18598TIP3    H277210   1.515   3.626   2.579  0.3900 -0.1091  0.2070
18599TIP3   OH277211   7.211   5.557   4.444 -0.6063  0.3310  0.2720
18599TIP3    H177212   7.237   5.528   4.356 -0.5168 -2.3533  1.1557
18599TIP3    H277213   7.235   5.650   4.446  1.9377 -0.2250 -1.5823
18600TIP3   OH277214   2.417   1.552   4.889  0.0480  0.1478 -0.1835
18600TIP3    H177215   2.383   1.630   4.932 -0.0281 -0.1860  0.3607
18600TIP3    H277216   2.503   1.539   4.929 -0.3400 -0.5997  0.4088
18601TIP3   OH277217   0.418   2.476   1.722 -0.5782 -0.4914  0.2221
18601TIP3    H177218   0.330   2.444   1.702 -0.9126 -1.1219  2.5088
18601TIP3    H277219   0.425   2.468   1.817  0.4802  3.3106  0.5630
18602TIP3   OH277220   1.468   3.483   4.697 -0.2441 -0.0705  0.0957
18602TIP3    H177221   1.504   3.394   4.704 -0.0255  0.1751  2.9586
18602TIP3    H277222   1.379   3.476   4.732 -0.2518  0.8156  0.2621
18603TIP3   OH277223   4.499   5.950   5.684 -0.2652  0.3433  0.1366
18603TIP3    H177224   4.528   5.990   5.602  0.4793  0.2086  0.3293
18603TIP3    H277225   4.434   5.885   5.657 -0.9880  1.2083 -0.2370
18604TIP3   OH277226   2.216   6.042   4.444 -0.0926 -0.4079 -0.0744
18604TIP3    H177227   2.266   5.969   4.482  0.7972  0.6342  0.7827
18604TIP3    H277228   2.281   6.111   4.431 -0.9733  0.3071 -0.6887
18605TIP3   OH277229   1.898   5.797   4.517 -0.1375  0.0617 -0.5923
18605TIP3    H177230   1.828   5.760   4.464  1.1390 -0.4355 -1.9405
18605TIP3    H277231   1.955   5.723   4.537  1.3926  0.9115 -1.6963
18606TIP3   OH277232   4.115   3.901   4.905  0.0668  0.5216  0.2807
18606TIP3    H177233   4.087   3.945   4.984  0.6462  1.5190 -0.0645
18606TIP3    H277234   4.052   3.928   4.838 -0.8385 -0.8729  0.5499
18607TIP3   OH277235   2.446   3.035   4.577  0.3685  0.2497 -0.2159
18607TIP3    H177236   2.474   2.944   4.590  0.8026  0.2598 -1.0461
18607TIP3    H277237   2.521   3.088   4.604  1.2175  0.2735 -2.5078
18608TIP3   OH277238   0.942   3.795   5.642 -0.0372  0.3825 -0.2183
18608TIP3    H177239   1.023   3.822   5.600 -1.0935  1.2229 -1.7762
18608TIP3    H277240   0.953   3.819   5.734  0.9885  1.6539 -0.6582
18609TIP3   OH277241   2.141   3.535   6.317  0.0724 -0.4397 -0.0824
18609TIP3    H177242   2.234   3.552   6.307  0.1977 -1.2056 -0.2902
18609TIP3    H277243   2.129   3.445   6.284 -1.3247  0.9320 -3.5807
18610TIP3   OH277244   6.336   4.241   5.796 -0.1531 -0.0356  0.0688
18610TIP3    H177245   6.245   4.239   5.766 -0.4568 -0.8826  1.0118
18610TIP3    H277246   6.355   4.334   5.809 -1.3926  0.0656  1.3447
18611TIP3   OH277247   7.285   3.311   3.009 -0.2991 -0.4535 -0.6293
18611TIP3    H177248   7.297   3.256   2.931 -2.9743  0.3369 -1.6428
18611TIP3    H277249   7.194   3.297   3.035 -0.0360  0.9038  1.1320
18612TIP3   OH277250   1.915   6.443   5.258  0.0387  0.4504 -0.0398
18612TIP3    H177251   1.885   6.391   5.183  2.3915  0.5315 -1.0859
18612TIP3    H277252   1.973   6.509   5.220 -0.3105  1.7736  1.6485
18613TIP3   OH277253   6.020   5.275   3.494 -0.1394 -0.1796  0.4544
18613TIP3    H177254   6.022   5.371   3.498 -1.7460 -0.0453 -1.0883
18613TIP3    H277255   5.981   5.248   3.577  0.7579  0.4704  1.1002
18614TIP3   OH277256   2.287   4.619   5.516 -0.0509  0.0267  0.3228
18614TIP3    H177257   2.289   4.534   5.560 -0.8950  0.3017  0.8982
18614TIP3    H277258   2.198   4.651   5.530 -0.6405 -0.3072 -2.4056
18615TIP3   OH277259   6.255   6.091   3.247  0.0881  0.3227  0.0688
18615TIP3    H177260   6.197   6.067   3.320 -0.7074 -1.2572 -1.0571
18615TIP3    H277261   6.219   6.045   3.172  1.4211  1.2511 -1.1563
18616TIP3   OH277262   7.213   5.827   4.628  0.6370 -0.3926  0.0898
18616TIP3    H177263   7.251   5.764   4.690  1.4183 -1.2155 -1.1814
18616TIP3    H277264   7.143   5.778   4.585  0.6255 -0.0884 -0.2396
18617TIP3   OH277265   5.344   6.458   4.758 -0.0824 -0.2410 -0.2931
18617TIP3    H177266   5.356   6.452   4.852  0.8892 -0.2477 -0.4071
18617TIP3    H277267   5.322   6.368   4.731  1.9423 -0.7361 -0.3628
18618TIP3   OH277268   1.838   5.715   5.255 -0.6050 -0.2962  0.5878
18618TIP3    H177269   1.843   5.660   5.177 -0.7215 -2.0632  1.7888
18618TIP3    H277270   1.783   5.665   5.316 -1.2074  1.4275  1.4924
18619TIP3   OH277271   2.652   3.176   4.688 -0.0489  0.0311  0.4306
18619TIP3    H177272   2.734   3.197   4.644  0.1538 -1.4608  0.0726
18619TIP3    H277273   2.669   3.194   4.781  0.5671  0.0580  0.3106
18620TIP3   OH277274   2.682   2.396   3.942  0.0711  0.3760 -0.1120
18620TIP3    H177275   2.677   2.346   3.860  1.9143  0.8850 -0.5605
18620TIP3    H277276   2.743   2.346   3.996  1.2504  1.6588 -0.2307
18621TIP3   OH277277   6.161   5.813   2.002  0.0963 -0.6937  0.4640
18621TIP3    H177278   6.180   5.898   2.043 -0.6687 -0.6432  0.7166
18621TIP3    H277279   6.240   5.761   2.018 -0.0977 -0.5944  1.8051
18622TIP3   OH277280   5.900   4.574   2.343  0.2856 -0.4276  0.6305
18622TIP3    H177281   5.879   4.489   2.382  0.0971 -0.7386 -0.1522
18622TIP3    H277282   5.821   4.626   2.354  0.6423 -0.0967  1.7765
18623TIP3   OH277283   0.601   3.243   2.468  0.1638 -0.0376 -0.5428
18623TIP3    H177284   0.688   3.281   2.485 -0.2949 -0.2627  2.4711
18623TIP3    H277285   0.602   3.159   2.513 -1.5461 -0.1780 -0.7389
18624TIP3   OH277286   5.064   4.004   4.550 -0.2225  0.0736  0.0438
18624TIP3    H177287   5.037   3.915   4.575 -0.2383  0.1163  0.1751
18624TIP3    H277288   5.144   4.020   4.599  0.2316 -0.1808 -0.5989
18625TIP3   OH277289   1.930   4.476   4.997 -0.1306  0.9080 -0.0883
18625TIP3    H177290   1.897   4.519   5.076 -0.0264  1.1791 -0.1915
18625TIP3    H277291   1.982   4.403   5.030  0.6719  1.5653  0.1210
18626TIP3   OH277292   3.434   5.245   0.836 -0.4027 -0.4280 -0.4126
18626TIP3    H177293   3.527   5.267   0.836 -0.6953  0.8200  0.0111
18626TIP3    H277294   3.427   5.174   0.772  1.0912 -1.6160  0.6726
18627TIP3   OH277295   1.893   0.571   2.488  0.6707  0.2237 -0.4106
18627TIP3    H177296   1.932   0.577   2.401 -0.3228  1.9051 -0.7726
18627TIP3    H277297   1.887   0.662   2.518 -1.1045 -0.1414  0.4435
18628TIP3   OH277298   1.736   3.198   4.886  0.0244  0.5593 -0.0943
18628TIP3    H177299   1.730   3.292   4.899  0.4197  0.5813 -0.0585
18628TIP3    H277300   1.789   3.187   4.807 -1.2114  0.3907 -0.9109
18629TIP3   OH277301   3.140   1.074   1.675 -0.0131 -0.1570  0.2427
18629TIP3    H177302   3.072   1.071   1.743 -0.0777  2.0288  0.2959
18629TIP3    H277303   3.093   1.096   1.595  0.4710  0.1883  0.0541
18630TIP3   OH277304   4.946   5.857   3.806  0.6307 -0.4356 -0.6388
18630TIP3    H177305   5.011   5.907   3.756  0.6145  1.1714  0.8940
18630TIP3    H277306   4.976   5.864   3.897 -1.4790  0.0442  0.0494
18631TIP3   OH277307   1.645   7.189   5.205 -0.0738 -0.3151 -0.3125
18631TIP3    H177308   1.571   7.132   5.185  0.2316 -0.7224 -0.2673
18631TIP3    H277309   1.689   7.202   5.121 -0.4575  0.2981 -0.4241
18632TIP3   OH277310   3.221   7.165   4.201 -0.0494 -0.2995  0.0735
18632TIP3    H177311   3.222   7.190   4.109 -0.2961  1.1165  0.4476
18632TIP3    H277312   3.296   7.106   4.211 -0.5180 -1.1379 -1.2023
18633TIP3   OH277313   3.289   3.494   6.136  0.1703  0.2518  0.8726
18633TIP3    H177314   3.266   3.486   6.044  0.9656 -1.2388  0.7923
18633TIP3    H277315   3.216   3.543   6.175  0.7890  2.7029 -0.9097
18634TIP3   OH277316   6.040   4.470   3.942  0.3074  0.4618 -0.3160
18634TIP3    H177317   6.098   4.511   4.006 -0.3762  0.8791  0.0389
18634TIP3    H277318   6.058   4.376   3.951  2.6816  0.7396 -1.9327
18635TIP3   OH277319   0.833   1.902   4.869 -0.0429  0.3164 -0.2100
18635TIP3    H177320   0.812   1.815   4.835  1.0456 -0.8460  2.0127
18635TIP3    H277321   0.755   1.928   4.918 -0.0961  0.2985 -0.2854
18636TIP3   OH277322   5.441   7.032   4.780  0.1007 -0.5187  0.2114
18636TIP3    H177323   5.445   7.127   4.763 -0.5564 -0.4040  0.6663
18636TIP3    H277324   5.530   7.001   4.764  0.4101  0.2412  0.4358
18637TIP3   OH277325   2.956   3.367   5.254 -0.2193 -0.5876 -0.2142
18637TIP3    H177326   2.968   3.345   5.347 -0.0011 -0.4907 -0.2196
18637TIP3    H277327   2.924   3.286   5.214 -1.6515 -0.2442  0.2043
18638TIP3   OH277328   6.648   1.471   3.308 -0.2170 -0.2786  0.3772
18638TIP3    H177329   6.722   1.489   3.367  0.1164  1.2805 -0.4810
18638TIP3    H277330   6.687   1.475   3.220 -0.9759 -1.2509 -0.0109
18639TIP3   OH277331   0.741   3.732   6.200  0.1277 -0.6100 -0.3279
18639TIP3    H177332   0.712   3.725   6.109  1.4940 -2.1775 -0.6708
18639TIP3    H277333   0.722   3.646   6.238 -0.4725  0.0526  0.8897
18640TIP3   OH277334   2.078   6.890   5.265  0.3122  0.1404  0.2163
18640TIP3    H177335   2.145   6.950   5.232  0.3239  0.3090  0.5442
18640TIP3    H277336   2.001   6.946   5.278  1.0237  0.5888  2.8400
18641TIP3   OH277337   6.453   5.050   5.485 -0.4201 -0.4845  0.0924
18641TIP3    H177338   6.432   4.966   5.526  0.0590 -0.0911  1.1557
18641TIP3    H277339   6.545   5.064   5.505 -0.6452  0.5740  0.4156
18642TIP3   OH277340   3.103   4.954   5.434  0.1063 -0.1631 -0.4282
18642TIP3    H177341   3.119   4.915   5.348 -1.2568  0.6872 -1.0849
18642TIP3    H277342   3.076   5.044   5.415 -0.4665 -0.0507  0.8694
18643TIP3   OH277343   0.040   6.457   5.408  0.5972 -0.4893 -0.0542
18643TIP3    H177344   0.083   6.540   5.387  2.2732 -0.6148  2.5744
18643TIP3    H277345  -0.053   6.478   5.412  0.7091  0.6022 -2.2571
18644TIP3   OH277346   3.027   4.150   4.311  0.2400  0.1614 -0.3351
18644TIP3    H177347   2.964   4.222   4.299  0.0086  0.2398  1.2213
18644TIP3    H277348   3.052   4.156   4.403  1.7767 -0.5027 -0.7114
18645TIP3   OH277349   0.881   4.653   5.489  0.3113  0.2293  0.5841
18645TIP3    H177350   0.976   4.659   5.475  0.2352 -0.2729 -0.1344
18645TIP3    H277351   0.862   4.559   5.487 -0.2692  0.3514  0.2754
18646TIP3   OH277352   4.379   3.649   4.390 -0.4083 -0.3743  0.3398
18646TIP3    H177353   4.390   3.701   4.470 -0.3900 -2.3175  1.6256
18646TIP3    H277354   4.467   3.616   4.371 -0.4747 -0.1860 -0.3145
18647TIP3   OH277355   3.555   2.411   4.653  0.3849  0.2633  0.2698
18647TIP3    H177356   3.476   2.373   4.616  0.7816  0.0298 -0.3550
18647TIP3    H277357   3.526   2.456   4.732 -0.1685 -0.9390  0.7696
18648TIP3   OH277358   4.863   5.592   3.836  0.5586 -0.6064  0.2773
18648TIP3    H177359   4.824   5.603   3.922  0.4387 -0.5886  0.2211
18648TIP3    H277360   4.891   5.680   3.810 -2.0555 -0.1081 -0.9668
18649TIP3   OH277361   3.699   0.512   2.061  0.2758  0.1094  0.4627
18649TIP3    H177362   3.743   0.593   2.087 -0.7563  0.9617 -0.3695
18649TIP3    H277363   3.724   0.499   1.970 -0.0056 -0.1918  0.4267
18650TIP3   OH277364   5.899   5.589   3.802 -0.1519  0.7079 -0.3846
18650TIP3    H177365   5.956   5.528   3.849 -1.5616  1.3480  2.2267
18650TIP3    H277366   5.816   5.542   3.794 -0.3424  1.1528 -1.0044
18651TIP3   OH277367   4.084   0.152   5.796 -0.0233  0.2655 -0.0114
18651TIP3    H177368   4.128   0.082   5.843  0.5850 -0.9460 -2.2906
18651TIP3    H277369   4.148   0.223   5.794  0.7093 -0.3947 -0.6737
18652TIP3   OH277370   2.480   5.750   5.848 -0.3781 -0.0934 -0.1648
18652TIP3    H177371   2.559   5.709   5.885 -0.9762 -0.3922  0.8181
18652TIP3    H277372   2.462   5.824   5.906 -1.2425 -0.4748  0.0626
18653TIP3   OH277373   3.076   3.591   4.957  0.1615  0.3086 -0.6751
18653TIP3    H177374   3.165   3.567   4.982 -0.3716  0.2245  1.2742
18653TIP3    H277375   3.032   3.607   5.041 -1.4205  1.1731 -1.6521
18654TIP3   OH277376   1.291   7.134   4.172 -0.6675  0.2709 -0.2250
18654TIP3    H177377   1.291   7.099   4.261 -2.1590  2.6918  0.7908
18654TIP3    H277378   1.369   7.190   4.168 -0.7554  0.3874 -0.3270
18655TIP3   OH277379   4.696   5.417   3.471  0.4875 -0.2949 -1.0745
18655TIP3    H177380   4.640   5.362   3.525  1.2082 -0.2041 -0.2242
18655TIP3    H277381   4.645   5.497   3.457  0.3831 -0.2282 -0.3373
18656TIP3   OH277382   4.299   6.758   2.796 -0.4023 -0.3164 -0.5460
18656TIP3    H177383   4.272   6.848   2.780 -0.2308 -0.0937  0.3966
18656TIP3    H277384   4.356   6.737   2.722 -0.5542  0.3020 -0.8425
18657TIP3   OH277385   1.823   3.960   5.575 -0.1192  0.1791 -0.3251
18657TIP3    H177386   1.899   3.951   5.517  0.0367  0.8031 -0.2225
18657TIP3    H277387   1.812   3.874   5.614  1.7368  0.5854  1.1567
18658TIP3   OH277388   6.544   3.182   1.145 -0.5557  0.2943 -0.3541
18658TIP3    H177389   6.470   3.135   1.108  1.1671 -0.6020 -2.7331
18658TIP3    H277390   6.621   3.137   1.111  1.1190  0.9368  2.4136
18659TIP3   OH277391   3.485   4.257   3.329  0.2369  0.2724  0.6278
18659TIP3    H177392   3.412   4.314   3.304  0.2647  0.1766  0.3304
18659TIP3    H277393   3.445   4.189   3.383  0.1094  0.2323  0.4841
18660TIP3   OH277394   3.024   3.960   4.032  0.3672 -0.0256 -0.2023
18660TIP3    H177395   3.084   4.029   4.060 -0.5136 -0.3131  2.5443
18660TIP3    H277396   2.947   4.006   4.000  1.2412  0.3037 -1.8889
18661TIP3   OH277397   6.203   4.805   4.755  0.0347 -0.0802 -0.0471
18661TIP3    H177398   6.145   4.881   4.758 -1.7629 -1.3646 -1.3732
18661TIP3    H277399   6.290   4.841   4.774 -0.3782  2.7146 -3.0625
18662TIP3   OH277400   4.579   1.684   4.154 -0.4135  0.3367  0.2393
18662TIP3    H177401   4.485   1.696   4.156 -0.1240  2.7218  0.1947
18662TIP3    H277402   4.607   1.695   4.245  0.0156  1.3248 -0.0054
18663TIP3   OH277403   0.808   3.755   3.880  0.4180  0.1969 -0.5307
18663TIP3    H177404   0.903   3.764   3.882  0.7469 -2.6404 -0.9607
18663TIP3    H277405   0.783   3.781   3.791  1.0579 -1.1552 -1.1155
18664TIP3   OH277406   1.050   3.646   1.034 -0.6063  0.4608 -0.1498
18664TIP3    H177407   0.982   3.709   1.012 -1.1698  0.1945  0.7790
18664TIP3    H277408   1.036   3.573   0.974  0.7520  1.6750 -1.9965
18665TIP3   OH277409   1.145   2.643   2.132  0.3147  0.0170 -0.2861
18665TIP3    H177410   1.177   2.560   2.169 -1.5488 -0.9017 -0.6649
18665TIP3    H277411   1.140   2.626   2.038  0.9589  0.9331 -0.4876
18666TIP3   OH277412   5.301   1.761   5.173 -0.3211  0.1199  0.3725
18666TIP3    H177413   5.335   1.830   5.229  1.2234 -0.0795 -0.3070
18666TIP3    H277414   5.226   1.801   5.128  1.5588  1.9077 -1.2674
18667TIP3   OH277415   4.835   4.972   5.324 -0.2432  0.2299 -0.0447
18667TIP3    H177416   4.760   4.973   5.383 -1.0965  0.7358 -1.1273
18667TIP3    H277417   4.818   4.898   5.266  1.5031 -1.4336  1.4746
18668TIP3   OH277418   1.945   3.722   6.274  0.0957 -0.8220 -0.8994
18668TIP3    H177419   2.002   3.648   6.294  0.5552 -0.6283 -1.4457
18668TIP3    H277420   2.005   3.789   6.239 -0.1770  0.1550  0.4692
18669TIP3   OH277421   2.591   3.727   4.586 -0.7507 -0.6412 -0.4833
18669TIP3    H177422   2.656   3.685   4.529 -0.5719  2.1698 -2.4638
18669TIP3    H277423   2.513   3.736   4.531 -2.1807 -2.1099  1.2315
18670TIP3   OH277424   6.833   6.479   5.303  0.1573  0.6269  0.1493
18670TIP3    H177425   6.772   6.421   5.348  0.2851  1.9092  2.0382
18670TIP3    H277426   6.806   6.475   5.211 -3.2613  1.7073  1.0327
18671TIP3   OH277427   2.075   2.788   4.027  0.3058 -0.3006  0.7296
18671TIP3    H177428   1.993   2.753   3.991 -0.9953  1.3688  2.0291
18671TIP3    H277429   2.105   2.720   4.087 -0.4577 -0.6557  0.7274
18672TIP3   OH277430   6.171   5.735   3.411  0.8165  0.2876  0.3776
18672TIP3    H177431   6.099   5.704   3.465  2.5954 -0.1342  2.5823
18672TIP3    H277432   6.232   5.661   3.407  1.4183  0.8296 -0.9764
18673TIP3   OH277433   6.177   1.472   3.027  0.1523  0.4813 -0.3826
18673TIP3    H177434   6.199   1.456   2.935  1.2582 -1.9012  0.2563
18673TIP3    H277435   6.084   1.493   3.026  0.2307  0.7814 -2.0821
18674TIP3   OH277436   5.449   5.173   5.354 -0.5621  0.4277  0.3829
18674TIP3    H177437   5.435   5.257   5.312  0.7589  0.4386 -0.0528
18674TIP3    H277438   5.516   5.130   5.301 -0.0205 -0.2097  1.5625
18675TIP3   OH277439   4.925   7.104   5.071  0.2062  0.6043  0.4253
18675TIP3    H177440   4.830   7.106   5.086  0.1461 -0.9024  0.3457
18675TIP3    H277441   4.961   7.163   5.137 -0.6360 -0.4846  1.8910
18676TIP3   OH277442   3.381   3.988   2.867  0.0411  0.2254 -0.3665
18676TIP3    H177443   3.350   3.949   2.784  0.1603 -0.8400  0.0766
18676TIP3    H277444   3.413   3.913   2.917  1.8180  1.1037 -0.1487
18677TIP3   OH277445   6.714   6.680   4.585  0.2804  0.3178 -0.4235
18677TIP3    H177446   6.755   6.694   4.670  1.5219  2.4814 -1.3634
18677TIP3    H277447   6.644   6.746   4.581 -1.6305 -1.6040  0.0527
18678TIP3   OH277448   6.047   3.352   4.984 -0.4225  0.0029  0.2318
18678TIP3    H177449   6.015   3.409   4.915  0.9350 -0.5583 -0.8765
18678TIP3    H277450   6.092   3.410   5.045  1.3665  0.0795 -1.1313
18679TIP3   OH277451   5.576   3.102   3.190  0.2281 -0.2260  0.4635
18679TIP3    H177452   5.611   3.014   3.173  0.2973  0.2986 -2.4614
18679TIP3    H277453   5.482   3.093   3.173  0.5659  0.7420 -2.1306
18680TIP3   OH277454   6.483   4.154   1.677 -0.3300  0.0903 -0.6652
18680TIP3    H177455   6.474   4.065   1.711  0.5636  0.8353  1.6457
18680TIP3    H277456   6.552   4.148   1.611 -0.8750 -1.0785 -1.1368
18681TIP3   OH277457   4.388   5.142   3.789 -0.0358  0.2555  0.4664
18681TIP3    H177458   4.302   5.120   3.753 -0.0279  0.8293  0.0785
18681TIP3    H277459   4.425   5.058   3.816 -0.0913 -0.1918 -0.7814
18682TIP3   OH277460   6.648   2.262   5.553 -0.3575  0.0239  0.6355
18682TIP3    H177461   6.626   2.329   5.617  2.1253  0.9043  0.6233
18682TIP3    H277462   6.740   2.278   5.531 -0.0834 -2.5600 -0.3649
18683TIP3   OH277463   5.668   4.233  15.931 -0.1208  0.3237 -0.1151
18683TIP3    H177464   5.618   4.310  15.958  1.4738  0.8089  1.5830
18683TIP3    H277465   5.732   4.266  15.868  0.4079  0.3504  0.4320
18684TIP3   OH277466   1.895   2.400   2.315 -0.1396 -0.0533  0.4763
18684TIP3    H177467   1.919   2.355   2.397 -0.8867 -0.4326  0.4928
18684TIP3    H277468   1.801   2.382   2.305  0.3244 -1.5380 -1.4157
18685TIP3   OH277469   4.826   4.129   4.534 -0.0082  1.2609 -0.1598
18685TIP3    H177470   4.769   4.062   4.498  0.5599  1.1203 -0.8115
18685TIP3    H277471   4.907   4.084   4.555  0.7901  1.9557 -1.6911
18686TIP3   OH277472   5.671   6.117   2.914 -0.9043  0.1933  0.0975
18686TIP3    H177473   5.657   6.038   2.863  3.2914  0.9771 -2.5234
18686TIP3    H277474   5.640   6.188   2.858  2.0555  0.9089 -0.7509
18687TIP3   OH277475   6.920   6.773   2.250 -0.5001 -0.1873 -0.7257
18687TIP3    H177476   6.895   6.712   2.181  0.7463 -1.3418 -0.1804
18687TIP3    H277477   6.879   6.737   2.329  0.2658 -0.3482 -0.3953
18688TIP3   OH277478   6.520   3.761   5.012  0.7174  0.1948 -0.2528
18688TIP3    H177479   6.556   3.824   4.949 -0.8975  1.1231 -0.2739
18688TIP3    H277480   6.467   3.702   4.960  0.7999 -0.1207  0.0150
18689TIP3   OH277481   5.915   4.653   5.972  0.2360 -0.8707 -0.2235
18689TIP3    H177482   5.981   4.703   5.926 -1.0753 -0.4550 -1.6963
18689TIP3    H277483   5.915   4.689   6.061  0.6554  0.4260 -0.7381
18690TIP3   OH277484   1.405   5.913   2.357 -0.4967 -0.1421  0.2026
18690TIP3    H177485   1.426   5.862   2.435 -0.7929  0.0749  0.4228
18690TIP3    H277486   1.458   5.993   2.365 -1.9672  0.7530  1.1389
18691TIP3   OH277487   5.549   5.628   4.481  0.3125 -1.0004 -0.1678
18691TIP3    H177488   5.544   5.553   4.539  1.5285 -0.6416  0.4047
18691TIP3    H277489   5.595   5.695   4.531 -2.1449  0.6950 -0.0718
18692TIP3   OH277490   4.078   3.357   4.046 -0.3303  0.2322 -0.0958
18692TIP3    H177491   4.084   3.262   4.049  2.0447  0.4165  2.7389
18692TIP3    H277492   4.002   3.378   4.099 -0.3536 -0.0333 -0.0233
18693TIP3   OH277493   3.117   4.186   1.887 -0.1288 -0.6654  0.0870
18693TIP3    H177494   3.192   4.141   1.849 -1.0325 -0.7623 -1.6331
18693TIP3    H277495   3.055   4.116   1.908 -1.3729 -0.3065 -2.2212
18694TIP3   OH277496   4.127   5.174   5.994  0.1558 -0.0981 -0.1344
18694TIP3    H177497   4.137   5.250   5.937  0.1779  0.4345  0.5713
18694TIP3    H277498   4.214   5.134   5.995  0.5000  0.6505  0.5756
18695TIP3   OH277499   3.743   6.085   5.175 -0.5781  0.4424 -0.0655
18695TIP3    H177500   3.773   6.086   5.084 -0.8064  3.1597 -0.1771
18695TIP3    H277501   3.785   6.162   5.214 -1.3108 -0.1042  1.8506
18696TIP3   OH277502   4.644   4.716   6.110  0.3956  0.8762 -0.1139
18696TIP3    H177503   4.614   4.803   6.138  1.5905  0.3893  2.9858
18696TIP3    H277504   4.573   4.657   6.135  1.6678  0.3744  2.6199
18697TIP3   OH277505   6.579   0.105   5.274  0.4285  0.1180  0.0926
18697TIP3    H177506   6.525   0.048   5.328  0.0320  2.6837  2.5118
18697TIP3    H277507   6.665   0.063   5.274  0.3836 -0.0638  2.5600
18698TIP3   OH277508   3.291   0.031   3.056 -0.5349 -0.1230 -0.0858
18698TIP3    H177509   3.287   0.051   2.962  0.3017 -0.0020 -0.0975
18698TIP3    H277510   3.253  -0.056   3.063 -0.0321 -0.3897 -0.6206
18699TIP3   OH277511   0.176   2.707   1.821 -0.5387 -0.0713  0.0098
18699TIP3    H177512   0.259   2.704   1.868 -0.8037 -1.0095  0.4285
18699TIP3    H277513   0.177   2.628   1.766 -0.9123  0.2041 -0.3940
18700TIP3   OH277514   3.856   5.644   2.841  0.3941  0.0710  0.2862
18700TIP3    H177515   3.892   5.725   2.877 -0.5375  0.2888  0.7391
18700TIP3    H277516   3.861   5.656   2.746  1.4010  0.1488  0.3466
18701TIP3   OH277517   5.066   7.105   4.829 -0.6042 -0.3814  0.1679
18701TIP3    H177518   5.055   7.086   4.923 -1.3213 -1.5054 -0.1255
18701TIP3    H277519   5.001   7.174   4.811  0.8483  1.2096  0.8882
18702TIP3   OH277520   6.859   6.194   1.235  0.0652  0.2978  0.4224
18702TIP3    H177521   6.779   6.210   1.185  0.0394 -1.6894 -0.2016
18702TIP3    H277522   6.839   6.117   1.288  0.8898  1.0003  1.7775
18703TIP3   OH277523   7.302   4.766   5.350 -0.1924  0.2150  0.2115
18703TIP3    H177524   7.310   4.687   5.403  1.9736 -0.7071 -1.4351
18703TIP3    H277525   7.271   4.734   5.265  0.6801  1.1509 -0.4586
18704TIP3   OH277526   1.507   0.581   5.302 -0.1224 -0.0927  0.2676
18704TIP3    H177527   1.517   0.486   5.312  2.3398  0.1850  0.6661
18704TIP3    H277528   1.457   0.590   5.220 -2.9133 -1.7599  1.6845
18705TIP3   OH277529   4.167   5.061   4.193 -0.0245  0.6146  0.2524
18705TIP3    H177530   4.207   5.073   4.278 -0.4487 -1.3462  0.7545
18705TIP3    H277531   4.156   4.966   4.184 -1.2982  0.8786 -1.3626
18706TIP3   OH277532   3.714   4.496   3.628  0.4999 -0.0668  0.1371
18706TIP3    H177533   3.690   4.575   3.677  0.1148 -0.2367  0.2184
18706TIP3    H277534   3.666   4.425   3.670 -0.2221 -0.1344 -0.7953
18707TIP3   OH277535   5.603   5.109   1.817  0.2223 -0.3676 -0.0673
18707TIP3    H177536   5.594   5.148   1.903 -0.5295 -0.4103 -0.1228
18707TIP3    H277537   5.652   5.173   1.766 -0.9331  0.4784 -0.1382
18708TIP3   OH277538   4.409   4.333   1.803  0.1263  0.1055  0.0085
18708TIP3    H177539   4.405   4.297   1.892 -0.5836 -0.9315 -0.4249
18708TIP3    H277540   4.337   4.289   1.757 -1.2079  2.5940 -0.3789
18709TIP3   OH277541   4.881   5.324   4.786 -0.2782  0.1420 -0.0630
18709TIP3    H177542   4.866   5.262   4.857  0.9987  0.8205  0.8190
18709TIP3    H277543   4.916   5.272   4.714  0.3179 -0.2408  0.5022
18710TIP3   OH277544   5.263   4.283   4.278  0.3315 -0.2582  0.9329
18710TIP3    H177545   5.333   4.292   4.343  0.6549  0.1296  0.5334
18710TIP3    H277546   5.247   4.188   4.273  1.1357 -0.3882  0.7027
18711TIP3   OH277547   0.525   3.651   1.456 -0.0873  0.2793 -0.0422
18711TIP3    H177548   0.531   3.725   1.516 -0.5750  0.3852 -0.1273
18711TIP3    H277549   0.550   3.686   1.371  2.3730 -0.2628  0.4039
18712TIP3   OH277550   4.319   5.011   3.022 -0.1357 -0.7769 -0.0281
18712TIP3    H177551   4.330   5.032   3.115  0.0407 -0.4138 -0.1328
18712TIP3    H277552   4.388   5.060   2.977 -1.5060  0.7396 -0.5688
18713TIP3   OH277553   4.189   5.110   5.580 -0.0554  0.1020 -0.1692
18713TIP3    H177554   4.114   5.055   5.560  0.4884 -0.0323 -1.9578
18713TIP3    H277555   4.218   5.081   5.666 -2.0029  0.1221  0.5149
18714TIP3   OH277556   5.034   5.509   4.969  0.3241 -0.0798  0.4014
18714TIP3    H177557   5.047   5.465   4.885 -0.4413  0.1192  0.1696
18714TIP3    H277558   5.092   5.585   4.965  1.7199 -1.1077  0.8482
18715TIP3   OH277559   5.540   4.935   6.451  0.0941 -0.3547 -0.0355
18715TIP3    H177560   5.630   4.966   6.454 -0.4100  1.3560 -1.4827
18715TIP3    H277561   5.488   5.013   6.432 -1.6676 -1.3570  0.5413
18716TIP3   OH277562   5.267   6.007   5.044  0.0804  0.4975 -0.8980
18716TIP3    H177563   5.290   5.918   5.072  0.7054  0.6958 -0.7790
18716TIP3    H277564   5.293   6.062   5.118  0.8326  0.9170 -1.4762
18717TIP3   OH277565   3.833   6.482   5.773 -0.2387  0.5430  0.6076
18717TIP3    H177566   3.751   6.530   5.765 -0.6058 -0.2107 -0.3088
18717TIP3    H277567   3.899   6.548   5.792 -0.8597  1.3086  0.1056
18718TIP3   OH277568   2.145   0.590   5.375  0.3966 -0.2490  0.1501
18718TIP3    H177569   2.157   0.495   5.371  0.3494 -0.2387 -0.3122
18718TIP3    H277570   2.052   0.603   5.356  0.7032 -0.0242 -1.3177
18719TIP3   OH277571   2.023   6.393   4.274  0.2621  0.0028  0.1357
18719TIP3    H177572   1.947   6.410   4.218 -0.8491 -0.8628  1.3648
18719TIP3    H277573   2.047   6.302   4.253  0.6039  0.0865  0.1720
18720TIP3   OH277574   5.021   4.739   5.177  0.2013  0.5508  0.0886
18720TIP3    H177575   4.940   4.737   5.126 -0.2160 -2.0078  0.7573
18720TIP3    H277576   4.992   4.727   5.268  1.2422  0.8938  0.4699
18721TIP3   OH277577   4.702   3.388   5.444 -0.4302 -0.0803  0.6721
18721TIP3    H177578   4.710   3.482   5.457 -1.2585 -0.2631  2.7293
18721TIP3    H277579   4.609   3.375   5.424  0.0514 -0.2629 -1.5057
18722TIP3   OH277580   7.061   6.153   5.562  0.1757 -0.9356 -0.2011
18722TIP3    H177581   6.979   6.107   5.577 -0.5137  0.0870 -0.8118
18722TIP3    H277582   7.071   6.211   5.638  0.4797 -1.2566  0.0086
18723TIP3   OH277583   1.484   3.973   4.923 -0.1865 -0.0644  0.1465
18723TIP3    H177584   1.488   3.899   4.862  1.6241 -0.7609  1.0539
18723TIP3    H277585   1.572   3.975   4.962 -0.9161  1.2116  1.7340
18724TIP3   OH277586   4.527   0.616   4.106  0.3385 -0.5126  0.0195
18724TIP3    H177587   4.532   0.641   4.198  1.4843  1.4109 -0.5120
18724TIP3    H277588   4.454   0.555   4.101  1.0462 -1.6389  2.4016
18725TIP3   OH277589   3.345   6.580   4.622  0.2262  0.2878 -0.6770
18725TIP3    H177590   3.353   6.489   4.650 -0.7918  0.0267 -1.2287
18725TIP3    H277591   3.436   6.610   4.613  0.5766  0.2412  2.3397
18726TIP3   OH277592   5.494   1.132   2.637  0.0637  0.0576  0.0989
18726TIP3    H177593   5.423   1.165   2.693 -0.0111  0.1454 -0.0469
18726TIP3    H277594   5.475   1.169   2.551  0.9781  1.1009  0.3309
18727TIP3   OH277595   5.508   3.222   3.660 -0.0303 -0.3935 -0.0377
18727TIP3    H177596   5.507   3.163   3.735 -0.7293 -0.8495 -0.4015
18727TIP3    H277597   5.422   3.212   3.621  0.8233 -1.2464 -1.7515
18728TIP3   OH277598   3.239   6.790   4.234  0.3961  0.0981 -0.2438
18728TIP3    H177599   3.219   6.742   4.315  1.4155  1.0157  0.5708
18728TIP3    H277600   3.310   6.849   4.259  2.7461 -1.6810 -2.5672
18729TIP3   OH277601   5.504   4.476   4.994 -0.1251 -0.0392 -0.2806
18729TIP3    H177602   5.437   4.442   5.053 -1.2499  1.8579 -0.4353
18729TIP3    H277603   5.526   4.402   4.938 -2.3118 -0.5991 -0.4233
18730TIP3   OH277604   6.199   3.493   5.731 -0.3262 -0.1272  0.0329
18730TIP3    H177605   6.264   3.538   5.677  1.1248 -0.7480  1.2193
18730TIP3    H277606   6.123   3.550   5.730  0.7921  1.3925 -0.1199
18731TIP3   OH277607   3.698   6.250   3.087  0.2236  0.0360 -0.3348
18731TIP3    H177608   3.769   6.313   3.101  1.2407 -1.2557  0.4228
18731TIP3    H277609   3.638   6.264   3.160  1.0891 -0.7142  0.5392
18732TIP3   OH277610   5.852   5.156   3.283  0.4989 -0.1149  0.0469
18732TIP3    H177611   5.830   5.069   3.316  1.5387 -0.9228 -1.3174
18732TIP3    H277612   5.921   5.188   3.341 -0.6072  0.2662  1.1880
18733TIP3   OH277613   6.004   2.177   4.963  0.6567  0.2115 -0.8872
18733TIP3    H177614   6.087   2.174   5.011 -1.3058 -1.3532  2.6562
18733TIP3    H277615   5.973   2.267   4.974 -0.7985 -0.6309  2.9013
18734TIP3   OH277616   2.582   0.758   6.040  0.2697  0.1640 -0.5122
18734TIP3    H177617   2.652   0.818   6.065 -0.6088 -0.1170  2.8776
18734TIP3    H277618   2.503   0.795   6.080 -0.9584 -1.2441 -1.5647
18735TIP3   OH277619   2.417   2.448   4.009 -0.0550  0.1515 -0.1538
18735TIP3    H177620   2.437   2.438   4.102 -0.2534 -0.5957 -0.1911
18735TIP3    H277621   2.501   2.430   3.965  0.2924  1.5059 -0.0746
18736TIP3   OH277622   4.932   4.251   3.108  0.0875 -0.3274 -0.2059
18736TIP3    H177623   4.880   4.240   3.187  1.3063  1.4843  0.8955
18736TIP3    H277624   5.019   4.219   3.132  1.3170  3.1700  0.2568
18737TIP3   OH277625   1.013   5.220   4.505 -0.4209 -0.4365  0.3090
18737TIP3    H177626   0.981   5.131   4.525 -0.6530 -0.3675  0.2565
18737TIP3    H277627   1.108   5.213   4.509 -0.3514 -1.2125 -1.8168
18738TIP3   OH277628   6.665   5.058   5.693 -0.1115 -0.2272 -0.7947
18738TIP3    H177629   6.685   5.150   5.711 -0.0458 -0.3929 -0.0156
18738TIP3    H277630   6.630   5.025   5.775 -1.0065 -0.6588 -1.3494
18739TIP3   OH277631   4.471   7.065   4.143  0.2214  0.3287 -0.3725
18739TIP3    H177632   4.479   6.981   4.097 -2.5511  1.3216 -2.8175
18739TIP3    H277633   4.481   7.042   4.236 -0.8431 -2.7995 -0.9580
18740TIP3   OH277634   3.842   1.139   3.458  0.2870 -0.1624  0.1808
18740TIP3    H177635   3.765   1.086   3.477 -1.9390  2.7597 -0.4212
18740TIP3    H277636   3.831   1.166   3.367  1.7398  0.7084  0.2494
18741TIP3   OH277637   7.163   4.477   5.537 -0.1209  0.3268 -0.0020
18741TIP3    H177638   7.224   4.496   5.608 -0.6331  2.4400 -0.1131
18741TIP3    H277639   7.217   4.469   5.459  0.5271 -2.6884  0.6829
18742TIP3   OH277640   6.428   4.339   2.894  0.2363 -0.2307 -0.2938
18742TIP3    H177641   6.397   4.422   2.930 -2.4800 -1.2867 -0.0116
18742TIP3    H277642   6.488   4.305   2.960  1.1352  1.3634 -0.2741
18743TIP3   OH277643   1.688   5.310   4.913 -0.2973 -0.8231  0.9368
18743TIP3    H177644   1.687   5.289   4.820  1.2414  0.6209  0.5645
18743TIP3    H277645   1.743   5.243   4.953  3.1479  1.3402  0.0256
18744TIP3   OH277646   2.588   6.542   4.183  0.1062  0.3846  0.2472
18744TIP3    H177647   2.509   6.488   4.186  0.9957 -0.9877 -0.4148
18744TIP3    H277648   2.642   6.501   4.116  0.3701  2.7222 -1.0486
18745TIP3   OH277649   5.260   3.578   3.539 -0.2450  0.1372  0.4038
18745TIP3    H177650   5.178   3.607   3.499 -1.6658 -1.2919  2.1358
18745TIP3    H277651   5.291   3.508   3.481 -1.1246 -0.4393  0.6235
18746TIP3   OH277652   1.421   0.513   4.435  0.0672  0.3578 -0.3074
18746TIP3    H177653   1.462   0.521   4.521 -0.1094  0.0373 -0.1927
18746TIP3    H277654   1.393   0.601   4.413  2.0778  0.8649 -1.0092
18747TIP3   OH277655   0.447   3.654   2.368 -0.0770 -0.3916 -0.5882
18747TIP3    H177656   0.370   3.623   2.322  1.0626 -1.7914 -1.5921
18747TIP3    H277657   0.509   3.581   2.364  1.5097  0.8985 -0.2862
18748TIP3   OH277658   5.513   5.344   5.917 -0.4555 -0.1819  0.3691
18748TIP3    H177659   5.591   5.300   5.950  0.3987 -0.6671 -2.2058
18748TIP3    H277660   5.498   5.306   5.830 -3.2709  0.2484  0.6029
18749TIP3   OH277661   2.841   5.932   4.703  0.2858 -0.3676 -0.2526
18749TIP3    H177662   2.838   6.019   4.664 -1.0287 -0.5815 -0.6268
18749TIP3    H277663   2.873   5.875   4.632  3.0950  0.1154  0.5699
18750TIP3   OH277664   3.745   5.569   5.137  0.0726  0.1959  0.0515
18750TIP3    H177665   3.674   5.506   5.153 -1.2108  0.8724 -2.6248
18750TIP3    H277666   3.710   5.653   5.167  1.1354 -0.0369  2.0292
18751TIP3   OH277667   3.290   0.856   3.553 -0.6385  0.7467  0.1090
18751TIP3    H177668   3.315   0.770   3.519 -3.4008  0.1213 -0.4039
18751TIP3    H277669   3.266   0.841   3.644  1.4366  1.4726  0.8043
18752TIP3   OH277670   0.631   4.339   2.651 -0.0868  0.2397  0.1845
18752TIP3    H177671   0.552   4.363   2.699  0.5619  0.2253  1.2796
18752TIP3    H277672   0.669   4.267   2.703  1.0359  0.7535  0.0793
18753TIP3   OH277673   5.147   5.531   5.704  0.9411  0.9033 -0.0199
18753TIP3    H177674   5.083   5.501   5.638  1.9969  1.2622 -1.2281
18753TIP3    H277675   5.094   5.580   5.767  0.0646  1.4828 -1.1831
18754TIP3   OH277676   4.557   2.165   3.718  0.2983  0.3019  0.2727
18754TIP3    H177677   4.629   2.157   3.656  0.4239 -0.1189  0.4646
18754TIP3    H277678   4.479   2.145   3.667  0.1526  2.2597 -0.2931
18755TIP3   OH277679   2.233   4.757   5.268  0.2400 -0.1028 -0.4123
18755TIP3    H177680   2.242   4.691   5.337  0.6740 -1.1046 -1.3940
18755TIP3    H277681   2.321   4.791   5.256  0.0039  0.7074  0.1318
18756TIP3   OH277682   5.032   6.200   4.330  0.0256 -0.2044 -0.0621
18756TIP3    H177683   5.103   6.263   4.322 -0.4418  0.5124  1.2714
18756TIP3    H277684   5.047   6.157   4.415 -0.8860 -0.3468  0.0308
18757TIP3   OH277685   4.966   3.906   5.925 -0.4867  0.2621 -0.0530
18757TIP3    H177686   5.013   3.989   5.922 -0.9160  0.5020 -0.1370
18757TIP3    H277687   5.002   3.861   6.002 -1.1413  1.0611  0.7219
18758TIP3   OH277688   3.163   2.841   4.545 -0.2410  0.8555 -0.2574
18758TIP3    H177689   3.122   2.876   4.466 -0.8076 -0.4455 -0.5521
18758TIP3    H277690   3.245   2.891   4.553 -0.0816  0.8697 -1.7718
18759TIP3   OH277691   4.871   3.608   4.623  0.2838  0.1380 -0.3749
18759TIP3    H177692   4.828   3.559   4.693  0.0217  1.9446  0.7571
18759TIP3    H277693   4.909   3.684   4.666  2.5330 -0.1465 -1.7741
18760TIP3   OH277694   4.146   1.486   4.034  1.0588  0.2536  0.0016
18760TIP3    H177695   4.233   1.507   4.000  1.0215  0.7572  0.2171
18760TIP3    H277696   4.149   1.512   4.126  0.4262  1.0058 -0.1882
18761TIP3   OH277697   5.041   3.680   5.422  0.4806 -0.4911  0.3889
18761TIP3    H177698   4.952   3.671   5.455 -0.1121 -1.1631 -1.3390
18761TIP3    H277699   5.062   3.773   5.433 -0.7022 -0.1890  0.1431
18762TIP3   OH277700   6.507   6.931   5.251  0.6428  0.2046 -0.0452
18762TIP3    H177701   6.596   6.965   5.247  0.9972 -0.6536  0.4064
18762TIP3    H277702   6.489   6.899   5.163  1.2963 -0.9108  0.2261
18763TIP3   OH277703   0.524   5.425   5.039 -0.4151  0.1429 -0.0027
18763TIP3    H177704   0.544   5.495   5.102 -1.5640  0.3205  0.1813
18763TIP3    H277705   0.593   5.361   5.051 -0.7842  0.0462  1.6467
18764TIP3   OH277706   1.099   4.701   3.610  0.5297  0.0290  0.5593
18764TIP3    H177707   1.040   4.774   3.630 -0.2832 -0.6489  0.6671
18764TIP3    H277708   1.063   4.628   3.659  0.5277 -0.7937 -0.6458
18765TIP3   OH277709   2.273   5.772   3.805 -0.3365  0.1206 -0.3550
18765TIP3    H177710   2.252   5.773   3.711  0.9507  2.1116 -0.6659
18765TIP3    H277711   2.362   5.738   3.809 -0.4679 -0.1615  0.1729
18766TIP3   OH277712   5.156   3.245   5.071 -0.1135 -0.3481  0.3887
18766TIP3    H177713   5.156   3.173   5.008 -0.7133 -0.7702  0.8648
18766TIP3    H277714   5.119   3.319   5.023 -0.2025 -0.5593  0.1326
18767TIP3   OH277715   4.764   6.103   3.425  0.1615  0.4884 -0.2793
18767TIP3    H177716   4.783   6.037   3.491 -1.3629  0.7745  0.4515
18767TIP3    H277717   4.797   6.185   3.462 -1.4757  0.7944  0.4985
18768TIP3   OH277718   5.744   6.103   1.441 -0.0175 -0.5028  0.1634
18768TIP3    H177719   5.831   6.092   1.402 -0.1147 -0.6644 -0.0087
18768TIP3    H277720   5.686   6.114   1.366 -0.2775 -1.3108  0.2416
18769TIP3   OH277721   4.262   5.337   2.864  0.3264  0.3029 -0.1338
18769TIP3    H177722   4.324   5.334   2.937 -0.5873  0.9799  0.6709
18769TIP3    H277723   4.237   5.429   2.858 -0.1912  0.1191 -0.8186
18770TIP3   OH277724   1.535   6.804   5.860  0.6260 -0.1219  0.1336
18770TIP3    H177725   1.513   6.891   5.893 -1.3315  0.2746 -2.1585
18770TIP3    H277726   1.509   6.745   5.931 -1.2508  0.8983  0.3255
18771TIP3   OH277727   4.980   6.134   4.614  0.2512 -0.2362  0.2634
18771TIP3    H177728   4.893   6.173   4.619  0.2707 -0.1888  0.2168
18771TIP3    H277729   4.982   6.071   4.686 -1.0730 -2.7312 -1.8017
18772TIP3   OH277730   1.030   4.757   0.812 -0.0484 -0.0926 -0.1995
18772TIP3    H177731   0.966   4.750   0.883  1.0399  2.8179  1.1644
18772TIP3    H277732   0.985   4.808   0.744 -0.3702 -1.0564 -0.7083
18773TIP3   OH277733   0.169   4.228   5.827  0.1610  0.6872 -0.3607
18773TIP3    H177734   0.256   4.247   5.793  1.1288 -0.1951  1.5838
18773TIP3    H277735   0.179   4.229   5.922 -2.3849  2.5597 -0.0586
18774TIP3   OH277736   2.348   5.638   0.138  0.2596  0.4926 -0.1020
18774TIP3    H177737   2.293   5.585   0.194  0.6319  1.6649  1.4030
18774TIP3    H277738   2.337   5.601   0.050 -1.1187 -0.7047  0.5738
18775TIP3   OH277739   3.717   6.489   1.914 -0.0503 -0.5497 -0.2657
18775TIP3    H177740   3.790   6.479   1.974 -1.6154 -2.2298  1.4156
18775TIP3    H277741   3.641   6.460   1.964 -1.6991  0.0305 -2.3719
18776TIP3   OH277742   4.963   4.072   2.451  0.3404 -0.2007  0.2026
18776TIP3    H177743   5.056   4.093   2.465  0.3149 -0.3910  0.6651
18776TIP3    H277744   4.945   4.000   2.511  0.8005 -2.5921 -2.4553
18777TIP3   OH277745   1.430   4.390   2.276  0.3176 -0.0132  0.3513
18777TIP3    H177746   1.404   4.406   2.367  1.5659 -0.9285  0.8844
18777TIP3    H277747   1.491   4.317   2.281  0.8623  0.3188 -1.1692
18778TIP3   OH277748   6.284   6.404   5.783 -0.1176  0.5311 -0.3609
18778TIP3    H177749   6.302   6.362   5.868 -0.3744 -1.8585 -1.4320
18778TIP3    H277750   6.311   6.495   5.795  0.2229  0.1402  2.1632
18779TIP3   OH277751   5.851   4.593   3.779 -0.0182 -0.4151  0.2801
18779TIP3    H177752   5.900   4.675   3.772  1.5072 -1.2404  0.9347
18779TIP3    H277753   5.898   4.544   3.846  0.4245 -2.7272 -1.6645
18780TIP3   OH277754   0.120   1.518   5.075 -0.4488 -0.0090 -0.8078
18780TIP3    H177755   0.139   1.462   4.999  1.4215 -1.0439  0.3942
18780TIP3    H277756   0.062   1.465   5.129  0.9189 -0.6017  0.0891
18781TIP3   OH277757   3.367   4.831   0.608  0.0760 -0.0006  0.3166
18781TIP3    H177758   3.288   4.785   0.577  0.2377 -0.2603  0.2915
18781TIP3    H277759   3.369   4.815   0.702  1.0424 -1.4433  0.0645
18782TIP3   OH277760   6.106   4.885   5.838 -0.2833  0.5171 -0.3614
18782TIP3    H177761   6.030   4.910   5.890  0.5743  0.1412  1.1221
18782TIP3    H277762   6.172   4.950   5.860  0.1684  0.2031 -0.7748
18783TIP3   OH277763   5.966   5.503   4.730  1.0409 -0.8693 -0.4416
18783TIP3    H177764   5.907   5.430   4.748  0.3225 -0.0932  0.4429
18783TIP3    H277765   6.005   5.524   4.815 -1.0351  1.7029 -0.0650
18784TIP3   OH277766   0.764   0.843   3.187  0.1288  0.3996 -0.0750
18784TIP3    H177767   0.818   0.836   3.266  0.8063  1.8890 -0.3674
18784TIP3    H277768   0.722   0.929   3.195  0.9132  0.9671 -1.7465
18785TIP3   OH277769   4.470   4.545   6.207 -0.1478 -0.3081  0.2361
18785TIP3    H177770   4.419   4.590   6.275  1.1503 -1.2345  1.8547
18785TIP3    H277771   4.421   4.464   6.190 -0.7150  0.1362 -0.2843
18786TIP3   OH277772   0.678   2.791   4.510  0.6348  0.4098  0.1934
18786TIP3    H177773   0.722   2.764   4.429  1.2495 -1.4618  1.1191
18786TIP3    H277774   0.750   2.810   4.571  0.1649  0.1648  0.8237
18787TIP3   OH277775   3.046   5.156   3.384  0.1736  0.5665  0.1819
18787TIP3    H177776   3.079   5.090   3.445 -1.6594  0.7449  1.3847
18787TIP3    H277777   3.066   5.119   3.297  1.3921 -0.4031  0.8441
18788TIP3   OH277778   6.124   4.656   4.414 -0.9843  0.0002  0.4270
18788TIP3    H177779   6.122   4.582   4.475 -0.6053  0.2507  0.7411
18788TIP3    H277780   6.036   4.693   4.418 -1.6431 -1.3873 -0.9002
18789TIP3   OH277781   2.494   3.890   5.654 -0.0898 -0.1289 -0.4684
18789TIP3    H177782   2.556   3.920   5.720  1.5818 -0.0996 -2.0170
18789TIP3    H277783   2.472   3.968   5.604  2.0312 -0.8476 -2.6639
18790TIP3   OH277784   6.106   3.250   5.673 -0.5057  0.4884 -0.2784
18790TIP3    H177785   6.177   3.204   5.717 -0.5342 -0.2914 -1.0316
18790TIP3    H277786   6.114   3.341   5.702  0.3531  0.2612  0.1970
18791TIP3   OH277787   3.531   6.035   4.238 -0.2791 -0.2399 -0.0203
18791TIP3    H177788   3.617   6.077   4.233 -0.2863 -0.1729  0.4075
18791TIP3    H277789   3.469   6.106   4.221 -0.2929 -0.0630  0.7507
18792TIP3   OH277790   4.672   1.469   2.922  0.7250  0.1562 -0.5725
18792TIP3    H177791   4.635   1.444   3.007  0.4242  1.1425 -0.4077
18792TIP3    H277792   4.621   1.546   2.895  0.0140 -0.8639 -2.2206
18793TIP3   OH277793   1.810   4.082   1.646  0.0940 -0.5205 -0.0692
18793TIP3    H177794   1.860   4.163   1.654  1.5702 -1.3392 -0.6807
18793TIP3    H277795   1.876   4.013   1.659 -0.7927 -1.6342 -1.4242
18794TIP3   OH277796   3.184   4.569   4.460 -0.3486 -0.4504  0.8188
18794TIP3    H177797   3.104   4.549   4.510 -1.7450 -0.4424 -1.3273
18794TIP3    H277798   3.183   4.664   4.450 -0.7969 -0.5563 -0.3101
18795TIP3   OH277799   3.778   2.583   1.794 -0.2898 -0.3611  0.5935
18795TIP3    H177800   3.809   2.667   1.828  0.4958 -0.3533 -0.1325
18795TIP3    H277801   3.753   2.603   1.703  0.2213 -0.9951  0.3173
18796TIP3   OH277802   4.129   4.993   3.724  0.1803  0.1763 -0.1184
18796TIP3    H177803   4.078   5.071   3.744 -1.4005 -1.0873  0.9387
18796TIP3    H277804   4.078   4.921   3.762  2.5844 -1.1645  0.6687
18797TIP3   OH277805   7.209   3.354   4.033 -0.1282 -0.2679  0.2649
18797TIP3    H177806   7.164   3.299   3.969  0.0688  0.4150 -0.4868
18797TIP3    H277807   7.142   3.378   4.096 -0.7545  0.4666 -0.6543
18798TIP3   OH277808   0.283   5.134   3.206 -0.2772 -0.1896 -0.1851
18798TIP3    H177809   0.214   5.069   3.194 -0.1215 -0.2756 -0.6430
18798TIP3    H277810   0.265   5.173   3.291 -1.3121  0.2933 -0.6255
18799TIP3   OH277811   5.333   5.320   3.727 -0.4132 -0.5042  0.4706
18799TIP3    H177812   5.303   5.318   3.817  2.1078 -2.1462  1.3361
18799TIP3    H277813   5.428   5.325   3.733 -0.2924  1.3949 -2.1187
18800TIP3   OH277814   5.690   4.705   2.888  0.0564 -0.0623 -0.0684
18800TIP3    H177815   5.653   4.623   2.856 -0.2486  0.1411 -0.2455
18800TIP3    H277816   5.742   4.738   2.814  3.2584 -1.9419  1.2532
18801TIP3   OH277817   4.942   5.235   4.227  0.7221 -0.3316 -0.8074
18801TIP3    H177818   4.852   5.253   4.201  1.3187 -0.6658 -3.1549
18801TIP3    H277819   4.935   5.167   4.294 -0.6563 -1.5806 -2.2054
18802TIP3   OH277820   5.613   6.658   0.740 -0.0573  0.0215 -0.0232
18802TIP3    H177821   5.545   6.716   0.706  0.2974  0.2942 -0.2722
18802TIP3    H277822   5.583   6.635   0.828 -0.1664  0.6355  0.1022
18803TIP3   OH277823   5.319   0.899   5.139 -0.2856  0.0729 -0.1575
18803TIP3    H177824   5.273   0.938   5.065 -1.0236 -1.4528 -0.5279
18803TIP3    H277825   5.255   0.904   5.211  0.1642  0.8844  0.2000
18804TIP3   OH277826   2.806   6.183   2.099 -0.4189 -0.3278  0.0984
18804TIP3    H177827   2.768   6.266   2.071  1.9717  0.9514  0.4758
18804TIP3    H277828   2.768   6.167   2.185 -0.2999  0.8040  0.3660
18805TIP3   OH277829   6.882   4.278   1.605  0.1985 -0.1097 -0.1066
18805TIP3    H177830   6.837   4.242   1.529  2.6025 -1.9223 -0.7497
18805TIP3    H277831   6.864   4.372   1.603 -2.9607 -0.6798 -0.6750
18806TIP3   OH277832   6.565   4.571   4.857 -0.5602 -0.2437  0.5227
18806TIP3    H177833   6.554   4.526   4.941  0.6998 -0.5545  0.5192
18806TIP3    H277834   6.648   4.539   4.823 -1.9858 -1.6540 -1.8059
18807TIP3   OH277835   7.191   1.261   5.515 -0.0276 -0.0364  0.0449
18807TIP3    H177836   7.097   1.273   5.529  0.1738 -0.4018  1.9103
18807TIP3    H277837   7.223   1.229   5.600  1.1064 -3.8579 -1.7306
18808TIP3   OH277838   6.363   3.230   5.084 -0.3733 -0.5275  0.0782
18808TIP3    H177839   6.280   3.198   5.119  0.2800 -0.5571  1.6132
18808TIP3    H277840   6.364   3.323   5.106  0.1869 -0.6157  0.4264
18809TIP3   OH277841   5.355   4.773   4.237  0.8308 -0.1714 -0.0467
18809TIP3    H177842   5.381   4.702   4.295  0.6486 -0.4487 -0.3041
18809TIP3    H277843   5.413   4.765   4.162  2.7544  1.6942  1.1701
18810TIP3   OH277844   0.647   7.172   5.395  0.5955  0.1955  0.2072
18810TIP3    H177845   0.589   7.144   5.324  0.4570 -1.5549  0.9846
18810TIP3    H277846   0.714   7.103   5.400  0.8300  0.4958  1.5027
18811TIP3   OH277847   5.658   3.690   2.267  0.1339 -0.1417  0.5229
18811TIP3    H177848   5.593   3.703   2.198 -0.0768 -1.5182  0.4583
18811TIP3    H277849   5.694   3.777   2.282  0.2830  0.1461 -1.4171
18812TIP3   OH277850   6.032   5.053   4.137 -0.1830  0.2209 -0.0290
18812TIP3    H177851   5.987   5.019   4.214 -0.4905 -2.0373 -1.1693
18812TIP3    H277852   6.123   5.025   4.148 -0.3667 -0.7178 -0.7966
18813TIP3   OH277853   7.113   4.218   3.496 -0.4776  0.5377  1.0172
18813TIP3    H177854   7.023   4.244   3.475 -0.9026 -0.9259  0.9780
18813TIP3    H277855   7.164   4.239   3.418 -0.7396  1.5423  1.1062
18814TIP3   OH277856   5.825   3.562   4.902  0.5538  0.2498 -0.2247
18814TIP3    H177857   5.757   3.597   4.960 -0.4464  0.6508 -1.6336
18814TIP3    H277858   5.815   3.467   4.908 -0.7934  0.3212 -1.1927
18815TIP3   OH277859   4.186   4.890   6.164  0.4868  0.4164  0.3907
18815TIP3    H177860   4.270   4.925   6.135  1.7783 -1.7781  1.3572
18815TIP3    H277861   4.146   4.855   6.084  0.6338  1.1877 -0.0210
18816TIP3   OH277862   5.739   0.398   5.181 -0.0935 -0.3748 -0.0662
18816TIP3    H177863   5.778   0.371   5.098 -1.3225 -0.2288 -0.6971
18816TIP3    H277864   5.751   0.492   5.184  1.6368 -0.5909  0.8176
18817TIP3   OH277865   5.093   4.511   6.055 -0.0506  0.4552 -0.6171
18817TIP3    H177866   5.017   4.565   6.038 -0.9663  0.6168  3.3516
18817TIP3    H277867   5.063   4.421   6.043 -1.0009  0.5084  1.1774
18818TIP3   OH277868   5.474   3.062   3.858 -0.5131 -0.3585  0.3581
18818TIP3    H177869   5.423   3.066   3.938  1.2627 -0.4043  1.5202
18818TIP3    H277870   5.483   2.968   3.839 -1.4679 -0.3287 -0.2459
18819TIP3   OH277871   2.117   5.769   5.127 -0.0925 -0.0949 -0.2217
18819TIP3    H177872   2.127   5.848   5.074  0.9440 -0.2073 -0.2059
18819TIP3    H277873   2.034   5.782   5.174 -1.0848 -0.0453 -1.9341
18820TIP3   OH277874   3.932   4.041   5.119 -0.0930 -0.6173 -0.1398
18820TIP3    H177875   3.992   4.051   5.193 -0.5471 -1.8316  0.3912
18820TIP3    H277876   3.877   3.966   5.142 -0.2356 -1.0066 -1.7063
18821TIP3   OH277877   4.133   4.555   2.309 -0.0945  0.3056 -0.2913
18821TIP3    H177878   4.089   4.478   2.343  0.1494  0.7104  0.9751
18821TIP3    H277879   4.133   4.617   2.382 -0.0869  1.4224 -1.2147
18822TIP3   OH277880   2.835   0.615   4.144  0.3129  0.5821 -0.5489
18822TIP3    H177881   2.885   0.688   4.107  0.2182  0.2226 -1.3946
18822TIP3    H277882   2.764   0.601   4.081 -0.8228  1.0505  0.6040
18823TIP3   OH277883   4.784   6.045   4.009  0.3024  0.1786  0.8400
18823TIP3    H177884   4.794   6.063   3.916  0.2829  0.8940  0.9776
18823TIP3    H277885   4.873   6.052   4.044  0.7281 -2.6023  0.4406
18824TIP3   OH277886   4.305   4.234   3.198 -0.9858  0.6134  0.6389
18824TIP3    H177887   4.223   4.259   3.157 -0.2703  2.0904  0.0719
18824TIP3    H277888   4.370   4.242   3.129 -0.0794  1.2245  1.5424
18825TIP3   OH277889   4.207   6.156   5.918 -0.0886 -0.1590  0.6754
18825TIP3    H177890   4.288   6.198   5.946  1.6012 -3.3131  0.7366
18825TIP3    H277891   4.190   6.192   5.831  0.8999  1.1764  1.0318
18826TIP3   OH277892   5.434   3.270   4.641 -0.0911 -0.5285  0.4174
18826TIP3    H177893   5.503   3.213   4.607  0.7574  0.5089  0.3830
18826TIP3    H277894   5.479   3.328   4.702 -1.0860 -0.4047  1.0355
18827TIP3   OH277895   3.747   5.330   3.926  0.1019 -0.3898 -0.1705
18827TIP3    H177896   3.654   5.313   3.914 -0.5994  0.5439  3.3523
18827TIP3    H277897   3.754   5.426   3.928  0.4242 -0.3983  3.6638
18828TIP3   OH277898   5.112   1.174   4.452  0.3652  0.7761  0.1868
18828TIP3    H177899   5.081   1.264   4.443  0.4228  0.8151  0.3678
18828TIP3    H277900   5.197   1.182   4.496  2.2828  0.9165 -3.3758
18829TIP3   OH277901   4.893   4.753   1.006  0.2391 -0.2740 -0.2418
18829TIP3    H177902   4.833   4.816   1.047  0.6975  0.4588 -0.7076
18829TIP3    H277903   4.848   4.726   0.926  0.2459 -0.2067 -0.2683
18830TIP3   OH277904   5.339   4.618   5.358 -0.1366 -0.2599 -0.1089
18830TIP3    H177905   5.421   4.613   5.408  1.6635  0.2872 -2.8923
18830TIP3    H277906   5.319   4.712   5.355  0.8210 -0.1064 -2.0317
18831TIP3   OH277907   0.846   4.388   3.764  0.1935  0.0869  0.5075
18831TIP3    H177908   0.936   4.418   3.783  0.0444  0.4555  0.6478
18831TIP3    H277909   0.798   4.469   3.745 -0.5442  0.0810  2.2356
18832TIP3   OH277910   6.426   4.852   5.124 -0.9753  0.3031  0.1127
18832TIP3    H177911   6.466   4.827   5.207 -0.3013  0.8764 -0.0273
18832TIP3    H277912   6.339   4.883   5.147  0.1335  2.9231  0.9326
18833TIP3   OH277913   4.286   4.333   4.817  0.3003 -0.3627 -0.5710
18833TIP3    H177914   4.280   4.255   4.761  1.5460 -0.7182 -0.2495
18833TIP3    H277915   4.276   4.299   4.906 -0.5236  0.0362 -0.5160
18834TIP3   OH277916   6.529   3.536   3.510 -0.6408 -0.0630  0.0970
18834TIP3    H177917   6.613   3.580   3.524 -0.8582 -0.2765  2.2883
18834TIP3    H277918   6.552   3.444   3.497 -0.5118 -0.1195  0.6813
18835TIP3   OH277919   5.704   6.013   3.907 -0.1437 -0.4372  0.1771
18835TIP3    H177920   5.754   6.093   3.890 -2.1934  0.9392  0.3514
18835TIP3    H277921   5.629   6.019   3.848 -0.9184 -1.6581  1.0177
18836TIP3   OH277922   0.189   2.684   3.826 -0.1514  0.5992 -0.1328
18836TIP3    H177923   0.141   2.714   3.748 -0.8871  0.6189  0.3264
18836TIP3    H277924   0.180   2.756   3.889  0.8566  0.7959 -0.1926
18837TIP3   OH277925   0.736   5.157   4.820  0.0109  0.1707  0.2393
18837TIP3    H177926   0.817   5.208   4.821 -1.5443  2.6807  0.6644
18837TIP3    H277927   0.737   5.110   4.904  1.8976 -1.2781 -0.5560
18838TIP3   OH277928   2.963   1.987   1.494  0.2366 -0.4030 -0.2005
18838TIP3    H177929   2.962   1.966   1.587 -0.5165 -1.9192 -0.5417
18838TIP3    H277930   2.887   2.043   1.481  0.6702  0.2878  0.1927
18839TIP3   OH277931   6.718   7.273   4.082 -0.0621  0.3644 -0.1963
18839TIP3    H177932   6.804   7.315   4.081  0.5844 -0.9408 -0.3291
18839TIP3    H277933   6.681   7.291   3.995  0.9470 -0.8466 -0.8785
18840TIP3   OH277934   3.928   4.398   1.990  0.5997  0.5740 -0.2064
18840TIP3    H177935   3.888   4.412   1.904  1.2105 -1.3571 -0.8327
18840TIP3    H277936   4.019   4.424   1.979  0.7549  0.0251 -0.2394
18841TIP3   OH277937   0.199   0.544   4.444 -0.1201  0.3408  0.1074
18841TIP3    H177938   0.213   0.521   4.536  0.7601  0.2774 -0.0418
18841TIP3    H277939   0.264   0.611   4.426 -1.9560  2.2164  0.2291
18842TIP3   OH277940   6.205   3.632   1.936  0.2800  0.3274 -0.1899
18842TIP3    H177941   6.300   3.618   1.943 -0.0444 -2.1353 -0.1904
18842TIP3    H277942   6.172   3.615   2.024 -0.3767 -0.8206 -0.6446
18843TIP3   OH277943   3.378   5.862   2.563 -0.1929 -0.2095 -0.3165
18843TIP3    H177944   3.412   5.841   2.650 -1.1811 -0.9268 -0.0930
18843TIP3    H277945   3.451   5.904   2.518  0.0353  1.0184  1.1754
18844TIP3   OH277946   5.333   2.819   4.573 -0.5102 -0.2991 -0.1760
18844TIP3    H177947   5.355   2.731   4.604  0.5141  0.6404  1.8660
18844TIP3    H277948   5.250   2.840   4.615 -0.1571  0.1780  0.2823
18845TIP3   OH277949   3.097   0.110   4.310 -0.0639 -0.5181  0.0709
18845TIP3    H177950   3.129   0.021   4.301  0.7518 -0.1851 -0.4754
18845TIP3    H277951   3.006   0.107   4.280 -0.8189 -1.6456  2.4212
18846TIP3   OH277952   3.581   0.985   3.117  0.4464 -0.2073  0.0827
18846TIP3    H177953   3.506   0.957   3.169  0.4601 -1.1603 -0.4156
18846TIP3    H277954   3.649   0.920   3.135  1.1212  0.5782  0.4309
18847TIP3   OH277955   0.184   1.181   5.499 -0.3617  0.2787 -0.2087
18847TIP3    H177956   0.207   1.159   5.589 -0.0828 -1.1701 -0.6226
18847TIP3    H277957   0.154   1.099   5.461  0.7094  0.5971 -1.8016
18848TIP3   OH277958   1.613   4.203   1.519  0.0005  0.3745  0.2413
18848TIP3    H177959   1.700   4.175   1.548 -0.6235 -0.1648  1.6581
18848TIP3    H277960   1.630   4.269   1.452  1.4915 -0.8161 -0.5698
18849TIP3   OH277961   3.151   4.225   5.634  0.9755 -0.0088  0.5369
18849TIP3    H177962   3.197   4.141   5.644  2.0372  0.4205 -0.6452
18849TIP3    H277963   3.207   4.288   5.681  1.0101  0.3173  0.0572
18850TIP3   OH277964   0.315   1.350   5.786  0.1978 -0.1357  0.5181
18850TIP3    H177965   0.358   1.265   5.777 -0.3219 -0.1734 -2.0791
18850TIP3    H277966   0.388   1.412   5.799  0.6951 -0.7736  0.7903
18851TIP3   OH277967   5.291   5.238   6.068 -0.4448  0.3275  0.0541
18851TIP3    H177968   5.357   5.283   6.015 -0.1886  0.7732  0.7442
18851TIP3    H277969   5.209   5.281   6.045 -0.4626 -0.0580 -0.6210
18852TIP3   OH277970   5.205   6.600   5.069  0.1983 -1.0411 -0.7463
18852TIP3    H177971   5.217   6.639   4.982  1.2452 -1.1832 -0.6759
18852TIP3    H277972   5.260   6.522   5.067  0.6326 -0.7642  0.2254
18853TIP3   OH277973   6.560   5.335   4.398 -0.3227  0.4352  0.1991
18853TIP3    H177974   6.604   5.250   4.393 -1.3964 -0.1348  0.3618
18853TIP3    H277975   6.508   5.340   4.318 -0.7090  0.6909  0.4652
18854TIP3   OH277976   6.217   4.917   2.090  0.1955  0.3616  0.1580
18854TIP3    H177977   6.252   4.829   2.106  1.6723  0.9985  0.5014
18854TIP3    H277978   6.123   4.907   2.104  0.4017 -1.0552  0.7120
18855TIP3   OH277979   6.210   4.822   3.288  0.3189 -0.5346  0.0083
18855TIP3    H177980   6.300   4.795   3.273  0.1348 -0.6445 -0.8862
18855TIP3    H277981   6.170   4.826   3.201 -0.5393 -0.4881  0.3919
18856TIP3   OH277982   2.306   5.230   4.393  0.1782  0.2135 -0.3901
18856TIP3    H177983   2.395   5.220   4.362  0.0622 -1.9272 -0.0755
18856TIP3    H277984   2.306   5.315   4.439  2.5656 -0.6873  1.3908
18857TIP3   OH277985   5.723   5.457   3.534 -0.1215  0.2166 -0.3036
18857TIP3    H177986   5.699   5.390   3.598 -1.9098  1.1138  0.0035
18857TIP3    H277987   5.642   5.508   3.521  0.7638  1.2977 -1.7483
18858TIP3   OH277988   6.832   3.084   4.941 -0.3246  0.2318  0.1975
18858TIP3    H177989   6.924   3.078   4.914 -0.7253 -0.7456 -0.9965
18858TIP3    H277990   6.789   3.012   4.896 -1.8382  1.1567  0.1360
18859TIP3   OH277991   0.047   2.179   2.038  0.0848  0.6588 -0.4571
18859TIP3    H177992  -0.014   2.135   2.096 -0.3284  0.6971 -0.8581
18859TIP3    H277993   0.018   2.154   1.950  1.6290 -0.6411 -0.6132
18860TIP3   OH277994   7.252   0.355   5.866 -0.4951  0.3230  0.2247
18860TIP3    H177995   7.200   0.422   5.910 -0.3966  0.6811 -0.2101
18860TIP3    H277996   7.300   0.401   5.798 -0.6839 -0.2442 -0.3011
18861TIP3   OH277997   2.279   7.021   2.905  0.3191 -0.0770  0.1330
18861TIP3    H177998   2.322   7.064   2.978 -1.0893 -0.4322  1.1813
18861TIP3    H277999   2.197   6.988   2.941 -0.8299  0.5563 -1.8277
18862TIP3   OH278000   2.718   3.850   5.494 -0.6899  0.5226  1.2268
18862TIP3    H178001   2.655   3.848   5.566  0.4426  0.3893  2.2360
18862TIP3    H278002   2.796   3.806   5.529 -0.6401 -0.9116 -0.5852
18863TIP3   OH278003   4.899   6.461   4.937 -0.5699  0.2947  0.2091
18863TIP3    H178004   4.956   6.486   5.010 -0.3013  1.9020 -0.5221
18863TIP3    H278005   4.813   6.496   4.960 -0.5397  0.5949 -0.1243
18864TIP3   OH278006   6.336   6.908   0.117 -0.2609 -0.1297 -0.2096
18864TIP3    H178007   6.386   6.834   0.152 -1.3670 -1.5820 -1.6144
18864TIP3    H278008   6.299   6.951   0.195  0.9470 -0.6459  0.6560
18865TIP3   OH278009   5.136   4.153   5.944  0.4807  0.3047 -0.4976
18865TIP3    H178010   5.212   4.179   5.892  0.3850  0.9596 -0.3153
18865TIP3    H278011   5.163   4.168   6.035  0.9777 -1.6792 -0.2842
18866TIP3   OH278012   7.057   2.414   4.726  0.6239 -0.2453 -0.3648
18866TIP3    H178013   7.053   2.377   4.815 -0.6494  1.4811  0.3263
18866TIP3    H278014   7.124   2.482   4.731  0.2264  0.1661 -0.6041
18867TIP3   OH278015   4.099   0.160   4.142  0.2006 -0.6250  0.5838
18867TIP3    H178016   4.081   0.082   4.089  0.7861 -0.3618 -0.0078
18867TIP3    H278017   4.161   0.130   4.208 -2.0050 -1.4205  2.3311
18868TIP3   OH278018   4.183   4.178   5.814 -0.7145 -0.3369  0.4096
18868TIP3    H178019   4.257   4.151   5.868  0.3099  1.0411 -0.2863
18868TIP3    H278020   4.117   4.110   5.829  1.0652 -2.1653  0.2095
18869TIP3   OH278021   3.641   5.622   5.525  0.5818 -0.7414 -0.6030
18869TIP3    H178022   3.638   5.614   5.620 -0.9100  0.3447 -0.5425
18869TIP3    H278023   3.597   5.543   5.493 -1.0667  0.0576 -0.3334
18870TIP3   OH278024   0.854   0.087   6.062 -0.0961  0.4368  0.0034
18870TIP3    H178025   0.871  -0.004   6.038  2.3586  0.2243  2.3083
18870TIP3    H278026   0.770   0.085   6.108 -0.4629 -0.4959 -0.6905
18871TIP3   OH278027   6.983   4.896   0.881 -0.4266 -0.1548 -0.0972
18871TIP3    H178028   6.935   4.822   0.917  0.9704 -0.7678  0.5404
18871TIP3    H278029   6.917   4.964   0.868 -1.4175 -0.9156  0.9176
18872TIP3   OH278030   4.923   4.973   3.952 -0.1414  0.2171  0.0292
18872TIP3    H178031   4.885   4.961   4.039 -1.4042  1.8672 -0.2514
18872TIP3    H278032   4.964   4.889   3.931 -2.2517 -1.1149  1.0557
18873TIP3   OH278033   3.588   5.245   4.878 -0.3056  0.1957 -0.1070
18873TIP3    H178034   3.535   5.183   4.828  2.0503 -0.4878 -1.8756
18873TIP3    H278035   3.673   5.202   4.887  1.1507  2.8035 -0.7282
18874TIP3   OH278036   2.663   5.480   4.889 -0.4039 -0.3372 -0.2827
18874TIP3    H178037   2.729   5.516   4.830 -1.6861  0.2642 -1.3817
18874TIP3    H278038   2.618   5.557   4.924 -0.9418 -0.7602 -0.0373
18875TIP3   OH278039   6.138   6.198   3.809  0.2376  0.1799  0.2003
18875TIP3    H178040   6.190   6.276   3.792  0.4900 -0.0846 -0.2717
18875TIP3    H278041   6.051   6.218   3.773  0.8278 -0.4547 -1.6472
18876TIP3   OH278042   6.910   5.793   3.004  0.2666  0.7845 -0.4123
18876TIP3    H178043   6.925   5.801   2.910 -0.8968  1.0501 -0.5789
18876TIP3    H278044   6.994   5.763   3.039  1.1582  2.1611 -1.3277
18877TIP3   OH278045   4.788   5.594   4.755 -0.5828  0.0040 -0.3472
18877TIP3    H178046   4.856   5.648   4.714  0.0078 -1.4738 -1.3720
18877TIP3    H278047   4.825   5.506   4.756 -1.7050 -0.4665  0.8994
18878TIP3   OH278048   4.501   5.871   3.227 -0.1582 -0.1328 -0.2440
18878TIP3    H178049   4.490   5.932   3.154 -1.0003 -0.3417 -0.2932
18878TIP3    H278050   4.461   5.916   3.301  0.0700 -0.2225 -0.0679
18879TIP3   OH278051   2.356   0.226  15.255 -0.1606 -0.7495 -0.0748
18879TIP3    H178052   2.359   0.212  15.161  1.3895 -2.0998  0.1564
18879TIP3    H278053   2.355   0.138  15.293 -1.7002 -0.2462  1.1689
18880TIP3   OH278054   5.473   1.774   4.736 -0.4252  0.0452  0.1889
18880TIP3    H178055   5.468   1.724   4.817  1.4760  0.2419  0.4400
18880TIP3    H278056   5.405   1.841   4.744 -0.8182 -0.4789  1.2398
18881TIP3   OH278057   5.839   3.228   3.238  0.3412  0.1747 -0.0295
18881TIP3    H178058   5.750   3.194   3.229  0.4195  0.2905 -1.3164
18881TIP3    H278059   5.882   3.165   3.295 -0.1376 -0.7222 -0.6438
18882TIP3   OH278060   5.818   6.249   3.819 -0.1512  0.3408  0.2434
18882TIP3    H178061   5.828   6.313   3.889 -0.7063  0.6819  0.0142
18882TIP3    H278062   5.783   6.299   3.745 -1.2542 -0.3556  0.2775
18883TIP3   OH278063   4.028   2.318   3.762 -0.9601  0.0733  0.0198
18883TIP3    H178064   3.943   2.336   3.802 -1.1790  0.1854 -0.4902
18883TIP3    H278065   4.063   2.404   3.739 -1.5122 -0.0559 -1.3974
18884TIP3   OH278066   5.394   6.102   4.455  0.1987 -0.0896 -0.1151
18884TIP3    H178067   5.475   6.094   4.405  0.9741  0.5647  1.0028
18884TIP3    H278068   5.366   6.012   4.473  1.1152 -0.3167  0.1699
18885TIP3   OH278069   2.559   4.731   3.659 -0.2453 -0.4489  0.1494
18885TIP3    H178070   2.490   4.669   3.682  0.7028 -0.6548  2.5800
18885TIP3    H278071   2.639   4.679   3.661  0.3859  0.5334  0.8048
18886TIP3   OH278072   4.928   1.757   3.448  0.0283  0.1937 -0.4847
18886TIP3    H178073   4.983   1.761   3.371 -0.1285  1.4718 -0.5383
18886TIP3    H278074   4.957   1.831   3.502 -0.0901 -0.4856  0.5158
18887TIP3   OH278075   2.823   1.353   4.003  0.3838 -0.7848  0.2172
18887TIP3    H178076   2.878   1.289   3.959 -0.9906 -2.6576  1.1456
18887TIP3    H278077   2.741   1.352   3.955  0.8142  1.3289 -0.6092
18888TIP3   OH278078   0.886   5.050   2.896 -0.2590  0.1806  0.1408
18888TIP3    H178079   0.820   5.084   2.835 -1.4468 -0.3235  1.1270
18888TIP3    H278080   0.864   4.957   2.905  1.3894 -0.2943 -0.5304
18889TIP3   OH278081   0.626   5.367   3.407 -0.2262  0.1121  0.5421
18889TIP3    H178082   0.697   5.417   3.366 -0.4433  0.5611  0.7100
18889TIP3    H278083   0.669   5.315   3.475 -0.1191  0.6880  0.9120
18890TIP3   OH278084   0.111   1.043   5.071  0.1148  0.0027 -0.0848
18890TIP3    H178085   0.202   1.040   5.103  0.1722  0.4204 -0.2060
18890TIP3    H278086   0.098   1.134   5.045 -0.2390 -0.1279 -0.3667
18891TIP3   OH278087   4.922   1.512   4.383 -0.0841  0.4884  0.1999
18891TIP3    H178088   4.992   1.573   4.406  0.3014  0.2045 -0.1909
18891TIP3    H278089   4.921   1.448   4.455  1.8130 -0.9884 -1.0353
18892TIP3   OH278090   6.893   5.659   4.868 -0.2413  0.0256  0.5010
18892TIP3    H178091   6.935   5.668   4.782  0.6225 -4.2914  0.3791
18892TIP3    H278092   6.966   5.664   4.931 -0.4142 -0.3430  0.7337
18893TIP3   OH278093   3.794   4.743   1.988 -0.5690 -0.9280  0.1269
18893TIP3    H178094   3.782   4.681   1.916  0.2168 -0.5692 -0.3189
18893TIP3    H278095   3.717   4.730   2.043 -0.7970 -1.7579 -0.3650
18894TIP3   OH278096   2.058   4.609   3.278 -0.0391  0.1878  0.4030
18894TIP3    H178097   2.091   4.687   3.234  1.8764  1.0103  3.1246
18894TIP3    H278098   1.971   4.595   3.241  0.7730  1.8558 -2.2642
18895TIP3   OH278099   3.261   3.084   4.171  0.7452  0.3169  0.2547
18895TIP3    H178100   3.337   3.044   4.213 -1.1302 -0.7872  2.7443
18895TIP3    H278101   3.270   3.178   4.188  1.1301  0.0990  1.2543
18896TIP3   OH278102   1.441   0.107   5.623  0.1282  0.1249 -0.0226
18896TIP3    H178103   1.430   0.122   5.529 -0.7440  0.3418  0.1104
18896TIP3    H278104   1.506   0.037   5.629 -0.3579 -0.3940 -0.7989
18897TIP3   OH278105   5.187   3.955   4.018  0.2874  0.1277  0.3207
18897TIP3    H178106   5.192   3.975   4.111 -1.6023  3.0246 -0.1467
18897TIP3    H278107   5.232   4.028   3.975  2.6976 -2.0513 -0.9981
18898TIP3   OH278108   0.249   4.920   4.256  0.1523 -0.3299 -0.2325
18898TIP3    H178109   0.279   5.010   4.241  0.8740  0.0892  3.4050
18898TIP3    H278110   0.200   4.924   4.338  0.6723 -3.3767  0.2820
18899TIP3   OH278111   4.195   1.138   3.238  0.2630 -0.0271  0.2435
18899TIP3    H178112   4.226   1.091   3.316  1.6401  1.8137  0.8496
18899TIP3    H278113   4.267   1.130   3.175  0.2377  0.6791  0.1181
18900TIP3   OH278114   4.730   4.682   4.173  0.0659 -1.5201 -0.0375
18900TIP3    H178115   4.718   4.770   4.138  2.0492 -1.1734  0.1000
18900TIP3    H278116   4.645   4.640   4.162 -0.0559 -0.6094 -2.9760
18901TIP3   OH278117   6.957   4.994   4.329 -0.0079 -0.1747 -0.6240
18901TIP3    H178118   6.997   4.926   4.383  0.6137 -0.9408 -2.0439
18901TIP3    H278119   7.029   5.032   4.279 -0.4762  0.9792 -0.4567
18902TIP3   OH278120   0.169   6.629   5.031  0.3810  0.1120 -0.0195
18902TIP3    H178121   0.090   6.589   5.067  1.4512 -0.5501  1.6449
18902TIP3    H278122   0.226   6.556   5.011  0.4816  0.5747 -1.4892
18903TIP3   OH278123   5.493   3.065   5.337  0.4986 -0.0613 -0.3936
18903TIP3    H178124   5.455   3.119   5.268  2.0198  1.2604 -0.2164
18903TIP3    H278125   5.469   3.109   5.419 -0.1849 -0.9024 -0.1346
18904TIP3   OH278126   1.781   3.364   5.373  0.0521  0.1360 -0.2769
18904TIP3    H178127   1.748   3.449   5.402  0.0405  0.0245  0.0355
18904TIP3    H278128   1.826   3.328   5.449 -0.6503 -0.5024 -0.1589
18905TIP3   OH278129   5.317   2.628   2.003 -0.5109  0.1938  0.2521
18905TIP3    H178130   5.227   2.612   1.973  0.1453 -0.8142 -1.2602
18905TIP3    H278131   5.360   2.671   1.929  1.2834 -2.8022 -0.5473
18906TIP3   OH278132   0.370   3.679   0.347 -0.0250 -0.0459 -0.7321
18906TIP3    H178133   0.321   3.726   0.280  1.8274  0.4099 -1.8032
18906TIP3    H278134   0.461   3.681   0.317  0.5041 -1.9157  0.5867
18907TIP3   OH278135   3.129   7.235   5.153 -0.3097 -0.1043  0.4743
18907TIP3    H178136   3.036   7.251   5.133 -0.9784 -0.9804  2.7182
18907TIP3    H278137   3.161   7.183   5.079 -1.8877 -0.6539  0.1553
18908TIP3   OH278138   3.956   1.940   3.062 -0.0785 -0.0833 -0.4163
18908TIP3    H178139   3.950   1.969   3.153  0.6046  1.1150 -0.7472
18908TIP3    H278140   3.874   1.892   3.047 -0.5944  0.4695  0.5618
18909TIP3   OH278141   5.206   4.252   2.411 -0.1381  0.5369  0.0708
18909TIP3    H178142   5.269   4.261   2.482  0.8838  1.8662 -0.9592
18909TIP3    H278143   5.128   4.299   2.441 -0.5682 -0.8924  1.2453
18910TIP3   OH278144   6.214   3.251   5.430  0.7720  0.5158 -0.2472
18910TIP3    H178145   6.168   3.260   5.513  0.3318  1.3915 -0.5821
18910TIP3    H278146   6.147   3.227   5.367  0.8087  1.5905 -0.6969
18911TIP3   OH278147   0.353   3.664   5.738 -0.6172 -0.1125  0.2380
18911TIP3    H178148   0.380   3.686   5.648 -0.6369 -1.6376 -0.1649
18911TIP3    H278149   0.272   3.712   5.752 -0.2295  0.7091 -0.3002
18912TIP3   OH278150   7.247   4.170   2.871 -0.3435 -0.3868  0.1298
18912TIP3    H178151   7.162   4.212   2.879 -1.2366 -2.2313  0.6680
18912TIP3    H278152   7.276   4.190   2.782 -1.3239  0.2646 -0.0495
18913TIP3   OH278153   2.386   3.949   4.397 -0.0680  0.2391 -0.4723
18913TIP3    H178154   2.372   3.861   4.363 -0.3933  0.1475 -0.0952
18913TIP3    H278155   2.480   3.952   4.417 -0.0982 -0.0901 -0.2773
18914TIP3   OH278156   4.329   4.124   4.048  0.0688 -0.5956 -0.2210
18914TIP3    H178157   4.317   4.032   4.021 -0.3677  0.3726 -3.5707
18914TIP3    H278158   4.240   4.156   4.065 -0.3246  0.5417 -3.9719
18915TIP3   OH278159   4.921   6.861   5.345  0.3711  0.1611  0.1532
18915TIP3    H178160   4.828   6.883   5.345  0.9307  2.7903 -1.0645
18915TIP3    H278161   4.942   6.847   5.437 -1.2462 -0.6368  0.4245
18916TIP3   OH278162   1.879   2.589   3.897  0.5371 -0.1881  0.1650
18916TIP3    H178163   1.826   2.656   3.855  1.1985  1.3926  1.7834
18916TIP3    H278164   1.874   2.514   3.838 -3.3579 -0.0404  0.2123
18917TIP3   OH278165   2.988   2.759   0.227  0.0667  0.6359  0.3502
18917TIP3    H178166   3.057   2.825   0.234  0.0973  0.5943  0.4378
18917TIP3    H278167   3.022   2.683   0.275  2.6246 -1.6188 -4.5938
18918TIP3   OH278168   6.770   5.089   0.854 -0.2884  0.0512  0.5228
18918TIP3    H178169   6.786   5.117   0.944 -0.8864 -0.5975  0.8339
18918TIP3    H278170   6.699   5.025   0.861 -0.4055  0.0719 -0.4187
18919TIP3   OH278171   2.381   3.411   5.225 -0.0826 -0.7893  0.3628
18919TIP3    H178172   2.412   3.406   5.316 -1.3829 -1.0831  0.7980
18919TIP3    H278173   2.293   3.374   5.228 -0.2721 -0.4513 -0.9577
18920TIP3   OH278174   4.811   4.045   4.909 -0.2671  0.2272 -0.4428
18920TIP3    H178175   4.848   4.003   4.831 -2.3200 -3.2437  0.3395
18920TIP3    H278176   4.717   4.044   4.894 -0.4910  2.9791  0.4931
18921TIP3   OH278177   4.959   3.702   3.053  0.3721  0.3692  0.2155
18921TIP3    H178178   5.018   3.655   2.995  0.9377 -1.2372  2.0412
18921TIP3    H278179   4.897   3.636   3.083 -0.2329  1.2906  1.0257
18922TIP3   OH278180   5.397   5.886   5.911  0.0916 -0.2989  0.1082
18922TIP3    H178181   5.481   5.887   5.956  0.0539 -0.7496  0.1888
18922TIP3    H278182   5.362   5.798   5.926 -0.8145  0.1752  0.8441
18923TIP3   OH278183   5.418   5.520   5.696 -0.2574  0.1457  0.3337
18923TIP3    H178184   5.328   5.551   5.690 -0.2004  0.3022  0.2652
18923TIP3    H278185   5.435   5.515   5.790 -0.8777 -1.4884  0.3697
18924TIP3   OH278186   7.082   5.051   3.588 -0.2320 -0.1614  0.4354
18924TIP3    H178187   7.103   5.070   3.680 -0.4619  0.3038  0.3915
18924TIP3    H278188   7.028   5.124   3.560 -0.6180 -0.5765  0.0861
18925TIP3   OH278189   0.218   2.422   4.674  0.6034 -0.4264 -0.7495
18925TIP3    H178190   0.150   2.379   4.623 -0.4739  1.0392 -0.5962
18925TIP3    H278191   0.242   2.358   4.741  0.0569 -1.3142 -1.3955
18926TIP3   OH278192   6.529   6.647   5.756 -0.5282  0.0877  0.7214
18926TIP3    H178193   6.445   6.692   5.747  1.6529  4.3971  0.1672
18926TIP3    H278194   6.553   6.623   5.666  0.7926  2.9075  0.2583
18927TIP3   OH278195   0.619   6.387   3.687  0.4348  0.3329 -0.0620
18927TIP3    H178196   0.582   6.368   3.601  2.0051  2.8518 -1.3581
18927TIP3    H278197   0.545   6.380   3.747 -0.4524 -2.6532 -1.4030
18928TIP3   OH278198   0.921   4.028   4.315 -0.0355 -0.5271  0.3841
18928TIP3    H178199   0.894   4.041   4.406  0.3368  0.7352  0.3132
18928TIP3    H278200   0.867   3.954   4.285  0.1795 -1.2545  1.7612
18929TIP3   OH278201   1.810   6.794   4.255  0.0696  0.4547 -0.4816
18929TIP3    H178202   1.902   6.817   4.241  0.5204 -1.4586 -0.8512
18929TIP3    H278203   1.761   6.873   4.231  1.5550  1.1945 -1.1476
18930TIP3   OH278204   1.110   4.089   2.996  0.2881  0.3697  0.5135
18930TIP3    H178205   1.204   4.095   2.982  0.2148  1.5868  0.5086
18930TIP3    H278206   1.090   3.996   2.987  1.1580  0.3729 -1.6117
18931TIP3   OH278207   4.943   5.243   5.247  0.1357 -0.1354  0.1148
18931TIP3    H178208   4.873   5.277   5.191 -1.5556 -0.5696  1.9111
18931TIP3    H278209   4.915   5.154   5.268  2.0261 -0.8819 -0.4051
18932TIP3   OH278210   6.221   4.645   5.817 -0.7798  0.1658  0.4660
18932TIP3    H178211   6.182   4.725   5.851 -0.2702  0.2851  0.7725
18932TIP3    H278212   6.255   4.600   5.895 -3.2868 -1.5669  0.6056
18933TIP3   OH278213   6.228   6.221   4.278 -0.0385  0.0207 -0.2075
18933TIP3    H178214   6.154   6.264   4.321  0.6847  0.6529  0.4051
18933TIP3    H278215   6.188   6.170   4.207 -1.0257  0.6924 -0.1415
18934TIP3   OH278216   3.873   3.479   1.778 -0.0801 -0.0118 -0.3223
18934TIP3    H178217   3.864   3.427   1.858 -0.5729 -0.2899 -0.5504
18934TIP3    H278218   3.883   3.413   1.708  0.8624  0.2360 -0.4312
18935TIP3   OH278219   0.909   4.770   3.830  0.5159 -0.0401  0.3252
18935TIP3    H178220   0.991   4.771   3.880  1.1029  1.6925 -0.6277
18935TIP3    H278221   0.843   4.803   3.890  0.1367 -2.9957  1.6408
18936TIP3   OH278222   6.740   4.111   3.603 -0.2766 -0.0015  0.1136
18936TIP3    H178223   6.746   4.207   3.605  1.3360 -0.0560 -0.7031
18936TIP3    H278224   6.731   4.086   3.695 -2.5734  1.0175  0.1871
18937TIP3   OH278225   1.614   7.017   5.621 -0.1765  0.3135 -0.1045
18937TIP3    H178226   1.615   7.113   5.617  1.2419  0.4050  1.9008
18937TIP3    H278227   1.521   6.994   5.620 -0.6426  1.8622  2.3152
18938TIP3   OH278228   6.070   1.542   5.378 -0.2760  0.1752 -0.0927
18938TIP3    H178229   6.123   1.517   5.453  0.3909 -0.5825 -0.7959
18938TIP3    H278230   5.984   1.505   5.396 -0.1596  0.1272  0.3720
18939TIP3   OH278231   1.894   4.799   6.045  0.0786 -0.0235 -0.6465
18939TIP3    H178232   1.935   4.714   6.063  1.4339  0.4226 -1.5281
18939TIP3    H278233   1.888   4.840   6.131  0.9823 -0.3253 -0.4321
18940TIP3   OH278234   5.486   4.214   4.464  0.0577  0.0662 -0.0581
18940TIP3    H178235   5.553   4.157   4.503 -0.6783 -1.2906 -0.7184
18940TIP3    H278236   5.521   4.235   4.378  0.4548  0.8536  0.2906
18941TIP3   OH278237   1.029   6.419   5.008  0.1401 -0.1247 -0.2422
18941TIP3    H178238   1.007   6.459   5.092  1.3667  0.8718 -0.3854
18941TIP3    H278239   0.962   6.452   4.947  1.5389  2.3182 -0.5167
18942TIP3   OH278240   2.030   6.221   4.824  0.3193  0.3095 -0.0784
18942TIP3    H178241   1.962   6.240   4.759 -0.1216  1.3299  0.6756
18942TIP3    H278242   2.075   6.304   4.836 -0.5252  0.4817  1.9889
18943TIP3   OH278243   5.911   5.226   3.744  0.1277  0.9929 -0.3019
18943TIP3    H178244   5.894   5.131   3.749  2.6069  0.4896 -0.9786
18943TIP3    H278245   5.824   5.265   3.735 -1.0882 -1.0842  1.7874
18944TIP3   OH278246   6.156   3.711   4.539 -0.3808  0.2266  0.3853
18944TIP3    H178247   6.108   3.702   4.456  0.2127 -1.1593  0.1795
18944TIP3    H278248   6.122   3.640   4.594  1.9074 -1.2194 -0.0095
18945TIP3   OH278249   5.911   4.196   2.678 -0.0416 -0.6513  0.1980
18945TIP3    H178250   5.858   4.270   2.649 -1.3434 -1.6687 -0.0715
18945TIP3    H278251   5.847   4.126   2.695  1.0679 -1.3625  1.5063
18946TIP3   OH278252   6.184   3.735   0.784  0.2395 -0.4149 -0.4423
18946TIP3    H178253   6.195   3.809   0.724 -0.2664 -0.4671 -0.6033
18946TIP3    H278254   6.230   3.663   0.742  0.2661 -0.3333 -0.5541
18947TIP3   OH278255   4.222   2.721   5.055  0.1664  0.2393  0.2542
18947TIP3    H178256   4.293   2.721   4.991  0.5312  2.5620  0.5959
18947TIP3    H278257   4.207   2.814   5.073 -1.0061 -0.3411  2.3566
18948TIP3   OH278258   0.605   1.969   4.990  0.4800 -0.2506 -0.5041
18948TIP3    H178259   0.590   2.064   4.993  1.7071 -0.0055 -1.6846
18948TIP3    H278260   0.552   1.934   5.062 -0.0224  1.3220 -0.0881
18949TIP3   OH278261   4.719   3.296   4.800 -0.0304  0.5411 -0.5016
18949TIP3    H178262   4.667   3.283   4.880  0.5633 -1.2945 -0.3799
18949TIP3    H278263   4.769   3.376   4.816  0.0973  0.1806  0.9895
18950TIP3   OH278264   5.441   1.294   0.761  0.3074  0.0671  0.0502
18950TIP3    H178265   5.517   1.352   0.752  0.5386 -0.2179  0.1973
18950TIP3    H278266   5.478   1.208   0.777 -0.0389 -0.1687 -0.4022
18951TIP3   OH278267   0.571   6.878   2.517 -0.0871  0.1263 -0.0662
18951TIP3    H178268   0.646   6.876   2.577 -1.3702  0.3367  1.5958
18951TIP3    H278269   0.585   6.955   2.463  0.2483  0.9211  1.1217
18952TIP3   OH278270   1.096   2.467   5.137  0.0829 -0.6710  0.2537
18952TIP3    H178271   1.015   2.416   5.137  0.0908 -0.6827  0.1842
18952TIP3    H278272   1.102   2.504   5.049  0.5117 -1.2280  0.0519
18953TIP3   OH278273   0.638   2.210   5.331 -0.4912 -0.0190 -0.1989
18953TIP3    H178274   0.599   2.242   5.249 -0.4587 -2.1802 -1.0763
18953TIP3    H278275   0.645   2.289   5.386  0.7335  1.7264 -2.7403
18954TIP3   OH278276   7.151   4.969   5.627  0.4281  0.0741  0.0557
18954TIP3    H178277   7.200   5.044   5.660  0.6376  0.8031 -1.8635
18954TIP3    H278278   7.180   4.896   5.682  1.2117  1.1230  1.0679
18955TIP3   OH278279   6.462   5.957   5.672 -0.0594 -0.7937  0.3518
18955TIP3    H178280   6.530   5.901   5.636  1.3103 -0.1459  1.8874
18955TIP3    H278281   6.393   5.897   5.699  0.5210 -1.5741  0.0984
18956TIP3   OH278282   6.974   5.211   5.581 -0.1781 -0.4866 -0.6469
18956TIP3    H178283   6.962   5.146   5.651 -0.3546  0.2749  0.0399
18956TIP3    H278284   6.900   5.271   5.591  1.9604  1.9497  1.0755
18957TIP3   OH278285   3.977   3.186   2.499 -0.7778 -0.4105  0.1622
18957TIP3    H178286   3.979   3.108   2.554  0.4823  0.2980  1.1498
18957TIP3    H278287   3.892   3.183   2.456 -1.8042 -0.9450  2.1946
18958TIP3   OH278288   0.105   4.256   2.640 -0.0562  0.5858  0.7177
18958TIP3    H178289   0.053   4.331   2.610  0.7085  1.0629  0.5688
18958TIP3    H278290   0.195   4.287   2.635  0.4744 -1.1810 -1.8121
18959TIP3   OH278291   1.951   5.236   4.750 -0.3439 -0.0173  0.3135
18959TIP3    H178292   1.905   5.183   4.686 -1.3694  0.4488  0.6450
18959TIP3    H278293   1.973   5.176   4.821  1.4247 -0.6806 -0.7931
18960TIP3   OH278294   0.098   3.983   2.503 -0.0915 -0.5702  0.1574
18960TIP3    H178295   0.131   4.069   2.526 -0.1991 -0.7860  1.1171
18960TIP3    H278296   0.023   3.969   2.560  0.4086 -1.6402  0.5722
18961TIP3   OH278297   5.796   1.601   2.971 -0.7315 -0.1677 -0.5981
18961TIP3    H178298   5.877   1.651   2.961 -1.2469  0.4915 -1.6045
18961TIP3    H278299   5.811   1.546   3.048  0.9598 -0.6322 -1.2344
18962TIP3   OH278300   6.183   2.081   5.190 -0.7808 -0.2542  0.3213
18962TIP3    H178301   6.276   2.061   5.179 -0.6264  0.5526  0.0474
18962TIP3    H278302   6.170   2.087   5.284 -0.5384 -0.3291  0.3591
18963TIP3   OH278303   0.546   4.875   4.954  0.1458 -0.2393 -0.2512
18963TIP3    H178304   0.621   4.916   4.998 -0.2189  0.0777  0.0771
18963TIP3    H278305   0.542   4.787   4.992  0.2989 -0.2275 -0.2053
18964TIP3   OH278306   7.292   4.496   5.928 -0.0601 -0.1122 -0.0755
18964TIP3    H178307   7.354   4.462   5.993  0.2066  1.1090  0.3239
18964TIP3    H278308   7.343   4.500   5.847  0.5208  1.2920  0.3482
18965TIP3   OH278309   6.780   4.347   4.831 -0.3561  0.4778 -0.0194
18965TIP3    H178310   6.748   4.311   4.748 -1.8593  1.0450  0.2882
18965TIP3    H278311   6.724   4.306   4.897 -0.9588  2.0662  0.4698
18966TIP3   OH278312   6.821   4.805   1.663 -0.1031  0.6087 -0.1914
18966TIP3    H178313   6.896   4.863   1.656  0.6839 -0.0979  2.0559
18966TIP3    H278314   6.753   4.858   1.705 -0.1206  0.5626 -0.1599
18967TIP3   OH278315   1.013   4.109   5.785 -0.0864 -0.0569 -0.1943
18967TIP3    H178316   1.104   4.135   5.795 -0.2468  0.6231 -0.5017
18967TIP3    H278317   1.007   4.024   5.830  1.0884 -0.9381 -1.6770
18968TIP3   OH278318   2.270   5.737   5.359 -0.5885 -0.1530 -0.4864
18968TIP3    H178319   2.299   5.828   5.352  0.5687 -0.4942 -0.1914
18968TIP3    H278320   2.240   5.715   5.271  2.9173 -0.7479 -1.5986
18969TIP3   OH278321   1.367   0.109   2.599  0.0372  0.3475 -0.1222
18969TIP3    H178322   1.424   0.059   2.658  1.8096  1.3194 -0.9601
18969TIP3    H278323   1.278   0.084   2.624  0.8046 -0.5244  1.8228
18970TIP3   OH278324   3.539   1.112   4.787 -0.2431  0.0625 -0.3868
18970TIP3    H178325   3.592   1.038   4.815 -1.1703 -0.8184 -0.9099
18970TIP3    H278326   3.566   1.128   4.696 -1.2487 -0.7518 -0.8424
18971TIP3   OH278327   7.226   1.451   3.106  1.2267 -0.1810 -0.2728
18971TIP3    H178328   7.156   1.506   3.073  2.0319  1.1125  0.1325
18971TIP3    H278329   7.212   1.366   3.064  0.0797  0.3753 -1.0395
18972TIP3   OH278330   3.007   5.822   4.292  0.3834 -0.3903 -0.2474
18972TIP3    H178331   2.999   5.918   4.295 -0.1477 -0.4575  0.5731
18972TIP3    H278332   2.924   5.790   4.326  0.3301 -1.1502 -1.1038
18973TIP3   OH278333   0.569   5.280   2.465 -0.1791  0.3137  0.5615
18973TIP3    H178334   0.480   5.259   2.493 -1.0107  1.3806 -1.1864
18973TIP3    H278335   0.557   5.342   2.392  1.9398 -0.8461 -0.8070
18974TIP3   OH278336   5.555   4.551   5.521  1.1137  0.4729 -0.7900
18974TIP3    H178337   5.579   4.583   5.608  0.7562 -1.5061  0.0516
18974TIP3    H278338   5.638   4.525   5.480  1.0864 -0.2414 -0.3812
18975TIP3   OH278339   6.949   5.133   5.871 -0.2370  0.4772 -0.1831
18975TIP3    H178340   6.929   5.194   5.943 -0.6327  0.8744 -0.6272
18975TIP3    H278341   7.037   5.159   5.842 -0.8876  1.6357 -1.1679
18976TIP3   OH278342   6.487   5.909   6.128 -0.2855  0.0475  0.1642
18976TIP3    H178343   6.410   5.852   6.123 -0.4236  0.0638  1.8780
18976TIP3    H278344   6.561   5.851   6.108 -0.5457 -0.4505  0.6326
18977TIP3   OH278345   0.006   5.525   4.177 -0.1230  0.4222  0.1462
18977TIP3    H178346   0.101   5.540   4.171 -0.0705  0.1066  0.1537
18977TIP3    H278347  -0.008   5.444   4.127 -0.3221  0.2080  0.5519
18978TIP3   OH278348   0.913   3.164   5.357  0.0100 -0.5487  0.1847
18978TIP3    H178349   0.945   3.218   5.285  0.1630 -1.9664 -0.8306
18978TIP3    H278350   0.820   3.150   5.338 -0.1298 -0.3115  0.6641
18979TIP3   OH278351   1.117   0.933   3.815 -0.0132  0.3452  0.7579
18979TIP3    H178352   1.152   0.935   3.726  0.9081 -2.8890  0.9799
18979TIP3    H278353   1.194   0.925   3.870 -0.7482 -0.4810  1.6710
18980TIP3   OH278354   0.243   5.757   3.893 -0.0399  0.1893  0.2478
18980TIP3    H178355   0.188   5.826   3.854  0.0626  0.2589  0.2276
18980TIP3    H278356   0.297   5.802   3.957  0.8945  0.3261 -0.6350
18981TIP3   OH278357   1.071   6.031   5.583  0.4859  0.0186 -0.2041
18981TIP3    H178358   1.018   6.089   5.638  0.7923  0.4154 -0.3268
18981TIP3    H278359   1.025   5.947   5.585  0.4108  0.0714  0.5429
18982TIP3   OH278360   1.176   5.007  14.378 -0.1227 -0.4724 -0.1988
18982TIP3    H178361   1.137   4.921  14.387  0.3981 -1.0979 -3.2359
18982TIP3    H278362   1.266   4.990  14.349 -0.7106  1.0394 -3.1831
18983TIP3   OH278363   4.474   3.988   3.294 -0.4466 -0.1043 -0.1942
18983TIP3    H178364   4.416   4.056   3.261 -3.0691 -1.7784  0.7498
18983TIP3    H278365   4.561   4.012   3.262 -1.7347  2.2043 -2.0972
18984TIP3   OH278366   4.440   3.627   5.594 -0.8125 -0.0697  0.4247
18984TIP3    H178367   4.378   3.661   5.658 -0.8604 -1.3030  1.0489
18984TIP3    H278368   4.526   3.654   5.626 -0.9178  0.3186  0.3812
18985TIP3   OH278369   0.815   4.051   5.011 -0.7132  0.1426  0.4251
18985TIP3    H178370   0.795   4.143   4.994 -0.5105 -0.2385 -2.2134
18985TIP3    H278371   0.770   4.031   5.093 -0.8976  2.5427  0.9443
18986TIP3   OH278372   5.622   5.875   4.597 -0.0964  0.5906 -0.2422
18986TIP3    H178373   5.610   5.954   4.650  0.8108  0.0619  0.7491
18986TIP3    H278374   5.638   5.908   4.508  0.3585  1.5098  0.1803
18987TIP3   OH278375   6.813   6.171   2.057 -0.2256  0.3403  0.0133
18987TIP3    H178376   6.889   6.167   2.114 -1.1139 -0.7640  1.1573
18987TIP3    H278377   6.836   6.236   1.991  1.0736  1.1644  1.2435
18988TIP3   OH278378   7.285   6.676   4.672  0.1922 -0.3810  0.7010
18988TIP3    H178379   7.231   6.716   4.604  0.5140 -0.3412  0.4682
18988TIP3    H278380   7.299   6.746   4.736  1.9362  0.2970 -0.4028
18989TIP3   OH278381   6.981   3.982   3.210  0.4403 -0.0135  0.1064
18989TIP3    H178382   7.046   3.917   3.186 -0.0610  0.1767 -1.8827
18989TIP3    H278383   7.026   4.040   3.272  2.3373  0.4465 -1.6626
18990TIP3   OH278384   5.153   5.984   1.692 -0.3094 -0.0083 -0.3770
18990TIP3    H178385   5.058   5.988   1.705 -0.1447  0.1585  0.8166
18990TIP3    H278386   5.188   6.044   1.758  0.5808  0.5227 -1.3251
18991TIP3   OH278387   4.744   4.282  14.521  0.0071  0.0547  0.4808
18991TIP3    H178388   4.709   4.237  14.598 -1.1706  0.6582  0.3166
18991TIP3    H278389   4.820   4.230  14.495 -1.6137 -2.1733 -0.0245
18992TIP3   OH278390   3.344   6.110   3.033  0.8257  0.2158  0.0494
18992TIP3    H178391   3.426   6.148   3.063  1.7306 -1.2739 -0.4937
18992TIP3    H278392   3.347   6.019   3.062  0.0799 -0.2730 -1.3461
18993TIP3   OH278393   6.846   4.677   4.567  0.0553 -0.5258  0.5688
18993TIP3    H178394   6.830   4.683   4.473  3.1734 -1.8015 -0.1111
18993TIP3    H278395   6.895   4.757   4.587  2.0523 -1.6852  0.4594
18994TIP3   OH278396   0.039   0.689   2.670  0.1372  0.0257  0.3229
18994TIP3    H178397  -0.023   0.673   2.599  0.9041 -0.1192 -0.3260
18994TIP3    H278398   0.124   0.666   2.632  0.5621  0.0552  1.2571
18995TIP3   OH278399   6.520   6.583   3.093 -0.0716 -0.3072 -0.2282
18995TIP3    H178400   6.570   6.550   3.018 -1.6482 -0.9583 -1.0218
18995TIP3    H278401   6.507   6.506   3.149  0.8604  0.1206  0.5931
18996TIP3   OH278402   5.677   4.857   1.960  0.4453  0.0682  0.2721
18996TIP3    H178403   5.616   4.929   1.944  0.9117 -0.1615 -2.9019
18996TIP3    H278404   5.621   4.782   1.982 -0.1060  1.0051  2.1765
18997TIP3   OH278405   0.305   0.764   2.210 -0.0105  0.2542 -0.2970
18997TIP3    H178406   0.257   0.681   2.211 -1.9971  1.3706  0.1384
18997TIP3    H278407   0.342   0.772   2.298  1.1790 -0.7109 -0.6972
18998TIP3   OH278408   0.037   4.959   5.857  0.3282 -0.0724 -0.1674
18998TIP3    H178409  -0.024   4.892   5.887  0.0153 -0.2256 -1.1176
18998TIP3    H278410  -0.012   5.041   5.867  1.2259  0.1979  2.3642
18999TIP3   OH278411   1.868   5.688   2.861  0.2901  0.3394 -0.0402
18999TIP3    H178412   1.892   5.781   2.862 -0.1297  0.4356  1.5759
18999TIP3    H278413   1.950   5.643   2.841  0.9213  0.9458  1.1208
19000TIP3   OH278414   6.154   5.727   1.713 -0.1859 -0.0144 -0.2292
19000TIP3    H178415   6.102   5.788   1.766  0.5296 -0.0585  0.5245
19000TIP3    H278416   6.242   5.732   1.750  0.2222 -0.3565 -1.1550
19001TIP3   OH278417   2.932   5.980   3.880 -0.0279  0.6303  0.3201
19001TIP3    H178418   3.013   6.019   3.912  1.2931 -1.6861 -0.1266
19001TIP3    H278419   2.869   5.992   3.951  1.0980  1.1517  1.2321
19002TIP3   OH278420   3.765   3.857   4.432 -0.1730 -0.2552  0.1174
19002TIP3    H178421   3.757   3.766   4.403  1.8987 -1.1445  2.2132
19002TIP3    H278422   3.816   3.900   4.364 -1.1194 -0.6536 -0.8610
19003TIP3   OH278423   7.134   4.005   5.622  0.3125 -0.2481 -0.4874
19003TIP3    H178424   7.050   3.970   5.653  0.7888 -2.2185 -1.3300
19003TIP3    H278425   7.177   4.037   5.701 -0.4927 -0.8278  0.1955
19004TIP3   OH278426   4.794   2.631   3.005 -0.1209 -0.1908 -0.0953
19004TIP3    H178427   4.734   2.641   2.931  1.0505  0.9032 -0.9357
19004TIP3    H278428   4.800   2.719   3.043  1.2591 -0.1837 -0.2936
19005TIP3   OH278429   6.736   4.387   4.540  0.3872  0.4003 -0.1060
19005TIP3    H178430   6.769   4.466   4.582  1.1208  1.5899 -2.7661
19005TIP3    H278431   6.669   4.419   4.479  0.6779 -1.0081 -1.1872
19006TIP3   OH278432   6.164   6.379   5.050  0.1501  0.0586 -0.1372
19006TIP3    H178433   6.162   6.307   4.987  2.0358 -0.3088  0.1730
19006TIP3    H278434   6.105   6.444   5.014  0.7811 -0.3728 -2.0196
19007TIP3   OH278435   6.486   4.880   3.784  0.5264  0.2130 -0.2299
19007TIP3    H178436   6.397   4.843   3.779  0.3143  0.7110 -0.1321
19007TIP3    H278437   6.494   4.932   3.705 -0.1524  2.1314  0.9329
19008TIP3   OH278438   6.860   6.859   4.404  0.2706  0.4050 -0.5055
19008TIP3    H178439   6.798   6.798   4.445  2.1164 -0.7487  0.6081
19008TIP3    H278440   6.891   6.914   4.476  1.7369 -0.0708 -0.7585
19009TIP3   OH278441   6.090   5.791   4.100  0.2090  0.1136  0.1522
19009TIP3    H178442   6.039   5.810   4.021  0.9395 -0.9960 -0.6015
19009TIP3    H278443   6.024   5.768   4.166 -0.5166  2.7008  0.3828
19010TIP3   OH278444   1.627   6.203   1.212 -0.1569  0.0447  0.4977
19010TIP3    H178445   1.555   6.215   1.274 -0.9816 -0.6561 -0.3103
19010TIP3    H278446   1.649   6.292   1.184 -0.4591  0.2893  1.0198
19011TIP3   OH278447   0.149   3.624   3.957  0.3815 -0.0916  0.1025
19011TIP3    H178448   0.134   3.636   4.050 -0.9843 -0.7744 -0.0137
19011TIP3    H278449   0.228   3.571   3.951 -0.3861 -1.3398  0.9216
19012TIP3   OH278450   3.911   2.346   5.015  0.1127 -0.0560  0.3128
19012TIP3    H178451   3.853   2.389   5.077  0.2549  1.4848 -0.5824
19012TIP3    H278452   3.873   2.366   4.929  1.6003  0.4588 -0.2466
19013TIP3   OH278453   6.820   4.115   5.297  0.3682 -0.2983  0.6507
19013TIP3    H178454   6.818   4.040   5.357 -0.6862 -1.1270 -0.3887
19013TIP3    H278455   6.885   4.174   5.334  1.9256 -2.1730  0.9944
19014TIP3   OH278456   2.313   6.014   5.439 -0.0534 -0.5119 -0.5098
19014TIP3    H178457   2.327   6.029   5.533 -2.2673 -1.7879  0.0585
19014TIP3    H278458   2.399   5.988   5.406  0.7363 -0.1538  1.1676
19015TIP3   OH278459   5.388   5.670   1.475 -1.1892 -0.1135 -0.1399
19015TIP3    H178460   5.318   5.724   1.438 -0.8927  0.1066 -0.3910
19015TIP3    H278461   5.457   5.733   1.496 -1.3109 -0.2566  0.6871
19016TIP3   OH278462   5.649   5.077   5.178  0.8451 -0.0349  0.0755
19016TIP3    H178463   5.679   5.031   5.099  0.3446  2.3359 -1.5526
19016TIP3    H278464   5.719   5.064   5.242  1.5422 -1.4683 -0.9518
19017TIP3   OH278465   0.582   1.353   2.639 -0.2515  0.2451  0.2866
19017TIP3    H178466   0.493   1.386   2.630 -1.3482 -1.9645  2.4811
19017TIP3    H278467   0.595   1.295   2.564 -1.6147 -1.3879  1.2661
19018TIP3   OH278468   4.793   4.403   3.637  0.0003  0.2394 -0.0050
19018TIP3    H178469   4.849   4.437   3.567  0.2641  1.8569  0.9600
19018TIP3    H278470   4.812   4.310   3.640  2.0697  0.6191 -0.2394
19019TIP3   OH278471   0.679   5.806   4.439 -0.6511  0.6082  0.7503
19019TIP3    H178472   0.629   5.738   4.484 -0.8277  0.9729  1.1160
19019TIP3    H278473   0.764   5.807   4.484 -0.5035  0.3551  0.4796
19020TIP3   OH278474   6.050   5.150   1.628  0.2974  0.0134 -0.6800
19020TIP3    H178475   6.080   5.085   1.692 -1.6343 -0.1409  0.1132
19020TIP3    H278476   6.035   5.229   1.680 -0.1161  0.2346 -1.1340
19021TIP3   OH278477   7.168   6.554   5.965 -0.6129  0.1363 -0.3684
19021TIP3    H178478   7.247   6.606   5.978 -0.2610 -0.3668 -0.4588
19021TIP3    H278479   7.152   6.558   5.870 -1.5215  1.4272 -0.1574
19022TIP3   OH278480   6.100   3.876   2.929  0.1556 -0.0143 -0.2365
19022TIP3    H178481   6.029   3.897   2.868  0.8180 -1.0579 -1.3767
19022TIP3    H278482   6.102   3.780   2.933  0.4059  0.0310  1.0913
19023TIP3   OH278483   6.108   5.296   4.935  0.0442  0.3221  0.8922
19023TIP3    H178484   6.138   5.270   4.848  2.1912  1.8589  1.1338
19023TIP3    H278485   6.013   5.281   4.933  0.5580 -3.4772 -0.3315
19024TIP3   OH278486   0.610   7.226   4.535 -0.0248  0.1863  0.1594
19024TIP3    H178487   0.699   7.254   4.516 -0.2085 -0.4491 -1.7105
19024TIP3    H278488   0.603   7.139   4.497 -0.7842 -0.6789  2.2134
19025TIP3   OH278489   1.402   3.606   5.916  0.8458  0.3436  0.1983
19025TIP3    H178490   1.443   3.538   5.861 -0.4159  0.8493 -1.4044
19025TIP3    H278491   1.474   3.666   5.937  1.9612 -1.4022  1.5388
19026TIP3   OH278492   6.558   4.136   5.189 -0.0429 -0.2898 -0.1711
19026TIP3    H178493   6.564   4.142   5.094  0.1000  1.5671 -0.0574
19026TIP3    H278494   6.649   4.140   5.218 -0.2213  1.4287  0.1608
19027TIP3   OH278495   6.698   5.897   3.878 -0.1289  0.1338  0.1462
19027TIP3    H178496   6.740   5.952   3.945 -1.0243 -0.9321  1.6045
19027TIP3    H278497   6.605   5.917   3.887 -0.3037 -0.4806 -0.3681
19028TIP3   OH278498   4.767   4.988   3.638 -0.2502 -0.4695 -0.2481
19028TIP3    H178499   4.677   4.966   3.613  0.4149 -1.1319 -2.1103
19028TIP3    H278500   4.808   4.904   3.657  0.8242 -0.4776 -2.3950
19029TIP3   OH278501   4.941   5.817   2.873  0.5473 -0.2036 -0.4400
19029TIP3    H178502   4.948   5.726   2.844 -1.7399 -0.4536 -0.2933
19029TIP3    H278503   4.856   5.822   2.916 -0.0044  2.3667 -1.7386
19030TIP3   OH278504   1.911   3.337   3.209  0.1960  0.1517 -0.0090
19030TIP3    H178505   1.821   3.335   3.242  0.6250  0.7817  1.2224
19030TIP3    H278506   1.925   3.429   3.185  0.1777 -0.1384 -1.1404
19031TIP3   OH278507   5.127   7.176   0.426 -0.4869 -0.0852 -0.1967
19031TIP3    H178508   5.037   7.207   0.415 -0.2845  1.2548  1.5299
19031TIP3    H278509   5.157   7.154   0.338 -1.8955  1.2256 -1.0287
19032TIP3   OH278510   7.293   5.544   1.566  0.0455 -0.2956 -0.0267
19032TIP3    H178511   7.249   5.629   1.566  1.0397  0.2719 -3.5513
19032TIP3    H278512   7.222   5.481   1.560 -0.5565  0.3849 -0.1399
19033TIP3   OH278513   1.214   7.035   3.464 -0.4099 -0.1151  0.2111
19033TIP3    H178514   1.303   7.064   3.445 -0.9741 -0.4145 -3.1858
19033TIP3    H278515   1.168   7.115   3.491  0.1522  0.6195 -0.9471
19034TIP3   OH278516   6.524   3.458   5.132 -0.6743 -0.7598  0.2546
19034TIP3    H178517   6.586   3.521   5.096 -2.2332 -0.0228 -1.1863
19034TIP3    H278518   6.573   3.375   5.135  1.1611  0.3453  1.5271
19035TIP3   OH278519   6.562   4.607   6.111  0.1587  0.2228  0.4494
19035TIP3    H178520   6.560   4.516   6.139 -0.8135  0.4990  1.3239
19035TIP3    H278521   6.499   4.612   6.039  2.1753 -0.3491 -1.3807
19036TIP3   OH278522   1.535   0.087   2.361 -0.0581 -0.2241 -0.5759
19036TIP3    H178523   1.544  -0.006   2.385  0.9049  0.6724  2.8722
19036TIP3    H278524   1.468   0.120   2.422  0.3842  1.5712 -1.0431
19037TIP3   OH278525   6.153   0.330   2.312  0.2647 -0.6114  0.7399
19037TIP3    H178526   6.143   0.242   2.275  1.5634  0.1493 -1.5216
19037TIP3    H278527   6.240   0.329   2.352  1.4441  0.4350 -1.6938
19038TIP3   OH278528   0.151   0.729   5.832 -0.2235  0.1295 -0.0799
19038TIP3    H178529   0.233   0.681   5.834 -0.7082 -0.9096 -2.3122
19038TIP3    H278530   0.086   0.664   5.803 -1.2962  1.5772 -1.0562
19039TIP3   OH278531   5.085   4.341   4.069 -0.4279 -0.2691 -0.2369
19039TIP3    H178532   5.121   4.339   4.157  0.8507 -2.9119 -0.7801
19039TIP3    H278533   5.157   4.370   4.014 -1.3281  1.7388 -0.3947
19040TIP3   OH278534   4.282   5.029   3.486 -0.4759 -0.1198 -0.2924
19040TIP3    H178535   4.231   5.005   3.564 -0.8485  1.1652 -0.1294
19040TIP3    H278536   4.230   5.098   3.444  1.0340  1.0864 -0.2197
19041TIP3   OH278537   5.731   3.248   4.995  0.0457 -0.6992 -0.6616
19041TIP3    H178538   5.782   3.292   5.063 -1.3623 -1.4211  0.8925
19041TIP3    H278539   5.714   3.161   5.031 -4.0909  0.2238 -0.1871
19042TIP3   OH278540   7.181   5.753   4.086 -0.3566 -0.5418  0.2015
19042TIP3    H178541   7.215   5.663   4.093 -1.0315 -0.8713 -0.7049
19042TIP3    H278542   7.160   5.778   4.176  0.0605 -1.2037  0.4870
19043TIP3   OH278543   0.243   6.176   3.112 -0.1851 -0.1774 -0.7854
19043TIP3    H178544   0.217   6.264   3.139  1.8402 -0.4210  2.1488
19043TIP3    H278545   0.339   6.181   3.105  0.2828 -2.8987  2.4776
19044TIP3   OH278546   6.642   3.586   4.344  0.3194  0.3777 -0.0047
19044TIP3    H178547   6.568   3.613   4.290 -0.0059  0.3737  0.4386
19044TIP3    H278548   6.619   3.498   4.373 -0.5112  1.2089  1.9341
19045TIP3   OH278549   5.977   6.620   5.380 -0.3928 -0.2017  0.4159
19045TIP3    H178550   6.024   6.590   5.458 -0.9313 -1.0867  0.4153
19045TIP3    H278551   5.888   6.637   5.411 -0.4136  0.1779  0.1479
19046TIP3   OH278552   4.649   0.685   4.340  0.7668 -0.4765  0.3685
19046TIP3    H178553   4.672   0.776   4.359  1.7243 -0.5669 -0.3301
19046TIP3    H278554   4.694   0.634   4.407 -0.1369 -0.4085  1.0352
19047TIP3   OH278555   0.955   0.102   5.596 -0.3224 -0.4681 -0.3340
19047TIP3    H178556   0.950   0.160   5.672  0.3612  0.2351 -0.8192
19047TIP3    H278557   0.966   0.161   5.522 -1.2166 -1.1384 -1.0117
19048TIP3   OH278558   4.282   4.515   4.359 -0.2059  0.1297  0.5206
19048TIP3    H178559   4.233   4.528   4.440 -2.0585  0.3715 -0.6055
19048TIP3    H278560   4.335   4.437   4.376 -1.4748 -0.5475  1.5625
19049TIP3   OH278561   5.208   4.458   1.363 -0.1289  0.1030  0.2255
19049TIP3    H178562   5.187   4.546   1.396  0.8097  0.3611  0.1530
19049TIP3    H278563   5.274   4.425   1.424 -1.5465 -1.1536  1.1175
19050TIP3   OH278564   5.126   5.382   0.912 -0.0162  0.0279  0.0099
19050TIP3    H178565   5.110   5.297   0.873  2.1670 -0.8197  0.8870
19050TIP3    H278566   5.160   5.436   0.841 -1.8967  0.3604 -0.6700
19051TIP3   OH278567   7.110   3.551   4.556 -0.5953  0.0019 -0.4168
19051TIP3    H178568   7.033   3.509   4.594 -0.7923  0.8741  0.1666
19051TIP3    H278569   7.076   3.607   4.487 -0.7935  2.4446  1.5882
19052TIP3   OH278570   4.032   1.129   4.514 -0.6746 -0.3337 -0.0778
19052TIP3    H178571   4.051   1.046   4.560 -1.9934  1.0050  3.0170
19052TIP3    H278572   3.982   1.102   4.437  1.1815 -2.6333 -0.5565
19053TIP3   OH278573   4.895   4.443   5.558 -0.1634  0.0147 -0.1379
19053TIP3    H178574   4.882   4.360   5.605  0.4887 -0.1725 -0.2734
19053TIP3    H278575   4.978   4.431   5.512 -1.3063 -0.1815 -2.1630
19054TIP3   OH278576   0.020   1.197   1.828 -0.3438 -0.0419 -0.2116
19054TIP3    H178577   0.065   1.267   1.875 -0.5636 -0.2391  0.2930
19054TIP3    H278578  -0.036   1.242   1.765 -0.2569  0.2257 -0.0982
19055TIP3   OH278579   6.902   3.063   2.875 -0.8311  0.1869  0.1084
19055TIP3    H178580   6.871   2.974   2.887  0.1787 -0.2712 -0.6610
19055TIP3    H278581   6.827   3.109   2.835 -1.2379 -0.3825  0.2145
19056TIP3   OH278582   4.633   2.977   5.475 -0.1045  0.5020  0.0138
19056TIP3    H178583   4.720   2.975   5.436  0.0633 -2.9395  0.4343
19056TIP3    H278584   4.643   3.030   5.554  2.3648 -2.2658  1.6451
19057TIP3   OH278585   1.993   3.690   3.727 -0.1724  0.2405  0.2300
19057TIP3    H178586   1.974   3.630   3.656  3.5324 -2.7370  1.5925
19057TIP3    H278587   2.049   3.757   3.688  1.3118 -1.0259  0.1356
19058TIP3   OH278588   7.228   3.850   4.537 -0.0497 -0.2684 -0.6166
19058TIP3    H178589   7.169   3.818   4.469  0.7630 -1.5650 -0.7184
19058TIP3    H278590   7.217   3.788   4.609 -0.8871  1.0821  0.4505
19059TIP3   OH278591   0.736   3.511   3.983  0.4205  0.3110 -0.1984
19059TIP3    H178592   0.763   3.592   3.941 -0.8523  0.4705 -0.7207
19059TIP3    H278593   0.693   3.460   3.914  1.6114 -1.0177  0.0063
19060TIP3   OH278594   6.451   5.510   5.314  1.2140 -0.4214 -0.4031
19060TIP3    H178595   6.485   5.421   5.326  0.6178 -0.6289 -0.2541
19060TIP3    H278596   6.384   5.501   5.246  1.2839 -0.0540 -0.5189
19061TIP3   OH278597   0.534   3.227   5.602  0.0879 -0.1029 -0.5119
19061TIP3    H178598   0.489   3.278   5.669  0.9925 -0.8217  0.6754
19061TIP3    H278599   0.575   3.155   5.651 -1.6342 -2.2979 -2.2010
19062TIP3   OH278600   6.313   5.596   4.310 -0.4484 -0.0464 -0.3041
19062TIP3    H178601   6.236   5.576   4.363 -0.4675  0.8796  0.0233
19062TIP3    H278602   6.295   5.554   4.226 -0.7214 -0.9461  0.1962
19063TIP3   OH278603   2.779   0.951   5.132  0.0799  0.1409  0.1235
19063TIP3    H178604   2.874   0.950   5.144  0.1131 -0.5549 -0.1195
19063TIP3    H278605   2.765   0.905   5.049 -0.3660  1.7497 -0.7168
19064TIP3   OH278606   2.713   1.699   2.629  0.0320 -0.2937 -0.0454
19064TIP3    H178607   2.785   1.747   2.588 -0.6856  0.1847 -0.7729
19064TIP3    H278608   2.692   1.629   2.567  0.2962 -0.8221  0.4620
19065TIP3   OH278609   6.892   1.155   4.358 -0.4017  0.1888  0.3021
19065TIP3    H178610   6.947   1.225   4.323  0.6973 -0.6358  0.3754
19065TIP3    H278611   6.803   1.190   4.351 -0.0731  0.6548 -1.8941
19066TIP3   OH278612   2.032   1.133   5.260  0.3331 -0.0332  0.0212
19066TIP3    H178613   2.077   1.093   5.186 -0.0345  0.5800 -0.5422
19066TIP3    H278614   1.966   1.069   5.286  0.5038 -0.2739 -0.1429
19067TIP3   OH278615   1.687   0.336   4.361 -0.0619 -0.4426  0.1058
19067TIP3    H178616   1.768   0.376   4.329 -1.2954  0.3381 -2.1312
19067TIP3    H278617   1.625   0.409   4.367 -1.1381 -1.3357 -0.0427
19068TIP3   OH278618   1.512   5.076   2.834 -0.2534 -0.2076 -0.3672
19068TIP3    H178619   1.473   5.003   2.787 -1.0534  0.6708 -1.0910
19068TIP3    H278620   1.445   5.145   2.830  2.0257  1.9564 -3.1675
19069TIP3   OH278621   6.761   0.519   1.858 -1.0472 -0.6081  0.2929
19069TIP3    H178622   6.723   0.602   1.830 -0.8850 -1.3984 -2.4302
19069TIP3    H278623   6.691   0.475   1.906 -1.3897  0.7639  1.0630
19070TIP3   OH278624   0.324   6.766   4.011  0.1868  0.1288 -0.1567
19070TIP3    H178625   0.263   6.694   3.998 -0.3850  0.5060  0.4166
19070TIP3    H278626   0.269   6.844   4.019  0.7579  0.5262 -0.0659
19071TIP3   OH278627   0.844   4.776   2.853  0.2988 -0.4951 -0.8420
19071TIP3    H178628   0.808   4.721   2.923 -1.5212 -0.1481 -1.4683
19071TIP3    H278629   0.876   4.713   2.788 -1.2081 -0.8568 -1.2691
19072TIP3   OH278630   0.902   0.263   4.732 -0.3385 -0.0861  0.3633
19072TIP3    H178631   0.818   0.285   4.770  0.5693  2.0555  1.1944
19072TIP3    H278632   0.949   0.217   4.802  0.0037  0.7072  0.6633
19073TIP3   OH278633   3.840   6.631   4.773 -0.1177  0.4304 -0.2428
19073TIP3    H178634   3.829   6.536   4.778 -0.4471  0.5166  0.9770
19073TIP3    H278635   3.935   6.644   4.777 -0.1103  0.1840  0.4260
19074TIP3   OH278636   3.589   5.484   3.591  0.2362 -0.0254 -0.2129
19074TIP3    H178637   3.592   5.444   3.503  2.2656  0.5952 -0.4535
19074TIP3    H278638   3.660   5.440   3.639  1.6309  2.3028 -0.0725
19075TIP3   OH278639   5.834   6.980   3.377  0.2424 -0.5624  0.5155
19075TIP3    H178640   5.857   7.071   3.396  0.4499 -0.7176  1.0272
19075TIP3    H278641   5.902   6.929   3.421 -0.5919 -1.0070  1.2953
19076TIP3   OH278642   5.862   4.790   4.822  0.7936 -0.2676 -0.6491
19076TIP3    H178643   5.829   4.755   4.739 -0.3731 -0.4263 -0.1238
19076TIP3    H278644   5.923   4.723   4.853  0.6121 -0.5901 -0.9767
19077TIP3   OH278645   2.309   6.658   4.048  0.8420 -0.1693  0.0771
19077TIP3    H178646   2.215   6.672   4.034  1.3185  1.6754 -1.6004
19077TIP3    H278647   2.330   6.710   4.125  0.1717 -1.9682  1.4900
19078TIP3   OH278648   7.009   0.022   3.841  0.6653  0.3995  0.3746
19078TIP3    H178649   6.985  -0.068   3.817 -1.2411  1.2275 -0.9170
19078TIP3    H278650   6.984   0.030   3.933  1.0000 -0.4239  0.5448
19079TIP3   OH278651   5.818   6.642   1.313 -0.1224 -0.4130  0.0730
19079TIP3    H178652   5.744   6.616   1.258 -0.0482  1.2487 -0.8291
19079TIP3    H278653   5.895   6.615   1.264 -0.1002 -1.4835  0.6785
19080TIP3   OH278654   1.253   5.657   4.413  0.1837  0.2321  0.2135
19080TIP3    H178655   1.257   5.729   4.476 -0.5872 -1.4578  2.2662
19080TIP3    H278656   1.320   5.595   4.444 -1.9947 -1.8233  0.9638
19081TIP3   OH278657   1.933   6.669   5.962 -0.8624  0.1269 -0.2184
19081TIP3    H178658   1.998   6.599   5.949 -2.4667 -1.3539 -0.4550
19081TIP3    H278659   1.980   6.749   5.939  1.6993 -0.6029  2.1279
19082TIP3   OH278660   6.668   0.453   1.261 -0.1902 -0.5686  0.2441
19082TIP3    H178661   6.583   0.451   1.217 -0.1891 -1.1330  0.2607
19082TIP3    H278662   6.650   0.425   1.351 -0.2774  1.1213  0.7559
19083TIP3   OH278663   0.748   1.651   5.844  0.3079  0.0918 -0.5230
19083TIP3    H178664   0.722   1.743   5.843  0.6425  0.2125  0.8659
19083TIP3    H278665   0.731   1.622   5.934  2.8305 -0.4269 -0.1638
19084TIP3   OH278666   0.368   5.602   2.793  0.3029  0.1721  0.3342
19084TIP3    H178667   0.460   5.619   2.810 -0.4495  2.6884  2.1530
19084TIP3    H278668   0.321   5.661   2.852 -2.4597  0.0635 -1.6474
19085TIP3   OH278669   0.638   0.112   5.126 -0.1035  0.1371 -0.1141
19085TIP3    H178670   0.694   0.171   5.176  0.7096 -0.3964 -0.3903
19085TIP3    H278671   0.565   0.092   5.185  0.9610 -0.6727  0.9523
19086TIP3   OH278672   7.124   3.988   2.671  0.4095  0.2579  0.3776
19086TIP3    H178673   7.090   4.076   2.688 -0.3322 -0.0690  0.6144
19086TIP3    H278674   7.075   3.932   2.731  0.2924 -0.4259 -0.3525
19087TIP3   OH278675   0.553   1.564   4.684 -0.5331 -0.2884  0.0240
19087TIP3    H178676   0.635   1.611   4.702  0.6200 -1.2877 -2.3947
19087TIP3    H278677   0.580   1.472   4.676 -1.6488 -0.4489 -2.2364
19088TIP3   OH278678   2.887   2.621  15.577 -0.5203  0.0931  0.3174
19088TIP3    H178679   2.878   2.631  15.482  0.3309 -1.4808  0.0325
19088TIP3    H278680   2.965   2.672  15.599 -0.6762  0.4014  0.1593
19089TIP3   OH278681   2.416   1.293  15.214  0.4581 -0.4437 -0.4439
19089TIP3    H178682   2.329   1.277  15.251  1.3258  1.8455  2.7884
19089TIP3    H278683   2.399   1.350  15.138 -0.7623  1.5980  1.3071
19090TIP3   OH278684   6.319   5.504   3.529  0.4914 -0.5624 -0.2355
19090TIP3    H178685   6.259   5.517   3.602  1.3538  0.7449  0.2514
19090TIP3    H278686   6.400   5.473   3.570  1.4359  1.5119 -0.4641
19091TIP3   OH278687   6.705   1.266   3.027 -0.1097 -0.0535 -0.1361
19091TIP3    H178688   6.684   1.352   3.062  1.5183  0.1966  0.2769
19091TIP3    H278689   6.668   1.266   2.939  0.6034  1.3886 -0.4486
19092TIP3   OH278690   0.896   0.584   4.579  0.1365 -0.5860  0.0004
19092TIP3    H178691   0.828   0.610   4.517 -0.0056  1.3144  0.9070
19092TIP3    H278692   0.847   0.551   4.655  0.2420 -0.6991  0.0179
19093TIP3   OH278693   1.926   4.986   5.312 -0.0832  0.4898  0.5876
19093TIP3    H178694   1.866   4.939   5.370 -0.7258  1.1006  0.4366
19093TIP3    H278695   1.885   4.980   5.225  0.3651  0.4247  0.3823
19094TIP3   OH278696   0.130   6.894   1.188  0.1281  0.0851  0.8732
19094TIP3    H178697   0.053   6.898   1.132  1.2808  0.2634 -0.7128
19094TIP3    H278698   0.134   6.981   1.229  0.9647  0.9651 -1.0381
19095TIP3   OH278699   2.539   6.915   5.978 -0.0735  0.2959 -0.4446
19095TIP3    H178700   2.586   6.879   6.054 -1.4826 -2.1612 -0.7240
19095TIP3    H278701   2.468   6.967   6.017 -0.2625 -0.2349 -0.0785
19096TIP3   OH278702   1.581   4.884   3.024  0.5982  0.1391 -0.2958
19096TIP3    H178703   1.566   4.967   2.978  2.6267  0.2541 -0.7985
19096TIP3    H278704   1.624   4.828   2.959 -1.5962 -1.6542 -0.2469
19097TIP3   OH278705   0.196   5.327   4.345 -0.0960 -0.4872 -0.0040
19097TIP3    H178706   0.187   5.422   4.335 -0.6243 -0.5096  0.2714
19097TIP3    H278707   0.170   5.310   4.435  2.7267 -0.5320  0.8617
19098TIP3   OH278708   6.773   3.855   4.287 -0.3074  0.1912  0.1547
19098TIP3    H178709   6.709   3.791   4.320  0.3100 -0.9628 -0.8626
19098TIP3    H278710   6.768   3.928   4.349  0.0240 -1.4642  2.1658
19099TIP3   OH278711   3.051   6.499   4.977  0.5717  0.6924 -0.4467
19099TIP3    H178712   3.053   6.579   4.925  1.7247  0.7602 -0.3095
19099TIP3    H278713   3.009   6.434   4.920 -0.3517  1.3854 -0.5592
19100TIP3   OH278714   0.614   6.222   5.756 -0.6266  0.5675  0.0862
19100TIP3    H178715   0.640   6.282   5.826  0.9603  0.0028 -0.0010
19100TIP3    H278716   0.666   6.144   5.772  0.9177  0.9919 -2.6375
19101TIP3   OH278717   0.595   4.526   2.439 -0.1116  0.4746  0.1561
19101TIP3    H178718   0.532   4.588   2.476 -1.9075  0.1629 -2.3152
19101TIP3    H278719   0.616   4.467   2.512 -2.7704  0.5042  0.9801
19102TIP3   OH278720   6.505   5.482   4.011 -0.3616  0.4205  0.0500
19102TIP3    H178721   6.592   5.509   3.981  0.2380  1.3677  2.5016
19102TIP3    H278722   6.455   5.564   4.012 -1.2647 -0.1022 -1.2265
19103TIP3   OH278723   6.699   6.472   2.875 -0.1710  0.3196  0.2156
19103TIP3    H178724   6.775   6.419   2.851  0.0712  0.9372 -0.4128
19103TIP3    H278725   6.657   6.493   2.791 -1.8967 -1.2579  0.6337
19104TIP3   OH278726   1.307   0.896   5.233 -0.3146 -0.2434  0.3594
19104TIP3    H178727   1.341   0.818   5.188  1.6702 -0.4722  2.1247
19104TIP3    H278728   1.319   0.876   5.326 -1.1636  1.5831  0.8805
19105TIP3   OH278729   2.945   5.654   5.224 -0.1419 -0.1548 -0.4746
19105TIP3    H178730   2.899   5.642   5.307 -2.1609  1.2004 -1.3631
19105TIP3    H278731   2.944   5.568   5.183 -0.3563 -0.5208  0.2877
19106TIP3   OH278732   0.963   6.412   2.844  0.1323 -0.7185 -0.0564
19106TIP3    H178733   0.948   6.503   2.872 -0.1274 -0.7580 -0.0671
19106TIP3    H278734   1.044   6.387   2.889  1.8095  0.4629 -2.3142
19107TIP3   OH278735   1.261   4.960   4.076 -0.3351 -0.0330  0.0203
19107TIP3    H178736   1.323   4.998   4.014  0.4334 -0.5906  0.4424
19107TIP3    H278737   1.203   5.032   4.100 -1.0144  0.0546 -1.7906
19108TIP3   OH278738   0.721   7.251   4.912  0.0070 -0.1821 -0.7769
19108TIP3    H178739   0.636   7.245   4.868  0.3870  2.1363 -1.8994
19108TIP3    H278740   0.704   7.303   4.990  0.0605 -1.1730 -0.1029
19109TIP3   OH278741   6.385   0.764   1.304 -0.1804  0.9667 -0.3280
19109TIP3    H178742   6.480   0.750   1.299 -0.6334 -1.7197 -2.5368
19109TIP3    H278743   6.356   0.765   1.212 -2.6776 -1.3116  0.3899
19110TIP3   OH278744   1.754   5.768   2.457 -0.3067  0.4555 -0.1339
19110TIP3    H178745   1.704   5.796   2.534  1.2984 -0.2030  1.1764
19110TIP3    H278746   1.767   5.674   2.469 -0.1271  0.3299 -1.2557
19111TIP3   OH278747   1.451   7.038   6.016 -0.0367  0.3997  0.2033
19111TIP3    H178748   1.414   7.115   5.973  0.7468  0.8981  0.4015
19111TIP3    H278749   1.511   7.074   6.081 -0.3824 -0.3705  0.9529
19112TIP3   OH278750   1.814   4.826   4.438  0.3500  0.2730  0.1294
19112TIP3    H178751   1.807   4.732   4.452 -0.8252  0.2701 -0.4179
19112TIP3    H278752   1.894   4.837   4.386 -0.0064 -0.5119 -0.5962
19113TIP3   OH278753   0.120   6.422   2.744  0.1453  0.1986  0.0352
19113TIP3    H178754   0.158   6.368   2.676  0.5215  1.0556 -0.4496
19113TIP3    H278755   0.187   6.489   2.761 -0.1656  0.3035  0.8627
19114TIP3   OH278756   2.880   6.945   5.285  0.3798 -0.1875  0.5235
19114TIP3    H178757   2.829   6.897   5.351  0.5766  0.0844  0.8722
19114TIP3    H278758   2.943   6.996   5.335  1.3784 -0.9648  0.0594
19115TIP3   OH278759   2.655   3.996   4.413 -0.1526 -0.4732  0.1641
19115TIP3    H178760   2.710   3.989   4.492  0.1357  1.5882  0.1854
19115TIP3    H278761   2.717   3.991   4.341 -0.1357  0.1333  0.1381
19116TIP3   OH278762   4.462   6.630   3.585  0.4648 -0.3087 -0.3907
19116TIP3    H178763   4.399   6.563   3.558 -0.2694  0.5370 -0.8073
19116TIP3    H278764   4.535   6.581   3.621  0.2605 -1.3657 -1.3968
19117TIP3   OH278765   0.411   2.467   1.988 -0.2688 -0.3103 -0.0624
19117TIP3    H178766   0.477   2.429   2.047 -0.6360  0.1586  0.6571
19117TIP3    H278767   0.401   2.557   2.019  0.1651  0.2050 -1.3842
19118TIP3   OH278768   1.981   0.756   0.517  0.5626 -0.2441 -0.1078
19118TIP3    H178769   2.068   0.784   0.487  0.6382 -0.2598  0.0916
19118TIP3    H278770   1.935   0.730   0.438 -0.1823  2.2644 -0.5457
19119TIP3   OH278771   2.777   5.057   5.565 -0.5964  0.1984  0.1596
19119TIP3    H178772   2.824   5.012   5.635  0.2534 -1.7390 -1.6112
19119TIP3    H278773   2.840   5.121   5.532 -1.0959  1.3127  1.3122
19120TIP3   OH278774   0.093   5.938   5.005  0.1216  0.2567  0.5690
19120TIP3    H178775   0.145   5.931   4.925 -1.0059  0.5243 -0.1960
19120TIP3    H278776   0.145   5.892   5.071  1.7834  1.3761  0.0558
19121TIP3   OH278777   0.419   0.218   5.499 -0.4824 -0.0538 -0.0253
19121TIP3    H178778   0.413   0.131   5.461 -0.6879  0.7081 -1.7954
19121TIP3    H278779   0.329   0.243   5.515 -0.3143 -1.1625  2.8830
19122TIP3   OH278780   6.056   6.141   4.830 -0.2424 -0.1633  0.0913
19122TIP3    H178781   6.115   6.196   4.778 -0.0670 -0.0763  0.3814
19122TIP3    H278782   5.968   6.171   4.805 -0.1792 -0.6488 -0.7219
19123TIP3   OH278783   1.170   0.394   6.078 -0.0044  0.1244  0.2085
19123TIP3    H178784   1.230   0.401   6.152  2.4329  2.0592 -1.8378
19123TIP3    H278785   1.200   0.316   6.031 -0.3747 -0.0471  0.2537
19124TIP3   OH278786   0.709   1.040   3.479 -0.3793 -0.3931 -0.3504
19124TIP3    H178787   0.771   1.045   3.552 -1.0626  0.4757  0.1789
19124TIP3    H278788   0.672   1.128   3.472 -1.5203 -0.8869 -0.6861
19125TIP3   OH278789   0.544   5.084   3.199  0.3328 -0.4393 -0.0634
19125TIP3    H178790   0.450   5.083   3.183  0.5914 -0.0315 -1.7122
19125TIP3    H278791   0.578   5.012   3.146  1.3725  1.7738 -2.5048
19126TIP3   OH278792   7.252   5.703   1.958  0.2745 -0.4538  0.0999
19126TIP3    H178793   7.166   5.673   1.989  0.7930 -1.7288  0.3421
19126TIP3    H278794   7.309   5.627   1.969  1.3448  0.2601 -0.4453
19127TIP3   OH278795   6.376   4.394   3.385 -0.2070  0.6535 -0.0673
19127TIP3    H178796   6.330   4.436   3.458 -1.5238 -0.2888 -0.3376
19127TIP3    H278797   6.323   4.416   3.308 -0.6338 -1.0916 -0.2834
19128TIP3   OH278798   1.368   5.975   3.810 -0.1311 -0.0918  0.3978
19128TIP3    H178799   1.276   5.950   3.799  0.0315 -0.1712 -0.7837
19128TIP3    H278800   1.391   5.942   3.897 -0.7198 -1.6169 -0.0073
19129TIP3   OH278801   1.903   5.223   5.466  0.0086  0.2274  0.1261
19129TIP3    H178802   1.935   5.280   5.396  2.4739 -0.1070  0.9308
19129TIP3    H278803   1.897   5.136   5.426 -1.0316  0.4934 -0.3274
19130TIP3   OH278804   7.302   2.129   1.513 -0.2253 -0.0465 -0.2696
19130TIP3    H178805   7.383   2.113   1.464  0.2800  0.7745  0.2823
19130TIP3    H278806   7.266   2.042   1.531  1.7149 -0.4927  1.4758
19131TIP3   OH278807   5.902   0.271   2.894  0.3251 -0.2427  0.2603
19131TIP3    H178808   5.925   0.359   2.926  0.8572 -0.4926  0.5770
19131TIP3    H278809   5.942   0.267   2.806 -2.0971  0.8578 -0.9317
19132TIP3   OH278810   5.968   0.058   5.233 -0.0199  0.0042 -0.5802
19132TIP3    H178811   5.938   0.130   5.290  0.0623 -1.9166  1.9763
19132TIP3    H278812   5.898  -0.007   5.237  0.9574 -1.0910 -0.9420
19133TIP3   OH278813   1.258   0.926   3.584  0.3916 -0.1100 -0.4247
19133TIP3    H178814   1.270   0.982   3.507 -1.6155 -1.0990 -1.5001
19133TIP3    H278815   1.243   0.838   3.547 -0.2115 -0.6683  1.1084
19134TIP3   OH278816   6.902   6.456   5.957 -0.5239  0.1446 -0.1943
19134TIP3    H178817   6.986   6.472   6.002 -0.7785 -1.8812  1.0886
19134TIP3    H278818   6.849   6.532   5.979  1.3803  2.1032 -2.0980
19135TIP3   OH278819   5.165   5.747   4.949 -0.2435 -0.0995  0.1083
19135TIP3    H178820   5.220   5.749   5.027 -0.4040  1.4480  0.1869
19135TIP3    H278821   5.227   5.756   4.876 -0.2198 -0.2451  0.1091
19136TIP3   OH278822   6.714   6.662   5.984  0.0322 -0.1782 -0.0465
19136TIP3    H178823   6.699   6.741   6.036  1.5889  2.4174 -3.3484
19136TIP3    H278824   6.633   6.651   5.934 -0.2602 -0.7882  0.5625
19137TIP3   OH278825   1.082   7.261   4.051 -0.1136  0.6023 -0.6964
19137TIP3    H178826   1.053   7.321   4.120  0.2288 -0.5398  0.4583
19137TIP3    H278827   1.145   7.203   4.094 -0.0962 -0.2931 -1.8975
19138TIP3   OH278828   3.495   5.861   5.452 -0.3805  0.5624  0.2124
19138TIP3    H178829   3.562   5.793   5.458 -0.4819  0.4552  0.1148
19138TIP3    H278830   3.480   5.887   5.543 -0.4793  0.3210  0.2648
19139TIP3   OH278831   0.160   0.901   5.444  0.3686  0.5815 -0.3470
19139TIP3    H178832   0.077   0.866   5.475 -0.7486  3.2034 -0.2702
19139TIP3    H278833   0.209   0.923   5.524  0.8144 -0.2191 -0.3967
19140TIP3   OH278834   0.834   3.342   5.584  0.0275  0.3511  0.1177
19140TIP3    H178835   0.846   3.278   5.655 -0.2645  0.1403 -0.0184
19140TIP3    H278836   0.883   3.306   5.510 -1.5696 -0.6173 -0.5018
19141TIP3   OH278837   0.795   6.733   5.345  0.0651 -0.0875  0.0160
19141TIP3    H178838   0.832   6.820   5.336 -0.7668  0.2547 -0.1438
19141TIP3    H278839   0.724   6.730   5.280 -0.9344 -0.3278  1.1092
19142TIP3   OH278840   7.016   5.420   4.194 -0.6149 -0.0368 -0.2803
19142TIP3    H178841   6.921   5.419   4.192 -0.6095 -0.5532 -0.1675
19142TIP3    H278842   7.041   5.342   4.243 -0.1846  1.3873  1.8391
19143TIP3   OH278843   5.343   6.120   3.966 -0.9198  0.4185  0.1091
19143TIP3    H178844   5.409   6.095   4.031 -0.6586 -1.2525 -0.7639
19143TIP3    H278845   5.390   6.119   3.883 -1.1920  2.7657 -0.1127
19144TIP3   OH278846   4.273   2.111   4.078  0.0608 -0.3252  0.5674
19144TIP3    H178847   4.264   2.069   3.992 -0.1088  1.2517 -0.1956
19144TIP3    H278848   4.367   2.115   4.093  0.0694 -1.3409  0.8348
19145TIP3   OH278849   2.582   1.161   4.842 -0.0091 -0.2086  0.2874
19145TIP3    H178850   2.616   1.185   4.928  1.6426 -1.5637  0.0391
19145TIP3    H278851   2.609   1.233   4.785 -0.6190  0.4161  0.7683
19146TIP3   OH278852   0.000   1.590  15.430  0.1806 -0.0595  0.1074
19146TIP3    H178853   0.006   1.608  15.524  0.0943 -1.9027  0.4746
19146TIP3    H278854  -0.054   1.512  15.423  0.8912 -0.4437 -1.4157
19147TIP3   OH278855   2.314   4.980   5.484 -0.4251  0.5424 -0.3103
19147TIP3    H178856   2.237   4.959   5.537 -0.3611  0.3501 -0.2947
19147TIP3    H278857   2.380   4.916   5.510  0.1144  1.4069  0.5051
19148TIP3   OH278858   1.062   5.163   4.077  0.0138 -0.1540  0.0158
19148TIP3    H178859   0.993   5.148   4.012  0.1907 -0.0543 -0.1958
19148TIP3    H278860   1.016   5.202   4.152 -0.3604 -1.2298  0.3563
19149TIP3   OH278861   2.649   2.000   5.287  0.2332  0.1324  0.7706
19149TIP3    H178862   2.693   2.001   5.372 -0.7492 -1.3633  1.3231
19149TIP3    H278863   2.630   2.092   5.268  2.4179  0.6992  1.1014
19150TIP3   OH278864   6.733   6.105   4.718 -0.4237  0.1073  0.3492
19150TIP3    H178865   6.743   6.136   4.628 -1.1317  0.7760  0.5030
19150TIP3    H278866   6.758   6.180   4.773 -1.0588  0.0561  0.7139
19151TIP3   OH278867   1.504   1.115   6.263  0.2482  0.3266 -0.2394
19151TIP3    H178868   1.569   1.157   6.320  0.8763  0.8065 -1.2831
19151TIP3    H278869   1.472   1.186   6.207  0.5479 -0.3661 -1.3155
19152TIP3   OH278870   3.470   0.074   0.973  0.2417  0.3998  0.1002
19152TIP3    H178871   3.443   0.166   0.972  0.7143  0.5598 -3.0787
19152TIP3    H278872   3.565   0.076   0.985  0.5732  0.4668 -2.3556
19153TIP3   OH278873   6.243   6.286   1.864  0.4300 -0.5140 -0.4962
19153TIP3    H178874   6.151   6.311   1.866  1.4295  3.5787 -1.9517
19153TIP3    H278875   6.254   6.241   1.780 -0.6402 -3.0662  0.6627
19154TIP3   OH278876   3.017   1.429   5.056 -0.0562 -0.8434 -0.2974
19154TIP3    H178877   2.927   1.431   5.026 -0.5650 -2.4565  0.9913
19154TIP3    H278878   3.013   1.460   5.147  1.0763  1.5436 -1.0231
19155TIP3   OH278879   0.157   6.341   5.160 -0.0230  0.1592  0.1264
19155TIP3    H178880   0.145   6.247   5.149  2.5654 -0.7214  3.7615
19155TIP3    H278881   0.104   6.364   5.236  0.7337  1.2978  0.3299
19156TIP3   OH278882   2.559   1.393   3.889 -0.2721  0.0689 -0.1054
19156TIP3    H178883   2.571   1.480   3.851 -3.2994  0.0065 -1.3216
19156TIP3    H278884   2.502   1.348   3.828  1.6855 -3.0057  0.2328
19157TIP3   OH278885   2.091   0.798   4.620 -0.3286  0.3334 -0.1764
19157TIP3    H178886   2.052   0.794   4.708 -0.8701  0.5239 -0.4093
19157TIP3    H278887   2.170   0.852   4.632 -0.5719  0.6271  0.1317
19158TIP3   OH278888   0.531   6.620   4.912  0.3956  0.2059 -0.2778
19158TIP3    H178889   0.574   6.534   4.918  0.7546  0.3220 -1.2659
19158TIP3    H278890   0.580   6.668   4.846 -0.6377  0.6957 -0.7067
19159TIP3   OH278891   0.918   1.786   5.184 -0.7864  0.3527  0.8049
19159TIP3    H178892   0.952   1.741   5.107 -2.5082  2.8679 -1.5584
19159TIP3    H278893   0.967   1.868   5.187 -1.2383  0.5853  1.9632
19160TIP3   OH278894   6.179   0.827   2.632  0.1145  0.0066  0.1593
19160TIP3    H178895   6.251   0.817   2.695  0.4403  1.1185 -0.0339
19160TIP3    H278896   6.210   0.781   2.554  0.2506 -0.2564  0.3645
19161TIP3   OH278897   0.396   5.181   4.219  0.1342 -0.3172  0.1678
19161TIP3    H178898   0.463   5.165   4.285  0.2860 -0.4643 -0.0204
19161TIP3    H278899   0.328   5.231   4.265  0.5709  0.2089  0.2545
19162TIP3   OH278900   2.477   6.192   4.384 -0.3862  0.0383  0.2871
19162TIP3    H178901   2.452   6.220   4.296 -0.8208 -1.1587  0.0280
19162TIP3    H278902   2.515   6.271   4.424  0.1824  0.4801 -1.0959
19163TIP3   OH278903   4.202   5.651   4.423 -0.5404 -0.3526 -0.1374
19163TIP3    H178904   4.109   5.639   4.400 -0.0214 -2.9549 -1.0174
19163TIP3    H278905   4.250   5.619   4.347  1.1136  2.2322 -0.2365
19164TIP3   OH278906   6.854   2.227   3.958  0.6013 -0.1364 -0.4651
19164TIP3    H178907   6.779   2.182   3.997  1.1784  0.4343  1.3901
19164TIP3    H278908   6.919   2.159   3.944  0.3684 -0.3616 -0.4501
19165TIP3   OH278909   6.016   1.223   3.230 -0.0734  0.2941 -0.5614
19165TIP3    H178910   6.106   1.236   3.202  0.2284  0.6031  0.5316
19165TIP3    H278911   6.023   1.171   3.311 -0.8680  0.3120 -0.4755
19166TIP3   OH278912   6.264   2.038   3.334  0.5125 -0.0583  0.3645
19166TIP3    H178913   6.256   2.011   3.242  0.6416 -0.1863  0.3906
19166TIP3    H278914   6.267   1.956   3.383 -1.5796  0.0038  0.6568
19167TIP3   OH278915   1.008   5.738   5.530  0.7855 -0.0696 -0.0643
19167TIP3    H178916   1.039   5.647   5.528 -3.5754 -1.7391  0.9740
19167TIP3    H278917   1.013   5.762   5.623 -0.2161 -0.1034  0.0044
19168TIP3   OH278918   0.659   4.298   3.218 -0.3540 -0.0935  0.0734
19168TIP3    H178919   0.626   4.340   3.298 -1.6328  0.2448 -0.6153
19168TIP3    H278920   0.685   4.210   3.247  1.3954  0.8139  1.3105
19169TIP3   OH278921   3.781   7.099   5.365 -0.3228 -0.0032  0.1617
19169TIP3    H178922   3.745   7.080   5.451  0.4776  0.8080  0.6850
19169TIP3    H278923   3.870   7.064   5.367 -0.4521 -0.3888 -0.4996
19170TIP3   OH278924   1.513   6.546   1.151 -0.1261 -0.3206  0.1157
19170TIP3    H178925   1.534   6.535   1.243 -0.5845  0.6594  0.3495
19170TIP3    H278926   1.419   6.529   1.146 -0.2106  0.1734 -0.0625
19171TIP3   OH278927   0.841   7.217   5.761 -0.6119  0.1498  0.3158
19171TIP3    H178928   0.867   7.272   5.688 -2.4370 -0.1925 -0.6388
19171TIP3    H278929   0.905   7.235   5.830  0.5397  1.2164 -1.0209
19172TIP3   OH278930   0.066   1.810   5.620 -0.3161  0.4351 -0.1304
19172TIP3    H178931   0.068   1.715   5.612 -2.2825  0.3351  0.5560
19172TIP3    H278932  -0.017   1.836   5.580 -0.6563  1.7038  1.3618
19173TIP3   OH278933   6.961   0.699   4.746 -0.0915 -0.4408 -0.1831
19173TIP3    H178934   7.008   0.636   4.801  1.0239 -1.1337 -1.9060
19173TIP3    H278935   7.029   0.758   4.715 -0.6246 -0.4071 -1.2974
19174TIP3   OH278936   0.110   4.936   4.520 -0.0053  0.5710 -0.4692
19174TIP3    H178937   0.022   4.899   4.520 -0.0095  0.5815 -0.7127
19174TIP3    H278938   0.112   4.993   4.597  0.2996 -0.6513  0.4403
19175TIP3   OH278939   0.242   3.607   4.236  1.0081  0.5486  0.1046
19175TIP3    H178940   0.329   3.641   4.212  1.0599  1.8006  1.9214
19175TIP3    H278941   0.227   3.643   4.324 -1.4610  0.5387 -0.3037
19176TIP3   OH278942   0.827   1.013   6.093 -0.4806 -0.4530  0.3375
19176TIP3    H178943   0.891   1.056   6.036 -0.8104 -0.9638 -0.4203
19176TIP3    H278944   0.754   1.075   6.098 -0.3920 -0.3472  0.3305
19177TIP3   OH278945   1.245   6.875   5.899 -0.4850 -0.2231 -0.0378
19177TIP3    H178946   1.163   6.890   5.947 -0.9284  0.8005 -1.0860
19177TIP3    H278947   1.302   6.947   5.928 -0.1843 -0.5486  0.1829
19178TIP3   OH278948   0.152   1.678   2.287  0.2304 -0.0077  0.0913
19178TIP3    H178949   0.136   1.671   2.381  1.9468 -0.5627  0.3609
19178TIP3    H278950   0.201   1.759   2.277 -0.5322  0.3941 -0.4092
19179TIP3   OH278951   3.491   0.291   5.503  0.1912 -0.1864 -0.1748
19179TIP3    H178952   3.567   0.344   5.482  0.3108  0.0042  0.7318
19179TIP3    H278953   3.427   0.314   5.435  0.7381  0.0711 -0.6067
19180TIP3   OH278954   0.800   2.981   4.924  0.2474 -0.4055  0.2194
19180TIP3    H178955   0.741   2.954   4.995  0.3598 -0.9590  0.1045
19180TIP3    H278956   0.888   2.966   4.959  0.3003 -1.0627 -0.1791
19181TIP3   OH278957   0.348   7.079   6.074 -0.0468  0.1322  0.1807
19181TIP3    H178958   0.341   6.983   6.081 -0.4182 -0.0026 -1.8361
19181TIP3    H278959   0.437   7.098   6.103 -0.0290 -0.8146  0.7707
19182TIP3   OH278960   2.001   7.239   4.411 -0.2162  0.0988 -0.4801
19182TIP3    H178961   2.062   7.168   4.392 -0.0550  0.0906  0.0623
19182TIP3    H278962   1.992   7.239   4.506 -1.1974 -0.0123 -0.5602
19183TIP3   OH278963   6.053   2.249   0.174  0.0165  0.1878  0.2219
19183TIP3    H178964   6.040   2.182   0.241 -1.6422  1.0743  0.8252
19183TIP3    H278965   6.014   2.211   0.095  0.4794 -0.1729  0.1595
19184TIP3   OH278966   0.011   4.599   3.873 -0.2199 -0.3770 -0.2563
19184TIP3    H178967   0.039   4.544   3.946 -1.4569 -0.3210  0.2578
19184TIP3    H278968  -0.029   4.538   3.811 -0.7428 -0.1917 -0.1053
19185TIP3   OH278969   6.285   6.743   5.750  0.0695 -0.1812  0.1499
19185TIP3    H178970   6.226   6.719   5.821 -0.9048  0.3769 -0.4656
19185TIP3    H278971   6.269   6.836   5.736  0.8345 -0.1115 -0.2646
19186TIP3   OH278972   0.262   0.808   3.020 -1.0414 -0.3811 -0.0724
19186TIP3    H178973   0.211   0.758   3.084  0.5417 -1.2423  0.5516
19186TIP3    H278974   0.323   0.860   3.073 -1.4043  0.7850 -0.7916
19187TIP3   OH278975   6.534   7.250   5.592 -0.2983 -0.0476 -0.3452
19187TIP3    H178976   6.552   7.301   5.671 -0.1312  1.4348 -1.3041
19187TIP3    H278977   6.441   7.264   5.576  0.0718  1.2601 -1.4745
19188TIP3   OH278978   6.458   1.713   2.177  0.0509 -0.2511  0.2163
19188TIP3    H178979   6.451   1.618   2.162 -0.2313 -0.4597  1.6147
19188TIP3    H278980   6.549   1.726   2.206 -0.1764 -0.2194  0.9133
19189TIP3   OH278981   0.277   5.836   5.800 -0.1790  0.3610  0.3985
19189TIP3    H178982   0.334   5.878   5.864 -0.4658  0.5185  0.5490
19189TIP3    H278983   0.195   5.886   5.803 -0.6776 -0.4572  0.8929
19190TIP3   OH278984   3.300   6.486   5.725  0.0356 -0.5672 -0.5019
19190TIP3    H178985   3.231   6.532   5.678  0.4419  1.9142  1.2558
19190TIP3    H278986   3.253   6.431   5.788 -0.3759  0.6326  0.2544
19191TIP3   OH278987   0.676   6.832   4.049  0.3243  0.3109  0.4737
19191TIP3    H178988   0.733   6.831   3.972  0.4697  0.6276  0.5751
19191TIP3    H278989   0.589   6.851   4.014  0.1184 -1.0669  0.2192
19192TIP3   OH278990   4.986   6.220   3.103  0.0952  0.0751 -0.1843
19192TIP3    H178991   5.004   6.212   3.009  0.1861 -0.7668 -0.1037
19192TIP3    H278992   5.058   6.274   3.137  0.4346 -0.1805 -0.4876
19193TIP3   OH278993   6.311   1.185   3.670  0.2147 -0.1922 -0.5475
19193TIP3    H178994   6.317   1.267   3.623  1.1866 -0.5122 -0.9765
19193TIP3    H278995   6.362   1.198   3.750  0.4276 -0.3979 -0.6481
19194TIP3   OH278996   7.109   0.483   4.873  0.0989  0.8445 -0.1699
19194TIP3    H178997   7.165   0.441   4.808  1.9881  1.3360  1.0890
19194TIP3    H278998   7.088   0.414   4.936  1.7508  1.3207  0.9438
19195TIP3   OH278999   1.002   6.002   1.784 -0.0283 -0.4601  0.1210
19195TIP3    H179000   0.910   5.977   1.783 -0.8974  2.5090 -0.6840
19195TIP3    H279001   1.016   6.040   1.871  0.0586  0.3115 -0.2224
19196TIP3   OH279002   0.021   7.001   5.653  0.4993  0.0444  0.2757
19196TIP3    H179003   0.051   6.913   5.677 -0.2508 -0.5402 -0.8864
19196TIP3    H279004   0.051   7.012   5.562  1.4677  1.3901  0.7447
19197TIP3   OH279005   2.102   4.440   4.702  0.0133  0.0072  0.6142
19197TIP3    H179006   2.140   4.354   4.684 -0.0881  0.1462 -0.2760
19197TIP3    H279007   2.047   4.426   4.779 -1.4145 -1.1273 -0.5966
19198TIP3   OH279008   6.370   6.920   2.866  0.7801  0.2881 -0.1618
19198TIP3    H179009   6.414   6.894   2.947 -0.6362  0.0379  0.5527
19198TIP3    H279010   6.288   6.961   2.895 -0.2996 -0.8738 -1.4768
19199TIP3   OH279011   0.568   6.621   6.055  0.6271 -0.4568 -0.1940
19199TIP3    H179012   0.639   6.681   6.076  0.5198  0.5648 -2.6297
19199TIP3    H279013   0.501   6.675   6.014 -0.4250 -1.8517 -0.3598
19200TIP3   OH279014   0.795   5.217   3.960 -0.3988  0.2259  0.1958
19200TIP3    H179015   0.713   5.172   3.981 -0.8561  0.3221 -1.3208
19200TIP3    H279016   0.791   5.298   4.011  0.8735 -1.8065  3.7269
19201TIP3   OH279017   1.274   6.287   6.129  0.7651 -0.0747  0.8196
19201TIP3    H179018   1.348   6.276   6.189  0.7434  0.6075  0.9847
19201TIP3    H279019   1.211   6.340   6.179  0.7260  0.4483  0.2160
19202TIP3   OH279020   0.756   4.018   6.313  0.6810  0.0084 -0.1727
19202TIP3    H179021   0.801   4.055   6.238 -1.0505  2.2776 -0.1552
19202TIP3    H279022   0.719   3.936   6.281 -0.9689  1.4672 -2.1838
19203TIP3   OH279023   0.027   7.133   4.924  0.0616 -0.1217 -0.2561
19203TIP3    H179024  -0.023   7.214   4.926 -0.8499 -0.6971  0.9798
19203TIP3    H279025   0.089   7.142   4.997  1.6532  0.5018 -1.6458
19204TIP3   OH279026   5.825   1.833   5.442  0.0247  0.3731  0.0152
19204TIP3    H179027   5.759   1.901   5.454 -0.4171  0.3121 -1.8469
19204TIP3    H279028   5.873   1.860   5.364  2.5461  0.6738  1.6263
19205TIP3   OH279029   7.202   0.978   5.441 -0.0261  0.1370  0.2351
19205TIP3    H179030   7.108   0.986   5.456  0.1680  1.0891  1.0462
19205TIP3    H279031   7.237   1.063   5.467  1.1825 -0.5559  0.9074
19206TIP3   OH279032   3.499   6.274   5.597  0.6054 -0.0983  0.7482
19206TIP3    H179033   3.504   6.220   5.518  1.8571  1.7735 -0.5030
19206TIP3    H279034   3.556   6.230   5.660  0.6386 -0.8948  0.1725
19207TIP3   OH279035   5.320   1.612   4.934 -0.0008 -0.2166  0.3484
19207TIP3    H179036   5.236   1.589   4.895 -0.7293  1.0672  1.1170
19207TIP3    H279037   5.297   1.669   5.008  1.6004  1.0021 -0.0764
19208TIP3   OH279038   1.431   6.658   2.469 -0.2049  0.4103  0.5136
19208TIP3    H179039   1.351   6.684   2.514  0.0674  4.3661 -1.0370
19208TIP3    H279040   1.406   6.583   2.415 -2.5669  0.9328  0.8422
19209TIP3   OH279041   0.862   1.667   4.701  0.9175  0.1815 -0.2315
19209TIP3    H179042   0.916   1.610   4.757 -1.6365 -0.1189  2.0627
19209TIP3    H279043   0.867   1.628   4.614  1.9056 -1.6108  0.6059
19210TIP3   OH279044   0.680   2.782   2.005  0.1888  0.1011  0.3816
19210TIP3    H179045   0.730   2.860   1.983 -3.9760  2.2568 -2.0864
19210TIP3    H279046   0.712   2.715   1.945  0.7518  1.1421 -0.4959
19211TIP3   OH279047   1.283   4.591   4.744  0.0035  0.1107  0.2996
19211TIP3    H179048   1.350   4.535   4.703  0.5545 -1.4885  3.1893
19211TIP3    H279049   1.223   4.614   4.673  0.9097 -2.5104 -1.3841
19212TIP3   OH279050   4.510   4.900   3.851  0.0069 -0.1318 -0.4075
19212TIP3    H179051   4.556   4.852   3.921 -0.4305  0.1934  0.1114
19212TIP3    H279052   4.452   4.835   3.811  1.3597 -0.7049 -1.4801
19213TIP3   OH279053   2.274   6.466   5.710  0.7790 -0.3803 -0.3842
19213TIP3    H179054   2.219   6.395   5.745 -1.7502  0.9065 -1.6220
19213TIP3    H279055   2.245   6.476   5.620 -0.2782  3.4674  0.2918
19214TIP3   OH279056   6.369   5.620   4.941 -0.5911  0.1704  0.2212
19214TIP3    H179057   6.384   5.534   4.979 -1.2049 -0.1344 -0.2173
19214TIP3    H279058   6.274   5.625   4.931 -0.4312  0.2584 -1.2553
19215TIP3   OH279059   4.224   1.090   3.887  0.4799  0.2570 -0.3267
19215TIP3    H179060   4.203   1.041   3.967 -0.8131 -1.2981 -1.5928
19215TIP3    H279061   4.148   1.148   3.874  2.1817  3.0119  1.3967
19216TIP3   OH279062   0.752   0.498   4.319 -0.0063 -0.3436 -0.0221
19216TIP3    H179063   0.665   0.531   4.296 -0.1599 -1.4538 -1.1091
19216TIP3    H279064   0.809   0.529   4.248  0.6108  0.8993  1.0049
19217TIP3   OH279065   6.051   1.040   3.456 -0.1242 -0.2123 -0.0883
19217TIP3    H179066   6.113   0.975   3.424  0.4968 -0.8354  2.3550
19217TIP3    H279067   5.974   0.990   3.482  0.0459  0.1165  1.0516
19218TIP3   OH279068   1.276   6.315   5.748  0.1090  0.0858 -0.1145
19218TIP3    H179069   1.271   6.404   5.781 -0.2493  0.6454 -1.6577
19218TIP3    H279070   1.212   6.266   5.801 -1.3084  1.2235 -0.7504
19219TIP3   OH279071   6.032   6.243   5.295 -0.1567 -0.1298  0.1725
19219TIP3    H179072   5.974   6.182   5.250 -2.1768 -0.2503  2.7759
19219TIP3    H279073   6.059   6.306   5.228 -1.8472 -1.1345 -1.4860
19220TIP3   OH279074   2.757   7.087   5.549  0.4789  0.3001 -0.0238
19220TIP3    H179075   2.742   6.995   5.528 -1.3617  0.1868  1.6046
19220TIP3    H279076   2.818   7.086   5.622  2.3276  0.4938 -1.5178
19221TIP3   OH279077   2.218   1.349   4.736 -0.4823  0.0081 -0.3393
19221TIP3    H179078   2.176   1.267   4.762 -0.5604 -0.2075 -1.1333
19221TIP3    H279079   2.212   1.404   4.814 -1.6686 -0.2483 -0.2374
19222TIP3   OH279080   1.017   6.518   5.634  0.4381  0.0599  0.3083
19222TIP3    H179081   1.078   6.556   5.570  0.0293 -1.6530 -1.1470
19222TIP3    H279082   1.052   6.545   5.719  3.6318 -1.4441 -0.4618
19223TIP3   OH279083   7.127   2.822   5.072  0.3438  0.2618 -0.1813
19223TIP3    H179084   7.163   2.734   5.085  0.4964  0.4602  0.7513
19223TIP3    H279085   7.145   2.842   4.980  0.1848 -0.7375 -0.4355
19224TIP3   OH279086   1.941   4.335   5.592  0.6523  0.6459 -0.0186
19224TIP3    H179087   1.868   4.307   5.648  0.1739 -0.9336 -1.3834
19224TIP3    H279088   1.909   4.414   5.549  0.6538  1.3150  1.1844
19225TIP3   OH279089   6.966   6.450   4.355  0.1738 -0.2071 -0.5624
19225TIP3    H179090   6.901   6.441   4.285 -1.4918 -1.2724  1.0996
19225TIP3    H279091   6.934   6.520   4.410 -0.5086 -1.8834  1.2362
19226TIP3   OH279092   1.253   6.033   0.599  1.0024 -0.0851  0.5884
19226TIP3    H179093   1.282   5.986   0.522  0.4990  0.0896  0.2852
19226TIP3    H279094   1.267   6.126   0.578  1.0462 -0.0471  0.7804
19227TIP3   OH279095   2.018   6.788   5.498 -0.3428  0.4615  0.0032
19227TIP3    H179096   2.044   6.817   5.410  1.6325  1.2287  0.8343
19227TIP3    H279097   1.943   6.730   5.482  0.6911 -0.2997 -2.2739
19228TIP3   OH279098   6.150   7.275   5.646  0.1293  0.2605 -0.4631
19228TIP3    H179099   6.086   7.332   5.689  2.5969  0.7155  2.8172
19228TIP3    H279100   6.200   7.334   5.590  0.3898  0.7035  0.2232
19229TIP3   OH279101   0.343   5.845   3.023  0.2138  0.4076 -0.1006
19229TIP3    H179102   0.290   5.905   3.075  1.1579  1.1732 -0.0105
19229TIP3    H279103   0.318   5.758   3.054 -0.5720  0.7817  0.3358
19230TIP3   OH279104   2.902   4.365   5.526 -0.0716  0.0242  0.0151
19230TIP3    H179105   2.823   4.315   5.548  0.3182  0.3237  2.2260
19230TIP3    H279106   2.974   4.308   5.554  0.4084  1.1980  1.2101
19231TIP3   OH279107   6.731   1.183   3.772  0.7835 -0.5479  0.5005
19231TIP3    H179108   6.820   1.157   3.746  0.4648  1.5981 -3.1542
19231TIP3    H279109   6.740   1.275   3.797 -0.5060 -0.1660 -0.4299
19232TIP3   OH279110   1.839   0.716   5.610  0.5799 -0.5976  0.1591
19232TIP3    H179111   1.752   0.712   5.649  1.0293 -0.5094  1.1709
19232TIP3    H279112   1.832   0.660   5.532 -1.0431  1.2455 -1.0709
19233TIP3   OH279113   7.046   6.545   3.304  0.3765 -0.2369 -0.4849
19233TIP3    H179114   7.073   6.608   3.371  2.2015  0.3961 -1.7458
19233TIP3    H279115   6.979   6.591   3.253  1.6342  0.6996 -1.3426
19234TIP3   OH279116   2.574   0.928   4.680  0.1178 -0.5302 -0.3685
19234TIP3    H179117   2.602   0.990   4.748 -0.8429  0.4536 -0.8608
19234TIP3    H279118   2.574   0.843   4.724  0.7715 -0.0869  0.5042
19235TIP3   OH279119   1.169   0.672   4.514  0.2729  0.0115 -0.1354
19235TIP3    H179120   1.230   0.681   4.587  0.0920  0.0065  0.0177
19235TIP3    H279121   1.082   0.671   4.555  0.1728 -0.0348 -0.3461
19236TIP3   OH279122   4.091   7.295   2.249  0.0335 -0.2889  0.4293
19236TIP3    H179123   4.043   7.215   2.272  0.2018 -0.5232 -0.0422
19236TIP3    H279124   4.131   7.323   2.332 -0.4348 -0.4134  0.7031
19237TIP3   OH279125   0.678   0.023   3.122 -0.3690  0.0683 -0.3773
19237TIP3    H179126   0.727   0.036   3.041  0.9288 -0.7085  0.2489
19237TIP3    H279127   0.647   0.110   3.146 -0.2963  0.3875 -1.4142
19238TIP3   OH279128   2.918   5.913   5.126  0.0062 -0.0366  0.4064
19238TIP3    H179129   2.910   5.827   5.167 -0.0354 -0.8478 -1.2600
19238TIP3    H279130   2.828   5.937   5.104 -0.0410  0.7094  1.4450
19239TIP3   OH279131   0.419   0.923   3.216 -0.3515 -0.1794 -0.3674
19239TIP3    H179132   0.356   0.979   3.262 -0.9726 -0.6325 -0.6691
19239TIP3    H279133   0.502   0.971   3.223 -0.7281  0.4309  0.0106
19240TIP3   OH279134   5.975   6.232   2.257  0.4013  0.2224  0.1065
19240TIP3    H179135   5.896   6.179   2.255  0.9379 -0.6021  0.4241
19240TIP3    H279136   6.041   6.175   2.298  0.8719  1.2791  0.8482
19241TIP3   OH279137   0.471   4.107   2.396  0.8604  0.0945 -0.4802
19241TIP3    H179138   0.550   4.159   2.381  0.2995  1.2679  0.4896
19241TIP3    H279139   0.468   4.095   2.491  1.8410 -3.1440 -0.8206
19242TIP3   OH279140   4.407   6.800   3.326  0.5629 -0.1800  0.3024
19242TIP3    H179141   4.318   6.767   3.318 -0.1599  1.6159  0.7416
19242TIP3    H279142   4.455   6.730   3.371 -1.0020 -0.5366  1.4656
19243TIP3   OH279143   7.265   6.163   5.099 -0.7106  0.3024 -0.1902
19243TIP3    H179144   7.244   6.129   5.186 -0.4569 -0.6186 -0.4806
19243TIP3    H279145   7.306   6.089   5.054 -0.6609  0.8344 -1.0271
19244TIP3   OH279146   0.015   0.846   3.772  0.0217  0.0516  0.3998
19244TIP3    H179147  -0.076   0.866   3.795 -0.2641 -2.5619  1.6767
19244TIP3    H279148   0.009   0.770   3.715  1.4005  0.2508 -0.0260
19245TIP3   OH279149   4.568   1.279   5.073  0.1185  0.3204  0.7762
19245TIP3    H179150   4.504   1.294   5.142 -0.6149 -0.6521  0.3248
19245TIP3    H279151   4.524   1.310   4.993  0.2800 -0.1710  0.4937
19246TIP3   OH279152   6.133   7.076   3.460 -0.3049  0.0446 -0.0246
19246TIP3    H179153   6.137   7.166   3.492 -0.0090 -0.1788  0.5965
19246TIP3    H279154   6.100   7.026   3.535 -1.7890 -0.1655 -0.8133
19247TIP3   OH279155   5.006   6.383   5.411  0.5717 -0.1950  0.4998
19247TIP3    H179156   5.080   6.440   5.389  0.2619 -0.1232 -0.3863
19247TIP3    H279157   5.046   6.305   5.449  0.9400  1.0432  2.7136
19248TIP3   OH279158   3.119   2.381   4.788 -0.1015  0.4619 -0.1155
19248TIP3    H179159   3.079   2.363   4.703 -1.8577  2.1976  0.2877
19248TIP3    H279160   3.094   2.308   4.843  0.0925 -0.1135 -0.7865
19249TIP3   OH279161   3.399   0.111   6.079 -0.5273 -0.4759 -0.3316
19249TIP3    H179162   3.316   0.116   6.126  0.3240 -1.4151  1.3281
19249TIP3    H279163   3.446   0.040   6.122  0.7103 -0.6536 -1.9455
19250TIP3   OH279164   2.100   0.607   4.052 -0.6043 -0.0347 -0.0328
19250TIP3    H179165   2.019   0.654   4.074 -0.6874  0.2281 -0.8714
19250TIP3    H279166   2.165   0.642   4.114 -1.4395 -1.2442  1.5507
19251TIP3   OH279167   1.644   4.660   5.544 -0.4328 -0.0796  0.2462
19251TIP3    H179168   1.582   4.588   5.557  0.4756 -0.8232  0.5868
19251TIP3    H279169   1.619   4.725   5.609 -1.3176 -0.0540 -0.1192
19252TIP3   OH279170   1.048   3.258   5.774 -0.5267 -0.5183  0.0135
19252TIP3    H179171   1.071   3.170   5.748  0.4523 -0.3542  0.3175
19252TIP3    H279172   1.066   3.261   5.868  0.9577  0.4738 -0.2785
19253TIP3   OH279173   3.925   0.499   5.257  0.1878 -0.0554  0.2118
19253TIP3    H179174   3.881   0.472   5.338  1.4367 -0.0975  0.8845
19253TIP3    H279175   3.968   0.419   5.226 -0.8627 -0.2146 -0.8869
19254TIP3   OH279176   1.016   7.168   6.010 -0.5209 -0.4332 -0.0383
19254TIP3    H179177   1.099   7.215   6.004 -1.5933  1.4232 -0.7857
19254TIP3    H279178   1.041   7.075   6.017  1.5765  0.0332 -0.9425
19255TIP3   OH279179   4.583   4.540   2.342  0.1374 -1.0407 -0.1092
19255TIP3    H179180   4.515   4.472   2.342 -0.1994 -0.7519 -3.2362
19255TIP3    H279181   4.545   4.612   2.292  1.8718  0.0442  0.1036
19256TIP3   OH279182   1.552   2.026   2.914 -0.3434  0.3226 -0.4805
19256TIP3    H179183   1.576   1.934   2.910  0.2279  0.3934  1.0420
19256TIP3    H279184   1.468   2.031   2.869 -1.6559 -1.3943  1.6907
19257TIP3   OH279185   6.938   0.401   3.796 -0.0154 -0.8560  0.6954
19257TIP3    H179186   6.981   0.408   3.881 -0.0168  1.7950  0.5164
19257TIP3    H279187   6.849   0.372   3.816 -0.2913  0.6484  1.6873
19258TIP3   OH279188   2.986   0.237   3.029  0.2317 -0.7445  0.1379
19258TIP3    H179189   2.952   0.281   3.106  1.4137 -0.6095  0.6037
19258TIP3    H279190   3.051   0.176   3.064  0.8965 -0.5639 -0.7608
19259TIP3   OH279191   2.270   6.917   4.838 -0.3356 -0.5527 -0.1573
19259TIP3    H179192   2.287   6.960   4.921 -0.8879  0.7569 -0.7176
19259TIP3    H279193   2.305   6.977   4.771 -1.9233 -0.5324 -0.9870
19260TIP3   OH279194   0.530   5.706   5.219 -0.2129  0.1933  0.3218
19260TIP3    H179195   0.524   5.791   5.261  0.0468 -0.5091  1.8070
19260TIP3    H279196   0.507   5.643   5.288 -0.0971 -0.9545 -0.6631
19261TIP3   OH279197   2.351   0.535   5.621  0.4711  0.2814 -0.0776
19261TIP3    H179198   2.380   0.609   5.674  2.4391 -0.5526  0.0602
19261TIP3    H279199   2.415   0.531   5.549 -1.5111  0.7104 -1.9125
19262TIP3   OH279200   2.397   0.930   4.416  0.3347 -0.0085 -0.3507
19262TIP3    H179201   2.335   0.966   4.478  1.9584  1.9231  0.2114
19262TIP3    H279202   2.465   0.890   4.470  1.1363  0.6001 -0.8941
19263TIP3   OH279203   5.445   4.156   3.960 -0.5466 -0.2544 -0.6106
19263TIP3    H179204   5.441   4.211   4.038 -0.6753  0.5053 -1.1485
19263TIP3    H279205   5.526   4.106   3.969 -1.1699 -1.0744  0.6085
19264TIP3   OH279206   1.134   6.090   4.233  0.1328 -0.2645  0.0428
19264TIP3    H179207   1.149   6.004   4.192  0.9283 -0.1835  0.1657
19264TIP3    H279208   1.220   6.117   4.264 -0.3042  0.1090  0.9392
19265TIP3   OH279209   4.902   6.068   5.471 -0.6251 -0.0082  0.3563
19265TIP3    H179210   4.945   6.135   5.523  0.7404 -1.6419  1.4164
19265TIP3    H279211   4.808   6.080   5.488 -0.3177  0.8238  1.4959
19266TIP3   OH279212   6.486   2.682   4.053 -0.0999  0.1889  0.2203
19266TIP3    H179213   6.431   2.729   3.991  0.2910  1.6159  0.9454
19266TIP3    H279214   6.456   2.591   4.047 -1.6725  0.7226 -0.3127
19267TIP3   OH279215   3.666   6.926   4.167  0.0262  0.0568  0.2025
19267TIP3    H179216   3.712   6.993   4.218  0.5826  0.3426 -0.6593
19267TIP3    H279217   3.728   6.853   4.161 -0.2999 -0.2454  0.5198
19268TIP3   OH279218   0.595   4.219   3.776 -0.4223  0.5830 -0.4889
19268TIP3    H179219   0.524   4.272   3.814  0.2193  1.5325 -0.6009
19268TIP3    H279220   0.662   4.283   3.753  1.7634 -0.5764  2.3778
19269TIP3   OH279221   5.707   6.955   5.343  0.4917  0.1571 -0.5703
19269TIP3    H179222   5.717   6.931   5.436  0.3166  1.2077 -0.2727
19269TIP3    H279223   5.737   6.878   5.295  0.4483 -0.4497  0.3644
19270TIP3   OH279224   5.403   0.492   3.626 -0.4135  0.1417  0.2964
19270TIP3    H179225   5.395   0.525   3.716  1.9402  2.3354 -0.2557
19270TIP3    H279226   5.468   0.422   3.632 -0.5151  0.0530  0.3615
19271TIP3   OH279227   1.917   1.039   4.289  0.4229  0.7410  0.4322
19271TIP3    H179228   1.971   1.075   4.360  2.6894 -0.4934 -0.6219
19271TIP3    H279229   1.942   1.090   4.212 -0.8267  0.9851  0.1941
19272TIP3   OH279230   3.784   1.753   4.563  0.0121 -0.5254 -0.5420
19272TIP3    H179231   3.874   1.786   4.557 -0.2760  0.2030 -1.0416
19272TIP3    H279232   3.779   1.684   4.497  0.5623 -1.4344  0.3613
19273TIP3   OH279233   6.629   6.479   2.615  0.2607  0.1987  0.2817
19273TIP3    H179234   6.666   6.420   2.550 -0.2816  0.0839  0.0725
19273TIP3    H279235   6.587   6.548   2.563  2.2424  1.6360  0.5228
19274TIP3   OH279236   7.263   3.348   3.562  0.3143  0.3087  0.0378
19274TIP3    H179237   7.321   3.282   3.600  0.0227  0.7298  1.2089
19274TIP3    H279238   7.248   3.411   3.632 -0.2434  1.0820 -0.7622
19275TIP3   OH279239   4.566   6.422   2.018  0.5013  0.3273 -0.0149
19275TIP3    H179240   4.629   6.483   1.981 -0.6345  1.9572  0.6699
19275TIP3    H279241   4.486   6.473   2.028 -0.7799 -1.5386 -0.3518
19276TIP3   OH279242   2.831   0.339   4.711 -0.5645 -0.3223  0.1956
19276TIP3    H179243   2.785   0.331   4.795 -1.1592 -1.6812 -0.2501
19276TIP3    H279244   2.811   0.258   4.665 -1.8282  1.2111 -2.0610
19277TIP3   OH279245   4.030   5.962   4.716 -0.2237 -0.2220 -0.1163
19277TIP3    H179246   4.065   6.031   4.660 -3.4701  1.1543 -0.6110
19277TIP3    H279247   3.982   5.905   4.655  0.3030 -1.4804  0.6328
19278TIP3   OH279248   6.597   6.438   5.125  0.7127  0.1484  0.2094
19278TIP3    H179249   6.531   6.460   5.190 -0.7466  0.4123 -1.3454
19278TIP3    H279250   6.619   6.346   5.143  0.2655  0.1960  1.0094
19279TIP3   OH279251   4.155   7.289   4.977 -0.0230 -0.6664 -0.0540
19279TIP3    H179252   4.244   7.308   5.005 -0.3051 -0.4570  0.7193
19279TIP3    H279253   4.161   7.207   4.930  0.6309 -0.4934 -0.2708
19280TIP3   OH279254   2.364   6.398   5.378  0.1244 -0.2215  0.2673
19280TIP3    H179255   2.277   6.362   5.397  0.2086 -0.6182 -0.1101
19280TIP3    H279256   2.398   6.344   5.307 -0.2178  1.3126 -1.0887
19281TIP3   OH279257   2.322   1.448   3.120  0.2267 -0.5583 -0.4827
19281TIP3    H179258   2.333   1.355   3.140  1.5012 -0.1882  0.6293
19281TIP3    H279259   2.348   1.455   3.028 -1.7674 -1.6083 -1.1537
19282TIP3   OH279260   5.279   0.119   5.086 -0.1920 -0.1227  0.2505
19282TIP3    H179261   5.329   0.037   5.084  1.3506  0.7805  1.3068
19282TIP3    H279262   5.342   0.185   5.112 -2.0671  0.9789  2.1388
19283TIP3   OH279263   3.436   7.241   5.794  0.1945  0.6006  0.3559
19283TIP3    H179264   3.463   7.296   5.868  1.7208  2.0640 -1.2240
19283TIP3    H279265   3.497   7.167   5.795  2.2196  2.1747 -1.1899
19284TIP3   OH279266   6.289   3.974   4.974 -0.4578  0.2548 -0.3809
19284TIP3    H179267   6.384   3.986   4.965  0.1184 -1.9624  2.1136
19284TIP3    H279268   6.269   3.998   5.064 -2.2215  0.4083 -0.7895
19285TIP3   OH279269   2.192   5.702   4.246 -0.0561 -0.4680  0.3077
19285TIP3    H179270   2.129   5.774   4.251  1.4739  1.0431 -1.1127
19285TIP3    H279271   2.159   5.646   4.176  0.8462  1.0571 -1.3849
19286TIP3   OH279272   1.213   0.361   4.101 -0.5316 -0.0401  0.7021
19286TIP3    H179273   1.142   0.406   4.148 -0.3395 -0.7906  1.7280
19286TIP3    H279274   1.258   0.311   4.169 -0.6016 -1.6003 -0.3841
19287TIP3   OH279275   5.298   5.057   1.835  0.3485  0.2899 -0.3155
19287TIP3    H179276   5.306   4.966   1.864  0.5572  0.6292  0.7327
19287TIP3    H279277   5.378   5.073   1.786 -0.1761 -0.4063 -1.4216
19288TIP3   OH279278   2.794   2.341   5.357  0.0191  0.3311 -0.8376
19288TIP3    H179279   2.714   2.348   5.409  1.2239  1.0645  0.9679
19288TIP3    H279280   2.863   2.323   5.421  1.7511  2.5945 -1.9971
19289TIP3   OH279281   6.947   5.996   4.470  0.5170 -0.0348  0.0876
19289TIP3    H179282   7.007   6.069   4.452  0.4371 -0.2171 -0.9711
19289TIP3    H279283   6.862   6.038   4.483  1.2348  0.4309  3.8638
19290TIP3   OH279284   3.332   5.855   4.990  0.1543 -0.5851 -0.9808
19290TIP3    H179285   3.281   5.823   4.915 -0.1496 -2.1359 -0.1350
19290TIP3    H279286   3.273   5.844   5.065  1.5263 -1.8922 -0.0673
19291TIP3   OH279287   3.536   1.889   4.202  0.0950 -0.4523 -0.3283
19291TIP3    H179288   3.622   1.891   4.160  0.0387  0.3761 -0.4089
19291TIP3    H279289   3.506   1.799   4.191  1.0137 -0.7787 -0.1753
19292TIP3   OH279290   1.242   6.737   2.088  0.2805  0.0647  0.2170
19292TIP3    H179291   1.291   6.756   2.168  0.2234 -0.2137  0.3192
19292TIP3    H279292   1.152   6.724   2.117 -0.0040  1.3654 -0.0732
19293TIP3   OH279293   3.559   4.955   3.823  0.3355 -0.3013 -0.0182
19293TIP3    H179294   3.488   5.019   3.830  0.0075 -0.8414  1.9100
19293TIP3    H279295   3.630   4.993   3.876  0.0187 -1.6611  1.4094
19294TIP3   OH279296   4.861   4.657   5.982  0.9513  0.2104  0.1462
19294TIP3    H179297   4.806   4.682   6.056  1.7709  1.0331  0.4931
19294TIP3    H279298   4.799   4.634   5.912  0.1536 -1.9358  1.5032
19295TIP3   OH279299   4.769   6.096   4.886  0.3715  0.0065  0.0136
19295TIP3    H179300   4.815   6.165   4.933  1.2777 -0.3774 -0.3054
19295TIP3    H279301   4.814   6.015   4.910  0.4666 -0.2634 -1.0397
19296TIP3   OH279302   1.375   5.653   5.359 -0.1073  0.3344  0.0121
19296TIP3    H179303   1.313   5.657   5.286 -0.2262 -2.6172 -0.1428
19296TIP3    H279304   1.331   5.696   5.432 -1.2847  0.5486 -0.8265
19297TIP3   OH279305   3.378   5.788   3.688 -0.1633 -0.6937 -0.1726
19297TIP3    H179306   3.307   5.742   3.643  0.5961 -2.0351 -0.0278
19297TIP3    H279307   3.339   5.818   3.770 -0.2970 -2.3256  0.3760
19298TIP3   OH279308   3.919   2.561   5.393  0.0973  0.5003  0.6651
19298TIP3    H179309   3.870   2.559   5.475  2.3707  1.3641  2.0860
19298TIP3    H279310   3.995   2.504   5.409  0.3219  0.3057 -1.0008
19299TIP3   OH279311   0.659   0.260   5.632  0.1601 -0.1622 -0.0136
19299TIP3    H179312   0.592   0.238   5.567 -0.2460 -0.2350  0.4235
19299TIP3    H279313   0.737   0.215   5.602 -0.0570 -0.2918 -0.3885
19300TIP3   OH279314   4.087   4.695   0.719  0.4827 -0.0412  0.2338
19300TIP3    H179315   4.126   4.692   0.632  1.6115 -0.0736  0.7295
19300TIP3    H279316   4.100   4.607   0.754  0.6322  0.1607  0.6890
19301TIP3   OH279317   4.334   0.204   3.145  0.0545 -0.1485 -0.0811
19301TIP3    H179318   4.391   0.129   3.131  0.9670  0.8003 -1.6436
19301TIP3    H279319   4.257   0.168   3.189  1.0257 -1.7656  0.3374
19302TIP3   OH279320   2.542   0.469   4.097 -0.6274 -0.2151  0.0391
19302TIP3    H179321   2.494   0.400   4.050 -3.1091  0.3909  1.6329
19302TIP3    H279322   2.594   0.422   4.162  0.8993 -0.8677 -1.6182
19303TIP3   OH279323   7.198   5.130   4.754 -0.3082  0.1421  0.5619
19303TIP3    H179324   7.286   5.165   4.738 -0.7576  1.1097  0.1995
19303TIP3    H279325   7.149   5.150   4.674 -0.4211 -1.8081  0.1133
19304TIP3   OH279326   0.173   6.482   6.317 -0.6924  0.1438 -0.0637
19304TIP3    H179327   0.168   6.553   6.380  2.2967  2.0497 -1.8449
19304TIP3    H279328   0.111   6.506   6.248 -0.9692  0.1083  0.1700
19305TIP3   OH279329   1.468   6.620   6.081 -0.3574  0.1897 -0.2031
19305TIP3    H179330   1.421   6.589   6.158 -0.5084 -0.2757 -0.4835
19305TIP3    H279331   1.550   6.656   6.117 -0.1839 -0.5166  0.1257
19306TIP3   OH279332   3.337   0.004   5.370 -0.4178  0.0127  0.0101
19306TIP3    H179333   3.315  -0.033   5.284  1.3604  1.1416 -0.9652
19306TIP3    H279334   3.288   0.086   5.374  0.4400  0.5670 -0.4815
19307TIP3   OH279335   3.063   4.582   3.835 -0.0045 -0.2419  0.1992
19307TIP3    H179336   3.127   4.587   3.906 -0.7400  0.0826  0.8521
19307TIP3    H279337   3.076   4.663   3.786  3.5734 -2.4463 -2.7533
19308TIP3   OH279338   1.028   1.604   4.993  0.2656  0.8697 -0.3687
19308TIP3    H179339   1.116   1.624   5.025  0.9896  0.8285 -2.2508
19308TIP3    H279340   1.042   1.569   4.905 -1.5674 -0.1059 -0.3021
19309TIP3   OH279341   1.628   5.247   4.647 -0.3993 -0.4735 -0.0288
19309TIP3    H179342   1.671   5.161   4.652 -1.2490 -1.0121 -1.4865
19309TIP3    H279343   1.677   5.294   4.580  0.5787  0.5016  1.3528
19310TIP3   OH279344   5.374   6.370   5.035  0.0175 -0.3190 -0.2576
19310TIP3    H179345   5.467   6.388   5.047  0.2078 -0.2848 -1.6999
19310TIP3    H279346   5.371   6.293   4.978 -0.8318 -0.1118 -0.5130
19311TIP3   OH279347   1.625   6.737   5.184 -0.0144 -0.0304  0.0918
19311TIP3    H179348   1.581   6.662   5.224 -0.8301  1.2392  1.6281
19311TIP3    H279349   1.656   6.789   5.258  2.1628  0.2216 -0.9628
19312TIP3   OH279350   0.860   0.328   3.919 -0.0305 -0.8227  0.0396
19312TIP3    H179351   0.871   0.410   3.968  1.2261 -1.4989  0.9127
19312TIP3    H279352   0.769   0.329   3.891  0.6023  2.0789 -2.1375
19313TIP3   OH279353   1.303   6.846   3.659  0.2234 -0.0064  0.2591
19313TIP3    H179354   1.288   6.905   3.585  0.0574  0.1197  0.3918
19313TIP3    H279355   1.275   6.897   3.736  1.0575  0.1335  0.4845
19314TIP3   OH279356   7.215   5.789   5.255  0.4758 -0.3046  0.2326
19314TIP3    H179357   7.190   5.742   5.175 -2.0797 -1.3798  1.5910
19314TIP3    H279358   7.136   5.837   5.280  2.2864  2.7386  0.2857
19315TIP3   OH279359   6.995   3.489   4.829  0.3088 -0.1934 -0.3421
19315TIP3    H179360   6.931   3.430   4.789 -2.1751  2.1697  0.0870
19315TIP3    H279361   7.077   3.438   4.828 -1.8089 -3.7773  0.3493
19316TIP3   OH279362   7.009   2.648   4.149  0.1471  0.2093 -0.4616
19316TIP3    H179363   6.967   2.680   4.229 -0.7954 -2.7610  0.2800
19316TIP3    H279364   7.100   2.677   4.157  0.3483 -1.0026  2.2590
19317TIP3   OH279365   1.329   4.827   4.483  0.0248  0.0690 -0.4915
19317TIP3    H179366   1.373   4.831   4.568  0.9033 -3.2149 -0.7268
19317TIP3    H279367   1.400   4.808   4.421 -0.9542  0.1697 -1.6546
19318TIP3   OH279368   0.008   5.355   3.293 -0.6740  0.5264 -0.4225
19318TIP3    H179369   0.100   5.375   3.273 -1.0297  0.8093 -1.8564
19318TIP3    H279370  -0.027   5.437   3.328 -0.7538  0.8635 -1.2762
19319TIP3   OH279371   2.217   6.615   3.661 -0.1793  0.3651 -0.0316
19319TIP3    H179372   2.210   6.520   3.657 -1.0314  0.4097  0.4502
19319TIP3    H279373   2.304   6.634   3.624 -0.8503 -0.4430 -2.0764
19320TIP3   OH279374   1.905   5.990   3.173  0.3409 -0.2893 -0.1442
19320TIP3    H179375   1.999   6.001   3.188 -0.0064 -1.1526  3.0103
19320TIP3    H279376   1.891   5.895   3.173 -0.6205 -0.1540 -0.0013
19321TIP3   OH279377   4.781   5.400   5.078 -0.7656  0.0548 -0.7027
19321TIP3    H179378   4.862   5.425   5.034 -0.4705  0.9128  0.3109
19321TIP3    H279379   4.757   5.477   5.130 -2.4496 -0.0426 -1.3087
19322TIP3   OH279380   1.917   5.352   3.958 -0.0873 -0.0084 -0.7558
19322TIP3    H179381   1.976   5.427   3.960 -1.2607  0.9017  0.5767
19322TIP3    H279382   1.879   5.354   3.870  1.4000 -0.2766 -1.4302
19323TIP3   OH279383   1.730   0.119   2.555 -0.6720  0.0722 -0.2656
19323TIP3    H179384   1.772   0.033   2.555 -0.0119  0.3921 -1.5563
19323TIP3    H279385   1.654   0.109   2.497 -0.9505  0.2054  0.0686
19324TIP3   OH279386   6.081   0.289   3.897  0.2002 -0.4326 -0.0798
19324TIP3    H179387   6.128   0.221   3.945  1.1175  1.7055  2.1851
19324TIP3    H279388   6.133   0.305   3.819  1.8410  0.0665  1.1014
19325TIP3   OH279389   1.015   6.242   2.611 -1.2342 -0.2949 -0.2526
19325TIP3    H179390   1.008   6.281   2.698  0.2244 -0.7245  0.0809
19325TIP3    H279391   1.099   6.196   2.613 -2.1850 -2.0747 -1.1887
19326TIP3   OH279392   0.498   5.845   3.281  0.0176  0.4101  0.3507
19326TIP3    H179393   0.459   5.759   3.262 -0.1442  0.1474  1.7889
19326TIP3    H279394   0.551   5.865   3.205 -0.2514 -0.7998 -0.1655
19327TIP3   OH279395   3.807   0.582   5.032  0.0161  0.0227 -0.1239
19327TIP3    H179396   3.835   0.512   5.091  0.9027 -0.5908 -1.2490
19327TIP3    H279397   3.725   0.614   5.071  0.3011 -0.7167  1.1419
19328TIP3   OH279398   3.818   5.074   5.913 -0.5272 -0.3190 -0.0052
19328TIP3    H179399   3.779   5.036   5.992 -1.7935 -2.3599 -1.5980
19328TIP3    H279400   3.849   4.999   5.863  1.0151  1.0198 -1.0908
19329TIP3   OH279401   7.122   0.933   3.527  0.0354  0.8907 -0.0662
19329TIP3    H179402   7.177   1.006   3.500  0.5475  0.3999 -0.3508
19329TIP3    H279403   7.134   0.867   3.458 -0.7563  0.7058 -0.0384
19330TIP3   OH279404   4.754   4.331   5.332 -0.0116  0.0294 -0.3625
19330TIP3    H179405   4.815   4.365   5.397  0.6395  1.4928 -1.7228
19330TIP3    H279406   4.668   4.336   5.376  0.3768  1.2809  0.2776
19331TIP3   OH279407   5.104   6.114   3.473 -0.0655  0.6569 -0.2994
19331TIP3    H179408   5.144   6.199   3.457  2.3987 -0.1920  1.0414
19331TIP3    H279409   5.084   6.080   3.386  2.9895  0.7589 -1.0911
19332TIP3   OH279410   4.740   0.373   4.281  0.6185  0.6255 -0.0979
19332TIP3    H179411   4.655   0.375   4.238 -0.5029 -3.4745  1.7125
19332TIP3    H279412   4.800   0.338   4.215  0.0573 -0.3449 -0.0938
19333TIP3   OH279413   2.397   5.326   5.772  0.1184 -0.5254 -0.0681
19333TIP3    H179414   2.323   5.309   5.714 -0.8754 -2.1733  1.6002
19333TIP3    H279415   2.474   5.318   5.716 -0.7809 -2.5087 -1.1118
19334TIP3   OH279416   0.017   1.564   1.823  0.0458  0.3663  0.2120
19334TIP3    H179417  -0.066   1.583   1.867  0.9516  1.1625  1.6064
19334TIP3    H279418   0.083   1.570   1.892  1.0612 -2.1867 -0.4637
19335TIP3   OH279419   0.260   6.667   5.341  0.2401 -0.0179  0.1293
19335TIP3    H179420   0.340   6.626   5.309 -0.2945 -0.8748 -0.1191
19335TIP3    H279421   0.215   6.697   5.262  1.1734  2.1013  0.3663
19336TIP3   OH279422   1.765   6.119  15.895 -0.1689  0.3353  0.5674
19336TIP3    H179423   1.710   6.088  15.966 -0.1693 -1.2870 -0.1249
19336TIP3    H279424   1.855   6.108  15.927 -0.1814  0.0687  0.5112
19337TIP3   OH279425   3.411   0.063   4.395 -0.0545  0.4921 -0.6069
19337TIP3    H179426   3.360   0.013   4.331 -2.0460  1.7740 -0.0731
19337TIP3    H279427   3.406   0.153   4.363  3.6455  0.4111 -1.6679
19338TIP3   OH279428   4.433   0.100   4.576  0.8182 -0.0837 -0.3186
19338TIP3    H179429   4.524   0.083   4.551  1.0030  1.4674 -0.7740
19338TIP3    H279430   4.438   0.125   4.668  0.8084 -0.3210 -0.2524
19339TIP3   OH279431   5.460   1.535   5.564 -0.2361 -0.6751  0.1086
19339TIP3    H179432   5.485   1.473   5.632  0.1520 -0.0005  0.5911
19339TIP3    H279433   5.414   1.604   5.610 -1.9486 -1.3112 -0.6254
19340TIP3   OH279434   6.762   6.746   4.900 -0.7358  0.1220  0.3934
19340TIP3    H179435   6.673   6.767   4.927 -1.3099 -0.6719 -0.8135
19340TIP3    H279436   6.786   6.669   4.951 -1.3117 -0.5642 -0.3604
19341TIP3   OH279437   3.919   0.708   4.653 -0.5515 -0.2344 -0.2434
19341TIP3    H179438   3.842   0.733   4.704 -0.8544  0.1708 -0.8914
19341TIP3    H279439   3.886   0.692   4.565  0.2708  1.0686 -0.8112
19342TIP3   OH279440   3.366   7.090   5.159 -0.1286 -0.5518 -0.7541
19342TIP3    H179441   3.306   7.017   5.173  0.2339 -0.5924  0.6947
19342TIP3    H279442   3.449   7.048   5.135  0.0595 -0.6102  0.0035
19343TIP3   OH279443   3.954   5.912   2.899  0.0660 -0.0312 -0.0526
19343TIP3    H179444   4.038   5.889   2.939  0.1643  1.1617  0.4323
19343TIP3    H279445   3.907   5.960   2.967 -1.1905 -1.0448 -0.1752
19344TIP3   OH279446   0.750   5.882   3.101 -0.2518  0.7566  0.3084
19344TIP3    H179447   0.799   5.963   3.087  1.3759 -0.4258 -1.0073
19344TIP3    H279448   0.734   5.848   3.014  2.8326 -2.4963  0.9074
19345TIP3   OH279449   2.652   0.593   5.087  0.0108 -0.5723  0.4991
19345TIP3    H179450   2.629   0.640   5.167 -0.1031  2.9597 -1.4567
19345TIP3    H279451   2.569   0.581   5.041  0.3549 -0.2531 -0.2285
19346TIP3   OH279452   0.440   6.156   5.244  0.6151 -0.0357  0.7810
19346TIP3    H179453   0.468   6.202   5.323  2.4428 -2.8045  1.8108
19346TIP3    H279454   0.402   6.075   5.275  0.9365 -0.9734 -1.1754
19347TIP3   OH279455   5.628   1.071   3.654  0.2139  0.2274 -0.1051
19347TIP3    H179456   5.552   1.015   3.638 -1.3291  1.9763  0.7439
19347TIP3    H279457   5.616   1.145   3.594  1.7213  0.0922 -0.5758
19348TIP3   OH279458   5.711   0.519   2.568 -0.4926 -0.3734 -0.8666
19348TIP3    H179459   5.719   0.442   2.512  0.5484  0.7799 -2.3345
19348TIP3    H279460   5.801   0.550   2.580 -0.7219 -0.4014  1.1875
19349TIP3   OH279461   3.433   5.433   5.009  0.2772  0.1395 -0.9144
19349TIP3    H179462   3.507   5.373   5.014  0.2573  0.1879  0.0833
19349TIP3    H279463   3.439   5.485   5.089 -1.8013 -1.0008  0.0337
19350TIP3   OH279464   3.375   0.275   5.850  0.7710 -0.3972  0.0224
19350TIP3    H179465   3.308   0.270   5.782  0.7615 -1.2737  0.0912
19350TIP3    H279466   3.346   0.212   5.916  2.5429 -2.0107 -0.7183
19351TIP3   OH279467   1.597   5.615   4.371  0.0328 -0.2381 -0.4349
19351TIP3    H179468   1.646   5.569   4.303 -0.4161 -0.0032 -0.9207
19351TIP3    H279469   1.596   5.706   4.342 -1.1716 -0.3330 -0.7150
19352TIP3   OH279470   7.252   1.361   3.931 -0.2227  0.7266  0.1219
19352TIP3    H179471   7.291   1.418   3.997  0.3577  1.6378 -0.9877
19352TIP3    H279472   7.312   1.287   3.924  1.1016  1.9035 -1.2562
19353TIP3   OH279473   0.945   1.686   3.784 -0.0610 -0.2816 -0.0403
19353TIP3    H179474   0.930   1.614   3.844 -1.6806 -0.4001 -0.5628
19353TIP3    H279475   0.858   1.726   3.772  0.5546  0.8374 -0.8911
19354TIP3   OH279476   3.635   4.685   3.798  0.8423 -0.3564 -0.7967
19354TIP3    H179477   3.640   4.683   3.894  1.1787 -0.7388 -0.8228
19354TIP3    H279478   3.593   4.768   3.779 -0.5195 -0.8998 -0.2572
19355TIP3   OH279479   7.100   1.246   1.649 -0.3883  0.3507  0.2226
19355TIP3    H179480   7.028   1.260   1.710 -1.7941  0.5059 -1.4409
19355TIP3    H279481   7.099   1.323   1.592  0.8721  0.1895 -0.0331
19356TIP3   OH279482   1.180   6.782   2.483  0.3427  0.2181 -0.3000
19356TIP3    H179483   1.128   6.785   2.563  1.3777 -1.7451  0.5006
19356TIP3    H279484   1.117   6.765   2.413 -0.3582  0.1720  0.3448
19357TIP3   OH279485   0.890   6.301   5.547 -0.5960  0.7067  0.2014
19357TIP3    H179486   0.932   6.372   5.595 -0.1623 -0.4923  1.6217
19357TIP3    H279487   0.961   6.255   5.503 -0.6945  0.2378  0.5233
19358TIP3   OH279488   3.959   2.968   4.373  0.2848 -0.1489 -0.0673
19358TIP3    H179489   3.953   2.907   4.447 -0.1596  0.8465  0.7268
19358TIP3    H279490   4.038   3.020   4.392  0.5546 -0.3392 -0.6458
19359TIP3   OH279491   1.187   6.646   3.805  0.2167  0.2560  0.4238
19359TIP3    H179492   1.258   6.669   3.864  1.5661 -1.1294 -0.6145
19359TIP3    H279493   1.218   6.672   3.718  0.2218 -1.9699 -0.2701
19360TIP3   OH279494   3.166   5.984   3.421  0.4448  0.1182 -0.1115
19360TIP3    H179495   3.210   6.021   3.497 -0.5074  0.1834  0.4121
19360TIP3    H279496   3.074   5.980   3.446  0.0790  0.4167 -1.3604
19361TIP3   OH279497   2.862   0.989   1.616  0.2584 -0.1069  0.4279
19361TIP3    H179498   2.836   0.905   1.652 -0.0238 -0.3041 -0.2340
19361TIP3    H279499   2.872   1.046   1.692  0.7280 -0.8131  0.8966
19362TIP3   OH279500   6.474   5.860   5.106 -0.0340  0.0839 -0.3375
19362TIP3    H179501   6.407   5.915   5.066 -0.0179 -0.9703 -1.8437
19362TIP3    H279502   6.497   5.796   5.038  2.7858  0.6783  0.0091
19363TIP3   OH279503   3.591   0.462   3.598  0.2192  0.2824 -0.2178
19363TIP3    H179504   3.662   0.494   3.653  2.0628  0.4358 -2.5801
19363TIP3    H279505   3.573   0.373   3.630  1.7388  0.1178  0.1780
19364TIP3   OH279506   3.546   7.293   5.034  0.2108  0.0772 -0.6577
19364TIP3    H179507   3.598   7.366   5.002  1.5678 -0.3232  0.5606
19364TIP3    H279508   3.548   7.302   5.130 -2.0526  0.0985 -0.5914
19365TIP3   OH279509   6.860   2.097   3.649 -0.0645  0.5402  0.6447
19365TIP3    H179510   6.772   2.066   3.669  0.3456  0.2371  2.0404
19365TIP3    H279511   6.855   2.129   3.559 -1.4147 -0.1501  0.4721
19366TIP3   OH279512   2.842   6.124   6.149  0.5016 -0.1335  0.3361
19366TIP3    H179513   2.836   6.132   6.245  1.0769 -2.5780  0.6207
19366TIP3    H279514   2.936   6.125   6.131  0.3619  1.9855 -0.4033
19367TIP3   OH279515   3.471   4.288   3.028 -0.2396 -0.2807  0.0212
19367TIP3    H179516   3.399   4.226   3.025 -0.0119 -0.5122 -0.9863
19367TIP3    H279517   3.540   4.243   3.076 -0.2128 -0.6651 -0.3743
19368TIP3   OH279518   7.136   1.673   5.479 -0.4236 -0.6129 -0.1136
19368TIP3    H179519   7.081   1.633   5.411 -1.6074  0.2468  0.3278
19368TIP3    H279520   7.105   1.634   5.560  0.4058 -0.9883  0.0210
19369TIP3   OH279521   1.957   1.864   5.613 -0.2828 -0.0265 -0.6393
19369TIP3    H179522   1.898   1.910   5.553 -0.8320  0.1841  0.0566
19369TIP3    H279523   1.999   1.797   5.559 -0.9606 -0.0008 -1.1995
19370TIP3   OH279524   4.340   0.285   5.731 -0.1514 -0.1535  0.2130
19370TIP3    H179525   4.370   0.358   5.676 -1.2047 -0.4218 -0.7315
19370TIP3    H279526   4.383   0.300   5.816  2.5195 -0.4475 -1.0304
19371TIP3   OH279527   1.924   4.499   6.079 -0.4437 -0.0166  0.2476
19371TIP3    H179528   1.983   4.440   6.124  0.7936  0.6142 -0.5128
19371TIP3    H279529   1.957   4.503   5.989 -0.0490  2.3686  0.4513
19372TIP3   OH279530   4.150   6.027   5.637 -0.4639  0.5071 -0.1666
19372TIP3    H179531   4.141   6.116   5.671 -1.4288  1.0535 -1.8286
19372TIP3    H279532   4.151   6.037   5.542 -2.6242 -1.3971 -0.4452
19373TIP3   OH279533   4.369   6.629   5.857  0.4835 -0.5575  0.2490
19373TIP3    H179534   4.360   6.562   5.789 -1.2436 -0.5035  0.4070
19373TIP3    H279535   4.318   6.703   5.824  2.2661  0.6544  0.1434
19374TIP3   OH279536   4.455   0.014   4.084 -0.3709 -0.3620 -0.6753
19374TIP3    H179537   4.372   0.003   4.130  0.0756 -2.2423 -0.2839
19374TIP3    H279538   4.498  -0.071   4.092  1.4722  0.5134 -1.1122
19375TIP3   OH279539   2.631   5.411   5.538 -0.2825 -0.4551 -1.1269
19375TIP3    H179540   2.547   5.452   5.557 -0.2950 -0.4016 -1.2992
19375TIP3    H279541   2.612   5.317   5.536 -0.0108 -0.5585  0.5279
19376TIP3   OH279542   1.845   6.385   1.160 -0.0288 -0.3592 -0.2363
19376TIP3    H179543   1.813   6.298   1.185  0.5880 -0.1359  1.3779
19376TIP3    H279544   1.909   6.368   1.090 -2.3722 -0.9317 -2.2994
19377TIP3   OH279545   2.055   0.711   3.786 -0.0267 -0.3597  0.0358
19377TIP3    H179546   2.056   0.674   3.875 -1.9628  1.8682  1.0401
19377TIP3    H279547   1.976   0.675   3.747 -0.0479 -0.0482 -0.2089
19378TIP3   OH279548   4.283   5.743   5.662 -0.2779 -0.3211  0.0305
19378TIP3    H179549   4.211   5.789   5.706 -0.0182  0.6451 -0.5239
19378TIP3    H279550   4.240   5.690   5.595 -0.3703  1.7117 -1.5705
19379TIP3   OH279551   4.390   7.002   5.238  0.2958 -0.6460  0.3811
19379TIP3    H179552   4.319   6.953   5.196 -2.2887  1.7218  1.8174
19379TIP3    H279553   4.375   6.990   5.331 -0.3757  2.7523  0.7680
19380TIP3   OH279554   2.567   1.642   4.317 -0.1472 -0.2847 -0.3265
19380TIP3    H179555   2.495   1.634   4.380 -0.4284  1.4081 -0.4063
19380TIP3    H279556   2.609   1.556   4.317 -1.7055 -1.0555  0.2800
19381TIP3   OH279557   2.581   5.935   4.433 -0.1268 -0.1567  0.1626
19381TIP3    H179558   2.508   5.916   4.491 -1.0743  0.7456 -0.7213
19381TIP3    H279559   2.559   6.019   4.393  1.0005 -0.2656 -0.7222
19382TIP3   OH279560   2.931   3.786   5.654 -0.2070  0.1483  0.3472
19382TIP3    H179561   3.022   3.793   5.683  0.4813 -1.7237 -1.2724
19382TIP3    H279562   2.880   3.790   5.735  1.2068  2.2985  1.2062
19383TIP3   OH279563   2.624   0.446   5.564 -0.4783 -0.0329 -0.0662
19383TIP3    H179564   2.671   0.379   5.516 -0.7867  0.3305 -0.8761
19383TIP3    H279565   2.660   0.442   5.653 -1.7714 -2.4913  0.3675
19384TIP3   OH279566   3.440   5.977   5.715 -0.3013  0.5803 -0.3111
19384TIP3    H179567   3.517   6.028   5.742  0.0304 -0.6039  1.0261
19384TIP3    H279568   3.373   6.000   5.779 -1.0944  1.6356 -1.4952
19385TIP3   OH279569   7.138   4.651   4.192  0.0652 -0.4939  0.3527
19385TIP3    H179570   7.147   4.710   4.267  1.2599 -0.5517  0.2733
19385TIP3    H279571   7.163   4.565   4.227 -0.3984 -0.7109  0.1484
19386TIP3   OH279572   1.417   0.087   0.093  0.1472 -0.5233 -0.0956
19386TIP3    H179573   1.387   0.145   0.163  0.9347 -1.6425  1.2039
19386TIP3    H279574   1.341   0.077   0.036  0.2426  2.4308 -0.8142
19387TIP3   OH279575   0.481   5.685   4.279  0.1683 -0.4386  0.1080
19387TIP3    H179576   0.569   5.717   4.299 -0.0082  0.0340  0.1347
19387TIP3    H279577   0.453   5.641   4.359  0.8344 -1.6166 -0.2941
19388TIP3   OH279578   1.553   4.145   4.456 -0.0061  0.3385 -0.3517
19388TIP3    H179579   1.538   4.055   4.430  1.1825 -0.2491  0.9282
19388TIP3    H279580   1.548   4.143   4.552  1.4811  1.3458 -0.2369
19389TIP3   OH279581   2.610   4.473   3.366  0.0460  0.5114  0.0982
19389TIP3    H179582   2.658   4.521   3.434 -1.3228  0.7902  0.8928
19389TIP3    H279583   2.521   4.466   3.400 -0.1627 -1.2026 -0.7347
19390TIP3   OH279584   3.550   0.807   5.820  0.0316 -0.0736 -0.1361
19390TIP3    H179585   3.507   0.858   5.888 -1.6670  0.3099 -1.4684
19390TIP3    H279586   3.517   0.719   5.831 -0.0628 -0.0612 -0.3185
19391TIP3   OH279587   5.754   5.117   4.416  0.0282 -0.2174  0.1280
19391TIP3    H179588   5.666   5.086   4.396 -0.3137  1.1969 -0.6025
19391TIP3    H279589   5.750   5.145   4.507 -0.2663 -0.1961  0.1072
19392TIP3   OH279590   3.875   3.478   2.783 -0.4846 -0.2811  0.1198
19392TIP3    H179591   3.966   3.489   2.812 -0.0453 -0.9961 -0.9443
19392TIP3    H279592   3.834   3.425   2.851  0.0614 -0.4905  0.2890
19393TIP3   OH279593   1.515   0.363   1.976  0.3585  0.3107 -0.2874
19393TIP3    H179594   1.460   0.329   2.047  1.5021 -0.8888  0.0277
19393TIP3    H279595   1.551   0.444   2.011  2.2481 -1.1230  1.1482
19394TIP3   OH279596   0.020   6.152   4.701 -0.6193  0.3980  0.5398
19394TIP3    H179597   0.058   6.065   4.702  0.4663  0.8662  2.3395
19394TIP3    H279598  -0.075   6.137   4.700 -0.4447 -0.7658 -2.2804
19395TIP3   OH279599   2.336   6.847   5.671 -0.9725  0.2242  0.5566
19395TIP3    H179600   2.273   6.853   5.598 -1.3673  2.0115  1.0218
19395TIP3    H279601   2.281   6.849   5.750 -0.4776 -0.6833  0.9255
19396TIP3   OH279602   3.991   6.924   5.456  0.1639  0.3368  0.1760
19396TIP3    H179603   4.063   6.869   5.427 -0.5375 -1.2969  1.4568
19396TIP3    H279604   4.029   6.983   5.521  0.2343 -0.9265  1.2884
19397TIP3   OH279605   4.955   6.711   5.120  0.3232 -0.2805 -0.2156
19397TIP3    H179606   5.049   6.693   5.112  0.5923  1.0056 -0.1111
19397TIP3    H279607   4.948   6.762   5.200 -0.6031 -1.2283  0.3157
19398TIP3   OH279608   2.350   2.739   3.920  0.5866  0.6135 -0.0767
19398TIP3    H179609   2.356   2.666   3.982 -1.3457  0.6612  0.1728
19398TIP3    H279610   2.264   2.778   3.936 -0.6336 -0.3472 -3.8898
19399TIP3   OH279611   4.281   0.122   0.077 -0.3761  0.2635 -0.4424
19399TIP3    H179612   4.284   0.085   0.165  0.2404  1.0935 -0.1146
19399TIP3    H279613   4.335   0.201   0.081  0.1473 -0.0170 -1.7212
19400TIP3   OH279614   4.528   5.108   4.986  0.1392 -0.3285 -0.5476
19400TIP3    H179615   4.566   5.149   5.064  0.3377  0.9965 -1.3340
19400TIP3    H279616   4.470   5.175   4.949  1.2117 -0.3921 -2.3928
19401TIP3   OH279617   2.060   2.689   3.277  0.7495  0.0054  0.9006
19401TIP3    H179618   1.972   2.706   3.310  1.0386 -1.1595  2.3393
19401TIP3    H279619   2.058   2.719   3.186 -0.7287  1.2217  1.3063
19402TIP3   OH279620   2.819   4.336   4.290 -0.3303 -0.0007  0.3926
19402TIP3    H179621   2.761   4.349   4.365 -1.3552  1.1681 -0.5707
19402TIP3    H279622   2.759   4.315   4.218  0.4686  1.0814 -0.5934
19403TIP3   OH279623   4.140   6.698   3.589  0.1457 -0.2278  0.0575
19403TIP3    H179624   4.095   6.627   3.635 -1.7234  1.0895  0.3372
19403TIP3    H279625   4.137   6.672   3.496  2.2204 -1.9631  0.4425
19404TIP3   OH279626   4.621   6.404   4.800  0.1344 -0.3797 -0.3687
19404TIP3    H179627   4.639   6.406   4.894 -0.2739 -1.4707 -0.2559
19404TIP3    H279628   4.697   6.361   4.761  0.8854  1.2203 -0.6922
19405TIP3   OH279629   0.515   4.715   4.507  0.2522  0.0146 -0.5069
19405TIP3    H179630   0.572   4.661   4.453  0.5002  0.0671 -0.3022
19405TIP3    H279631   0.566   4.733   4.586 -0.8051 -1.6520  0.5992
19406TIP3   OH279632   1.397   7.055   5.131 -0.3678 -0.5587  0.3592
19406TIP3    H179633   1.328   7.048   5.196  0.8442 -0.7974  1.6288
19406TIP3    H279634   1.403   6.967   5.094 -0.5013 -0.6199  0.4801
19407TIP3   OH279635   5.484   5.414   4.674 -0.1129 -0.1540 -0.8341
19407TIP3    H179636   5.534   5.396   4.754 -0.5289  1.2536 -0.2364
19407TIP3    H279637   5.508   5.343   4.614  1.3459 -0.4011  0.0175
19408TIP3   OH279638   3.976   2.127   5.359 -0.1043  0.0329  0.2307
19408TIP3    H179639   4.036   2.096   5.427  0.0436 -0.8562 -0.2946
19408TIP3    H279640   3.993   2.221   5.352  0.7257 -0.0922  0.5853
19409TIP3   OH279641   3.177   6.881   4.751  1.2864 -0.3118 -0.0967
19409TIP3    H179642   3.267   6.847   4.751  1.5502  0.3619 -1.3347
19409TIP3    H279643   3.152   6.883   4.659  0.5223  0.8857  0.1267
19410TIP3   OH279644   7.108   3.004   5.316 -0.2607  0.6537  0.0170
19410TIP3    H179645   7.125   2.959   5.233 -2.9212  1.7998 -1.2189
19410TIP3    H279646   7.195   3.025   5.350  0.9501 -2.3078 -1.0772
19411TIP3   OH279647   2.457   6.654   6.365 -0.3366  0.2132 -0.4324
19411TIP3    H179648   2.549   6.683   6.362 -0.1173 -0.3649  0.4652
19411TIP3    H279649   2.409   6.722   6.318  0.2225  1.8284  1.2764
19412TIP3   OH279650   5.868   5.752   4.267 -0.1443 -0.1118 -0.0620
19412TIP3    H179651   5.788   5.783   4.224 -0.7214 -1.0621  0.3091
19412TIP3    H279652   5.854   5.658   4.277  0.4170 -0.0522  1.2784
19413TIP3   OH279653   3.175   5.946   6.277 -0.1480 -0.1833  0.4486
19413TIP3    H179654   3.158   6.012   6.209  1.0514 -0.6330 -0.3005
19413TIP3    H279655   3.205   5.997   6.352  1.0965  0.1079 -0.2334
19414TIP3   OH279656   3.478   6.963   6.003  0.1479  0.4977 -0.1555
19414TIP3    H179657   3.552   6.976   5.944  1.7151  0.2041  1.6970
19414TIP3    H279658   3.471   6.868   6.014 -0.0245  0.5519  0.2450
19415TIP3   OH279659   2.570   5.094   3.318  0.3483 -0.1989 -0.7175
19415TIP3    H179660   2.553   5.019   3.375 -0.3246 -0.7104 -1.5724
19415TIP3    H279661   2.603   5.055   3.237 -1.1128  0.3549 -1.5885
19416TIP3   OH279662   2.533   5.187   4.251 -0.1485 -0.2813 -0.2976
19416TIP3    H179663   2.626   5.184   4.232 -0.0689  0.9712 -0.1455
19416TIP3    H279664   2.491   5.151   4.173  0.3354  1.7591 -1.5325
19417TIP3   OH279665   0.517   5.943   1.698  0.0699 -0.0438 -0.0228
19417TIP3    H179666   0.449   5.946   1.766  0.3764  0.0816  0.2761
19417TIP3    H279667   0.528   5.849   1.679  0.7407 -0.1510  0.8570
19418TIP3   OH279668   1.572   0.562   5.561 -0.0973 -0.2398 -0.2977
19418TIP3    H179669   1.530   0.633   5.610  0.3611 -2.0824  2.8911
19418TIP3    H279670   1.549   0.580   5.469 -2.4601  2.3344  0.7052
19419TIP3   OH279671   0.123   5.994   5.518 -0.0385 -0.6887  0.5084
19419TIP3    H179672   0.176   6.074   5.525 -1.0556 -0.0208  0.6159
19419TIP3    H279673   0.097   5.975   5.608 -1.0412 -0.2973  0.3016
19420TIP3   OH279674   3.801   5.039   3.991 -0.6183  0.3406 -0.2677
19420TIP3    H179675   3.796   5.134   4.003 -0.4956  0.3978 -0.6513
19420TIP3    H279676   3.893   5.017   4.006 -0.7971  0.1761  0.5688
19421TIP3   OH279677   3.614   5.339   5.241  0.4296  0.3202  0.0633
19421TIP3    H179678   3.546   5.280   5.209  0.4252  0.7145 -0.6839
19421TIP3    H279679   3.680   5.282   5.279 -0.0202 -0.1061  0.2036
19422TIP3   OH279680   0.353   5.177   5.292  0.2099 -0.1759 -0.1235
19422TIP3    H179681   0.373   5.084   5.278 -0.6980 -0.4544  0.3934
19422TIP3    H279682   0.311   5.206   5.211  0.2371 -0.2890 -0.1771
19423TIP3   OH279683   1.763   1.770   5.196  0.2900  0.2733 -0.6195
19423TIP3    H179684   1.819   1.846   5.181 -0.6330  1.1465  0.3250
19423TIP3    H279685   1.679   1.794   5.158 -0.0017 -0.2756 -0.3258
19424TIP3   OH279686   1.640   6.067   6.271 -0.2685 -0.0781  0.2583
19424TIP3    H179687   1.731   6.097   6.262 -0.9427  1.6951 -0.8137
19424TIP3    H279688   1.641   5.978   6.236  1.4590 -0.8104  2.0822
19425TIP3   OH279689   5.572   5.545   5.454  0.0102  0.0890  0.3481
19425TIP3    H179690   5.525   5.525   5.536 -0.7570 -0.2405 -0.1705
19425TIP3    H279691   5.523   5.499   5.386  1.9056 -1.4293 -0.0302
19426TIP3   OH279692   5.799   7.286   4.951 -0.0419 -0.0355  0.7291
19426TIP3    H179693   5.853   7.338   4.891  0.1290 -1.0708 -0.0345
19426TIP3    H279694   5.723   7.341   4.968 -0.2182  0.1764 -0.6479
19427TIP3   OH279695   3.377   6.710   5.993 -0.1585 -0.1889 -0.0767
19427TIP3    H179696   3.283   6.696   5.993 -0.3003  0.7059  0.2502
19427TIP3    H279697   3.404   6.692   6.083 -0.1138  0.1370 -0.0238
19428TIP3   OH279698   5.026   1.262   4.860  0.1350  0.6776 -0.0172
19428TIP3    H179699   4.946   1.290   4.905  1.6262  4.6419  0.3120
19428TIP3    H279700   5.020   1.300   4.773  2.7105  3.0786  0.7810
19429TIP3   OH279701   0.613   6.670   3.734 -0.0792  0.1674  0.4490
19429TIP3    H179702   0.543   6.691   3.795 -1.1422 -1.8171 -0.0428
19429TIP3    H279703   0.574   6.683   3.647  1.0577  1.8366  0.1656
19430TIP3   OH279704   3.806   3.763   4.040 -0.3956 -0.0954  0.3328
19430TIP3    H179705   3.833   3.855   4.033 -1.8550  0.3858  0.7619
19430TIP3    H279706   3.847   3.732   4.121 -0.2186  0.2877  0.3923
19431TIP3   OH279707   5.180   5.671   5.399 -0.2979 -0.1207  0.4567
19431TIP3    H179708   5.166   5.580   5.425 -1.1990  0.0564  0.6135
19431TIP3    H279709   5.098   5.715   5.423  0.3104  0.8219  0.8164
19432TIP3   OH279710   5.339   5.460   2.733  0.0564  0.2969  0.2584
19432TIP3    H179711   5.264   5.457   2.792 -0.1682 -0.2074 -0.0562
19432TIP3    H279712   5.410   5.497   2.786  0.1629 -1.1969  1.1733
19433TIP3   OH279713   5.818   7.212   4.505  0.0034 -0.2932 -0.5840
19433TIP3    H179714   5.897   7.262   4.523 -0.7670  0.3708  1.1765
19433TIP3    H279715   5.769   7.265   4.443  0.9873 -0.7682 -1.7704
19434TIP3   OH279716   5.751   0.665   5.149 -0.0718 -0.3230  0.4129
19434TIP3    H179717   5.765   0.676   5.055  0.8696  0.6956  0.6637
19434TIP3    H279718   5.670   0.713   5.166  0.9366  1.4006  0.4874
19435TIP3   OH279719   5.923   5.839   3.866  0.1082  0.8455 -0.1078
19435TIP3    H179720   5.834   5.875   3.874 -0.9007 -1.1147 -2.0907
19435TIP3    H279721   5.910   5.748   3.840  2.7304  0.6898 -0.9676
19436TIP3   OH279722   6.649   5.808   4.873 -0.5287 -0.1582 -0.1447
19436TIP3    H179723   6.732   5.768   4.848 -1.5307 -1.3073 -1.7223
19436TIP3    H279724   6.674   5.888   4.919  1.4538 -0.9720  0.2246
19437TIP3   OH279725   6.556   3.412   2.159  1.0360  0.0986  0.0803
19437TIP3    H179726   6.637   3.420   2.108  1.7489 -1.7502  0.8940
19437TIP3    H279727   6.576   3.452   2.243  0.8939  0.2269  0.0531
19438TIP3   OH279728   1.016   6.678   2.935 -0.2632  0.0258  0.4913
19438TIP3    H179729   1.041   6.626   3.012 -0.1430  0.3694  0.6875
19438TIP3    H279730   1.043   6.767   2.957 -2.0223  0.4819  0.8842
19439TIP3   OH279731   2.665   6.719   3.912  0.5222 -0.0100  0.5737
19439TIP3    H179732   2.598   6.682   3.854  0.0159  1.0030  0.5018
19439TIP3    H279733   2.732   6.753   3.853  1.2397 -1.2571  0.6521
19440TIP3   OH279734   5.820   5.836   3.548 -0.1145  0.6391  0.1414
19440TIP3    H179735   5.887   5.901   3.528 -0.0817  0.9136  1.1273
19440TIP3    H279736   5.864   5.752   3.534 -0.1124  0.8195 -0.9802
19441TIP3   OH279737   3.393   0.570   1.395  0.5345  0.2971 -0.4421
19441TIP3    H179738   3.311   0.588   1.440  1.2511  3.1785 -0.1792
19441TIP3    H279739   3.386   0.478   1.367 -1.7026 -0.2501  1.7487
19442TIP3   OH279740   2.191   7.009   4.397  0.1884 -0.7120 -0.1238
19442TIP3    H179741   2.284   6.998   4.379  0.2920 -1.7623  0.9695
19442TIP3    H279742   2.147   6.958   4.330  0.4791 -1.9816  0.6210
19443TIP3   OH279743   6.489   6.460   4.862  0.2609 -0.0328 -0.4774
19443TIP3    H179744   6.512   6.552   4.873 -1.7694  0.5121 -0.7005
19443TIP3    H279745   6.478   6.427   4.951  2.4659 -0.4690 -0.3373
19444TIP3   OH279746   6.571   1.429   5.099 -0.3708 -0.0005  0.3182
19444TIP3    H179747   6.665   1.411   5.097 -0.8346 -2.4294 -1.1945
19444TIP3    H279748   6.533   1.356   5.147 -1.5017  1.0127  0.9985
19445TIP3   OH279749   4.426   5.482   3.560 -0.0284 -0.4644 -0.7317
19445TIP3    H179750   4.356   5.452   3.619  0.3013  0.0627 -0.0661
19445TIP3    H279751   4.450   5.404   3.510 -1.8674 -0.3927 -1.7711
19446TIP3   OH279752   7.035   0.439   5.448 -0.2115  0.2294 -0.5083
19446TIP3    H179753   7.125   0.467   5.433 -0.3720  0.7998 -0.4494
19446TIP3    H279754   6.991   0.518   5.481 -0.6936 -0.0822 -0.4023
19447TIP3   OH279755   5.703   7.095   4.739 -0.7915  0.4491 -0.5629
19447TIP3    H179756   5.709   7.173   4.794 -0.4651 -0.7362  1.1176
19447TIP3    H279757   5.746   7.119   4.658  0.1318  1.7278  0.2925
19448TIP3   OH279758   7.139   5.952   2.744 -0.2308  0.0474  0.2254
19448TIP3    H179759   7.133   5.860   2.720  1.0245  0.2243 -0.8285
19448TIP3    H279760   7.227   5.961   2.781  0.8606  1.4462 -2.5646
19449TIP3   OH279761   5.291   1.138   3.550  0.1804 -0.5749 -0.1962
19449TIP3    H179762   5.327   1.060   3.593  1.4003 -0.7201 -1.4437
19449TIP3    H279763   5.332   1.212   3.596 -0.0599 -0.6896  0.2032
19450TIP3   OH279764   5.003   6.532   5.641  0.4149 -0.0641 -0.1179
19450TIP3    H179765   5.008   6.501   5.551  0.6524  0.2513 -0.2131
19450TIP3    H279766   5.024   6.625   5.636 -0.2514  0.0985  0.1755
19451TIP3   OH279767   1.222   4.830   4.896 -0.6090 -0.0992  0.3852
19451TIP3    H179768   1.232   4.735   4.893 -2.0782 -0.2975  0.9893
19451TIP3    H279769   1.193   4.854   4.808 -3.2194 -0.6198  1.0633
19452TIP3   OH279770   0.772   4.612   5.219  0.9020 -0.5459  0.0824
19452TIP3    H179771   0.751   4.670   5.292 -3.5222 -1.8119 -0.0494
19452TIP3    H279772   0.782   4.526   5.259  0.7977 -0.8459 -0.5359
19453TIP3   OH279773   3.019   4.666   5.375  0.8465  0.1175  0.2553
19453TIP3    H179774   2.997   4.725   5.447  0.1113 -1.1452  1.0866
19453TIP3    H279775   2.936   4.625   5.350  1.4238 -0.9887  0.0833
19454TIP3   OH279776   5.489   1.674   4.468 -0.1255 -0.2111  0.3261
19454TIP3    H179777   5.484   1.703   4.559  0.4687 -1.4950  0.7851
19454TIP3    H279778   5.575   1.632   4.461 -0.3195 -0.4325 -0.7186
19455TIP3   OH279779   7.031   5.710   2.242 -0.1629  0.4902  0.0966
19455TIP3    H179780   7.066   5.705   2.331  1.2984 -0.3726 -0.5238
19455TIP3    H279781   7.061   5.630   2.199 -2.3205  0.0534 -0.6591
19456TIP3   OH279782   0.752   0.540   5.355  0.8565 -0.4218 -0.0242
19456TIP3    H179783   0.677   0.482   5.343  0.6113 -0.0666 -0.1929
19456TIP3    H279784   0.827   0.480   5.364  0.4247 -0.8153  1.1375
19457TIP3   OH279785   6.236   7.016   5.757 -0.2414 -0.2202  0.2808
19457TIP3    H179786   6.214   7.048   5.845 -0.8419  0.2885 -0.0508
19457TIP3    H279787   6.204   7.084   5.698  1.4491  0.1194 -0.2672
19458TIP3   OH279788   7.163   2.714   2.354 -0.1417 -0.3453 -0.0753
19458TIP3    H179789   7.227   2.643   2.350  0.3318  0.1056 -0.5927
19458TIP3    H279790   7.153   2.733   2.447  0.3514 -0.5236  0.0134
19459TIP3   OH279791   0.276   5.625   5.418  0.3071 -0.7885 -0.2028
19459TIP3    H179792   0.249   5.683   5.346 -0.4812 -1.9478 -0.8525
19459TIP3    H279793   0.210   5.556   5.419  0.5438 -0.9974  1.3905
19460TIP3   OH279794   2.231   6.396   1.903 -0.6183 -0.3861 -0.0105
19460TIP3    H179795   2.220   6.426   1.812  0.1445 -1.2266 -0.3906
19460TIP3    H279796   2.266   6.307   1.894  1.5606  0.3069  1.0957
19461TIP3   OH279797   1.004   0.593   5.992 -0.5280  0.3035  0.7292
19461TIP3    H179798   1.056   0.518   6.023  1.7650  1.1297 -0.9230
19461TIP3    H279799   1.009   0.656   6.063 -0.3608 -0.1434  1.1162
19462TIP3   OH279800   3.265   6.212   5.427  0.2536  0.2431  0.2129
19462TIP3    H179801   3.355   6.193   5.400  0.3044  3.1799 -1.8465
19462TIP3    H279802   3.259   6.308   5.426 -2.6072  0.1287  1.3704
19463TIP3   OH279803   6.731   5.610   3.121  0.2179 -0.1478  0.1065
19463TIP3    H179804   6.658   5.646   3.070  0.5246  0.3232  0.0052
19463TIP3    H279805   6.806   5.665   3.098  0.5265 -0.4076  0.4912
19464TIP3   OH279806   0.571   4.869   1.680  0.0625 -0.2341 -0.4565
19464TIP3    H179807   0.540   4.803   1.619  0.6361  0.3497 -1.4080
19464TIP3    H279808   0.608   4.820   1.752 -1.1678 -0.9338 -0.2932
19465TIP3   OH279809   5.247   0.630   5.803  0.1434 -0.1257  0.7102
19465TIP3    H179810   5.191   0.698   5.840 -2.0184 -1.0784 -0.6978
19465TIP3    H279811   5.212   0.615   5.715  2.6256 -0.7577 -0.2296
19466TIP3   OH279812   6.103   5.364   5.518 -0.1126  0.3602 -0.6463
19466TIP3    H179813   6.087   5.297   5.452 -0.5327  0.1931 -0.3750
19466TIP3    H279814   6.150   5.318   5.588  0.3715  0.5465 -0.8443
19467TIP3   OH279815   1.499   0.726   3.636  0.5941 -0.3266 -0.1210
19467TIP3    H179816   1.480   0.663   3.567  0.5493  1.2795 -1.6067
19467TIP3    H279817   1.444   0.802   3.615  1.0220  0.4086  1.3540
19468TIP3   OH279818   3.496   5.418   3.893  0.1532  0.0028  0.4926
19468TIP3    H179819   3.473   5.476   3.966  0.8970  0.6557  0.2150
19468TIP3    H279820   3.518   5.477   3.821  1.8317 -0.5892  0.4851
19469TIP3   OH279821   5.319   5.995   3.306  0.0608 -0.1504 -0.1714
19469TIP3    H179822   5.297   5.945   3.385  0.1543  1.6097  0.9994
19469TIP3    H279823   5.388   6.055   3.334  0.2389  0.3526 -1.6558
19470TIP3   OH279824   3.934   2.785   4.571  0.0073  0.2331  0.1141
19470TIP3    H179825   3.840   2.772   4.578 -0.1083  0.8606 -0.2401
19470TIP3    H279826   3.969   2.754   4.655 -0.4148 -0.8067 -0.0760
19471TIP3   OH279827   6.705   6.401   3.279  0.5277  0.2293  0.3362
19471TIP3    H179828   6.760   6.414   3.202  1.2889  2.7671  1.2797
19471TIP3    H279829   6.745   6.326   3.324  0.7279 -0.5705 -1.1263
19472TIP3   OH279830   3.530   5.494   4.456 -0.9679  0.5762  0.1923
19472TIP3    H179831   3.457   5.542   4.494 -2.5059 -1.1011 -0.5497
19472TIP3    H279832   3.607   5.530   4.499 -2.1744  2.7004  0.6619
19473TIP3   OH279833   6.867   2.395   3.691  0.4694  0.4258  0.4284
19473TIP3    H179834   6.868   2.357   3.779  4.1829  1.0619  0.7461
19473TIP3    H279835   6.872   2.320   3.633 -1.9970  0.0017  0.7217
19474TIP3   OH279836   2.970   5.965   3.050  0.3411 -0.1614  0.2862
19474TIP3    H179837   3.040   6.005   3.101 -0.0744  0.0727  0.6684
19474TIP3    H279838   2.895   5.962   3.109 -0.1932  0.2817 -0.3712
19475TIP3   OH279839   4.590   4.714   4.865  0.0898  0.2400  0.0164
19475TIP3    H179840   4.547   4.637   4.829  0.8986 -0.5088  0.6356
19475TIP3    H279841   4.656   4.737   4.799  2.3399 -1.8080  1.4892
19476TIP3   OH279842   6.883   1.039   5.490  0.1761  0.2032  0.2440
19476TIP3    H179843   6.926   1.022   5.574  0.5719  0.4310  0.0892
19476TIP3    H279844   6.790   1.048   5.512  0.4499  1.6881  0.8628
19477TIP3   OH279845   4.407   3.400   2.845  0.1321 -0.1441 -0.6648
19477TIP3    H179846   4.444   3.347   2.775  0.6802  0.3730 -0.7629
19477TIP3    H279847   4.396   3.338   2.918 -1.4595 -0.9314 -1.5397
19478TIP3   OH279848   3.379   6.537   4.226 -0.4475  0.6819  0.0303
19478TIP3    H179849   3.361   6.537   4.131 -2.9997 -1.3236  0.4452
19478TIP3    H279850   3.347   6.622   4.256  0.5102  1.3962 -0.9112
19479TIP3   OH279851   4.552   6.793   4.574 -0.2958  0.1129  0.1739
19479TIP3    H179852   4.536   6.703   4.546  0.7480  0.2600 -0.9287
19479TIP3    H279853   4.634   6.789   4.623 -0.4328  0.4100  0.4319
19480TIP3   OH279854   0.048   6.019   4.152 -0.1628  0.2815 -0.0564
19480TIP3    H179855   0.044   6.012   4.248  0.0646  2.0131  0.1014
19480TIP3    H279856   0.022   5.933   4.120 -0.4059 -0.2613  1.5672
19481TIP3   OH279857   5.057   5.222   5.783  0.1616 -0.0490 -0.4228
19481TIP3    H179858   5.075   5.293   5.843 -1.4164  1.7517 -2.0044
19481TIP3    H279859   5.127   5.227   5.718 -0.8104  1.0944 -1.4094
19482TIP3   OH279860   4.626   6.109   5.457  0.1784  0.0897 -0.2896
19482TIP3    H179861   4.642   6.199   5.430  2.4246 -0.0312  0.4771
19482TIP3    H279862   4.583   6.068   5.383 -1.0102  1.8415 -0.5794
19483TIP3   OH279863   4.456   5.719   5.334  0.5937 -0.0392 -0.8426
19483TIP3    H179864   4.500   5.634   5.340  1.0235  0.4016  4.1583
19483TIP3    H279865   4.363   5.697   5.326  0.7621 -0.9711 -0.3171
19484TIP3   OH279866   1.745   6.383   2.718 -0.2710  0.5413 -0.3255
19484TIP3    H179867   1.829   6.390   2.673 -1.7212  0.8188 -3.0910
19484TIP3    H279868   1.734   6.289   2.733  1.2358  0.6314  1.4889
19485TIP3   OH279869   2.615   2.370   6.092 -0.0287  0.4643 -0.1756
19485TIP3    H179870   2.520   2.359   6.093  0.0940 -1.1105 -2.2895
19485TIP3    H279871   2.632   2.426   6.015  0.7824  0.4029 -0.0503
19486TIP3   OH279872   1.210   3.092   2.553  0.1069  0.2357 -0.1163
19486TIP3    H179873   1.139   3.138   2.508  0.9570  1.3290 -0.3741
19486TIP3    H279874   1.174   3.070   2.639 -1.5409 -1.8737 -1.2845
19487TIP3   OH279875   5.094   0.418  15.140 -0.1393  0.5802 -0.0394
19487TIP3    H179876   5.135   0.501  15.115 -1.8346  1.3445 -0.4016
19487TIP3    H279877   5.105   0.362  15.063 -0.9120  1.2368 -0.6514
19488TIP3   OH279878   4.802   1.928   3.863 -0.0955  0.6063  0.2752
19488TIP3    H179879   4.775   1.990   3.794  2.1337 -0.4110 -1.5424
19488TIP3    H279880   4.873   1.973   3.909 -0.6095  0.6708  1.0326
19489TIP3   OH279881   6.732   0.484   4.976  0.3236  0.4014 -0.0396
19489TIP3    H179882   6.687   0.452   4.899 -0.7350  0.2667  0.6279
19489TIP3    H279883   6.731   0.579   4.967  2.8753  0.3172 -1.6866
19490TIP3   OH279884   4.498   6.351   1.736 -0.3729 -0.5424  0.6202
19490TIP3    H179885   4.491   6.394   1.821 -2.0952 -0.6280  0.5373
19490TIP3    H279886   4.439   6.401   1.678 -0.8543 -1.7639  0.0277
19491TIP3   OH279887   6.732   4.126   4.418 -0.5956 -0.3860  0.2456
19491TIP3    H179888   6.723   4.207   4.466 -0.7680 -0.8029  0.9229
19491TIP3    H279889   6.671   4.134   4.345  1.8275  1.4885 -1.6452
19492TIP3   OH279890   4.481   0.795   4.555 -0.4905  0.0918  0.3562
19492TIP3    H179891   4.486   0.828   4.466 -2.5613 -1.1163 -0.2305
19492TIP3    H279892   4.565   0.752   4.569  0.2093  1.0906 -0.6586
19493TIP3   OH279893   6.617   3.387   5.413  0.5549 -0.0453  0.1839
19493TIP3    H179894   6.685   3.329   5.448  1.8169  1.4330  0.2500
19493TIP3    H279895   6.655   3.420   5.331 -0.9675 -0.8425 -0.8572
19494TIP3   OH279896   3.139   5.849   4.727 -0.5091 -0.0224 -0.3592
19494TIP3    H179897   3.053   5.866   4.766 -0.7736 -0.9581 -0.5174
19494TIP3    H279898   3.120   5.787   4.656  0.3506 -0.5589 -0.1236
19495TIP3   OH279899   2.989   6.427   5.824  0.1717  0.6630 -0.0198
19495TIP3    H179900   3.068   6.373   5.834  1.0565  1.7312 -1.0983
19495TIP3    H279901   2.980   6.472   5.908  1.9543  2.1597 -0.6028
19496TIP3   OH279902   5.575   6.844   3.853 -0.3254  0.4469  0.2710
19496TIP3    H179903   5.639   6.911   3.832  0.5000  0.3543  2.3813
19496TIP3    H279904   5.621   6.761   3.837 -0.8802  0.3666 -0.9733
19497TIP3   OH279905   5.840   0.419   4.605  0.2065  0.3730 -0.2285
19497TIP3    H179906   5.908   0.352   4.612 -0.7282 -0.4853  0.6965
19497TIP3    H279907   5.797   0.401   4.521  0.4048  0.2580 -0.3066
19498TIP3   OH279908   6.608   1.154   4.638 -0.0290 -0.3468  0.1586
19498TIP3    H179909   6.695   1.122   4.617  0.0340 -0.2344  0.2473
19498TIP3    H279910   6.615   1.185   4.728  0.5758  2.2168 -0.7265
19499TIP3   OH279911   1.313   6.918   5.635 -0.3650 -0.0848 -0.3230
19499TIP3    H179912   1.318   6.876   5.721  0.6786 -0.0384 -0.3627
19499TIP3    H279913   1.280   7.006   5.653 -1.7765 -0.6306 -0.1554
19500TIP3   OH279914   1.965   0.554   4.639 -0.2070  0.1428  0.4628
19500TIP3    H179915   1.908   0.570   4.714 -0.1043  3.5807 -0.1039
19500TIP3    H279916   2.015   0.636   4.629  3.4012 -2.0605 -0.2797
19501TIP3   OH279917   2.240   4.749   4.566 -0.1715  0.2461 -0.2009
19501TIP3    H179918   2.199   4.833   4.546 -0.0113  0.0853 -1.2234
19501TIP3    H279919   2.204   4.689   4.501  0.2300 -0.3252  0.0996
19502TIP3   OH279920   4.445   1.225   3.790 -0.0938  0.4321 -0.1300
19502TIP3    H179921   4.439   1.258   3.700 -1.3888 -1.2631 -0.6897
19502TIP3    H279922   4.356   1.199   3.812  0.3149  0.3613  1.4749
19503TIP3   OH279923   4.100   6.405   5.331 -0.0368  0.0247 -0.1103
19503TIP3    H179924   4.092   6.310   5.330 -0.6426  0.0782 -1.8706
19503TIP3    H279925   4.038   6.435   5.265 -0.1703  1.6766  0.7336
19504TIP3   OH279926   5.306   1.300   5.078 -0.1642  0.0262  0.1373
19504TIP3    H179927   5.251   1.345   5.013 -1.7185 -1.5211  0.3713
19504TIP3    H279928   5.305   1.358   5.154 -0.9335  0.3122 -0.0860
19505TIP3   OH279929   5.285   7.253   2.988 -0.3085 -0.1856  0.1749
19505TIP3    H179930   5.198   7.219   2.967 -0.4556 -0.6133  1.4787
19505TIP3    H279931   5.342   7.177   2.987  0.3422  0.2783 -2.0696
19506TIP3   OH279932   4.477   0.270   5.106  0.0659 -0.2304 -0.3047
19506TIP3    H179933   4.506   0.348   5.155 -3.9535  0.9250  0.4164
19506TIP3    H279934   4.477   0.200   5.171  0.1049  0.0396 -0.0090
19507TIP3   OH279935   3.162   6.613   4.440 -0.4883  0.6058 -0.6189
19507TIP3    H179936   3.085   6.641   4.489  0.1577  0.9251  0.2268
19507TIP3    H279937   3.230   6.602   4.506  0.1513  0.1788 -1.3397
19508TIP3   OH279938   3.825   6.754   5.330  0.5642  0.0171  0.2697
19508TIP3    H179939   3.874   6.758   5.247 -1.2561  1.7737 -0.7955
19508TIP3    H279940   3.879   6.802   5.392  1.1545  0.1712 -0.3555
19509TIP3   OH279941   3.911   5.849   4.019  0.3801 -0.5255  0.2367
19509TIP3    H179942   3.821   5.836   3.991  0.1324  0.2806  0.6485
19509TIP3    H279943   3.956   5.885   3.942 -0.3252  1.7953  0.8641
19510TIP3   OH279944   1.868   6.052   1.919  0.3217  0.1446  0.3592
19510TIP3    H179945   1.842   6.067   1.828 -1.5361  1.7123  1.1019
19510TIP3    H279946   1.843   6.132   1.965  0.2801 -1.0168  2.4477
19511TIP3   OH279947   6.720   3.257   5.138  0.2656 -0.0883 -0.4789
19511TIP3    H179948   6.766   3.224   5.061  0.4013 -0.8550 -0.0713
19511TIP3    H279949   6.755   3.205   5.211  0.4212  0.8889  0.1557
19512TIP3   OH279950   5.441   1.233   3.964  0.8683  0.4202  0.4190
19512TIP3    H179951   5.471   1.317   3.998  0.0727  1.0955 -0.5117
19512TIP3    H279952   5.397   1.255   3.882  0.3349 -0.8614  0.3530
19513TIP3   OH279953   1.533   5.817  15.024 -0.3137 -0.6063 -0.1086
19513TIP3    H179954   1.581   5.876  14.966 -2.2283 -1.3482 -2.5360
19513TIP3    H279955   1.516   5.868  15.103 -0.8922  1.6672 -1.6786
19514TIP3   OH279956   4.683   6.385   5.374  0.2847  0.1888  0.0762
19514TIP3    H179957   4.616   6.453   5.378  0.6772  0.6016 -0.2614
19514TIP3    H279958   4.766   6.432   5.388  0.5008 -0.3239  0.5605
19515TIP3   OH279959   5.093   5.162   2.334 -0.1327  0.1999 -0.3107
19515TIP3    H179960   5.161   5.218   2.373  0.3650 -0.4475 -0.2414
19515TIP3    H279961   5.113   5.162   2.241 -1.1816  1.5550 -0.5424
19516TIP3   OH279962   6.419   6.006   2.735 -0.0834 -0.3442 -0.1578
19516TIP3    H179963   6.444   6.043   2.820  1.3760  1.1534 -1.1758
19516TIP3    H279964   6.333   5.969   2.748 -0.5439  1.2694  1.6032
19517TIP3   OH279965   0.622   1.162   4.567  0.2299  0.0885 -0.0613
19517TIP3    H179966   0.686   1.095   4.545  1.2962  1.0761 -0.0036
19517TIP3    H279967   0.577   1.180   4.484  1.4356  0.8520 -0.5663
19518TIP3   OH279968   6.567   5.767   5.360 -0.1149  0.2099  0.2268
19518TIP3    H179969   6.544   5.675   5.344  1.6666 -0.5085  1.6319
19518TIP3    H279970   6.530   5.814   5.285 -2.0284 -1.4827  0.0459
19519TIP3   OH279971   0.427   6.395   2.292  0.0429  0.0782  0.5622
19519TIP3    H179972   0.348   6.397   2.347 -1.3293  0.4757 -1.3715
19519TIP3    H279973   0.484   6.462   2.330 -1.2992  1.0448  0.9201
19520TIP3   OH279974   5.358   5.749   2.635 -0.4304 -0.0755  0.2528
19520TIP3    H179975   5.381   5.751   2.542 -0.4810 -0.5621  0.2257
19520TIP3    H279976   5.358   5.656   2.657 -0.9621  0.0085  0.6061
19521TIP3   OH279977   5.044   5.076   1.919  0.3652 -0.3262 -0.2122
19521TIP3    H179978   5.046   4.985   1.948 -0.5542 -0.0995  0.5927
19521TIP3    H279979   5.130   5.091   1.881  1.7528 -0.5513  2.7165
19522TIP3   OH279980   1.892   2.290   3.469  0.3831 -0.0940 -0.4345
19522TIP3    H179981   1.936   2.374   3.480  0.4026 -0.2658  0.9293
19522TIP3    H279982   1.960   2.230   3.438  0.1755  0.5820 -2.2310
19523TIP3   OH279983   3.966   7.147   1.051  0.2200  0.7867  0.1304
19523TIP3    H179984   3.968   7.053   1.035  1.3523  0.7725  0.3724
19523TIP3    H279985   4.056   7.176   1.041  0.1237  1.6102  1.4791
19524TIP3   OH279986   5.529   3.931   2.977  0.5595  0.0178 -0.2604
19524TIP3    H179987   5.538   4.022   3.005  1.4293 -0.3220  0.5752
19524TIP3    H279988   5.477   3.936   2.897  0.0830  1.1977  0.1128
19525TIP3   OH279989   5.334   6.193   5.973  0.2160  0.4270  0.3909
19525TIP3    H179990   5.275   6.159   6.040 -1.9628  0.4758 -1.4447
19525TIP3    H279991   5.355   6.117   5.919  0.7953  0.6595  0.2919
19526TIP3   OH279992   5.153   6.714   4.401 -0.1758 -0.2109  0.1307
19526TIP3    H179993   5.238   6.758   4.394  0.7715 -1.8603  0.7624
19526TIP3    H279994   5.112   6.754   4.478  0.4009  0.0241  0.3247
19527TIP3   OH279995   1.321   5.831   4.640 -0.0187 -0.0535 -0.5273
19527TIP3    H179996   1.324   5.776   4.718  3.1858 -0.7054 -1.0374
19527TIP3    H279997   1.263   5.903   4.663  1.4953  0.1819  2.7727
19528TIP3   OH279998   4.492   0.857   5.439 -0.3976 -0.5662  0.3888
19528TIP3    H179999   4.427   0.803   5.393  0.1588 -2.5086  1.8071
19528TIP3    H280000   4.499   0.936   5.386 -4.5692  0.1150  0.6614
19529TIP3   OH280001   3.602   5.221   4.518 -0.3818 -0.0592 -0.4896
19529TIP3    H180002   3.693   5.238   4.542 -0.7828  0.3139  0.8277
19529TIP3    H280003   3.565   5.308   4.503 -0.6993 -0.1646 -0.3233
19530TIP3   OH280004   5.824   6.160   4.631  0.1211  0.2392 -0.2094
19530TIP3    H180005   5.875   6.173   4.551  0.9217  1.9788  0.5611
19530TIP3    H280006   5.748   6.218   4.622 -0.1413 -0.0717 -0.0171
19531TIP3   OH280007   4.888   7.096   2.599  0.1193  0.4374  0.2542
19531TIP3    H180008   4.926   7.148   2.670 -1.0260  1.0872  0.3994
19531TIP3    H280009   4.821   7.043   2.642  0.1271  0.0733 -0.1851
19532TIP3   OH280010   3.677   1.827   5.635 -0.6680 -0.0967 -0.4296
19532TIP3    H180011   3.647   1.852   5.722  0.5630  0.6312 -0.2040
19532TIP3    H280012   3.613   1.761   5.606 -2.6627  1.6476 -0.1168
19533TIP3   OH280013   5.534   5.358   1.221  0.6060 -0.3866  0.1549
19533TIP3    H180014   5.492   5.444   1.221 -1.8771 -1.5349 -0.7351
19533TIP3    H280015   5.556   5.342   1.313  1.9461  1.5591  0.1993
19534TIP3   OH280016   2.128   3.275   5.167  0.3312 -0.3879  0.8037
19534TIP3    H180017   2.180   3.247   5.242  2.9363 -0.3855 -0.9106
19534TIP3    H280018   2.091   3.194   5.132  0.6859 -0.6192  0.9596
19535TIP3   OH280019   1.652   6.935   2.773  0.2249 -0.1109  0.3108
19535TIP3    H180020   1.602   6.856   2.755 -0.7847  0.4517  0.5829
19535TIP3    H280021   1.602   6.980   2.841  0.9311  0.6266  0.3551
19536TIP3   OH280022   2.529   5.980   0.811  0.5135 -0.0992 -0.3259
19536TIP3    H180023   2.455   5.943   0.763  0.9966 -1.3843 -0.0758
19536TIP3    H280024   2.594   6.001   0.743 -0.0243  0.9454 -0.5355
19537TIP3   OH280025   4.263   3.647   3.690 -0.3080  0.4358 -0.1764
19537TIP3    H180026   4.343   3.599   3.713 -0.5657 -0.0542 -0.3056
19537TIP3    H280027   4.278   3.735   3.723  1.6721  1.2562 -2.9954
19538TIP3   OH280028   5.549   5.800   5.343  0.2871  0.5878 -0.0940
19538TIP3    H180029   5.552   5.727   5.406  1.5548  2.7330  2.4596
19538TIP3    H280030   5.521   5.875   5.395 -1.2560  1.8967 -2.7399
19539TIP3   OH280031   3.317   6.842   2.772 -0.7065 -0.3744  0.5120
19539TIP3    H180032   3.357   6.844   2.859  2.5121 -0.0732 -0.9090
19539TIP3    H280033   3.271   6.925   2.764  2.8473  1.6936  0.2662
19540TIP3   OH280034   4.797   0.921   1.667 -0.0388 -0.3004  0.5803
19540TIP3    H180035   4.742   0.946   1.592 -0.6076 -1.2352  0.6754
19540TIP3    H280036   4.759   0.967   1.741 -0.6891 -0.9313  0.6427
19541TIP3   OH280037   2.808   6.369   1.772 -0.4307 -0.4395 -0.4884
19541TIP3    H180038   2.885   6.316   1.791  1.7396  1.9104 -2.3095
19541TIP3    H280039   2.780   6.342   1.685 -1.0275 -0.5559 -0.2637
19542TIP3   OH280040   6.188   5.876   2.753 -0.1735 -0.0831  0.4762
19542TIP3    H180041   6.108   5.924   2.730  0.2036  1.4871  2.3244
19542TIP3    H280042   6.157   5.797   2.796 -0.7672  0.6752  1.4806
19543TIP3   OH280043   5.349   5.478   4.253 -0.3684 -0.0100  0.2435
19543TIP3    H180044   5.337   5.558   4.303 -2.4459  0.4711 -0.9747
19543TIP3    H280045   5.306   5.410   4.304 -0.9350  0.1529 -0.0142
19544TIP3   OH280046   5.489   5.058   4.398 -0.2670  0.2722 -0.1180
19544TIP3    H180047   5.427   5.019   4.460  0.3279  0.3189  0.5119
19544TIP3    H280048   5.440   5.064   4.316 -0.8033 -0.5466  0.1333
19545TIP3   OH280049   4.420   0.469   5.934  0.1786 -0.0726  0.9146
19545TIP3    H180050   4.461   0.555   5.936 -0.2691  0.2235 -0.9719
19545TIP3    H280051   4.329   0.485   5.958 -0.2445  0.2339 -0.7897
19546TIP3   OH280052   4.462   4.007   4.511 -0.0059  0.3715 -0.3488
19546TIP3    H180053   4.531   3.945   4.531 -1.1980 -0.4782  1.2719
19546TIP3    H280054   4.482   4.038   4.423  3.4100  1.4985  0.7528
19547TIP3   OH280055   5.034   5.836   5.768  0.0078  0.1279 -0.1465
19547TIP3    H180056   4.997   5.898   5.831  1.4539 -0.5190  1.3854
19547TIP3    H280057   5.037   5.753   5.816 -0.8536 -0.8741 -1.7986
19548TIP3   OH280058   1.326   1.128   4.654  0.0922  0.1157  0.2905
19548TIP3    H180059   1.298   1.140   4.745 -1.3495  0.6725 -0.2119
19548TIP3    H280060   1.254   1.078   4.614  0.4506  0.3828 -0.6850
19549TIP3   OH280061   3.872   0.851   4.297  0.2470 -0.4745  0.1781
19549TIP3    H180062   3.847   0.771   4.342  0.4218  1.3177  3.5928
19549TIP3    H280063   3.966   0.843   4.283 -0.3076 -2.4633 -2.9531
19550TIP3   OH280064   4.589   6.417   5.085  0.0674  0.5758  0.2518
19550TIP3    H180065   4.579   6.508   5.114 -1.0850  0.5821 -0.1093
19550TIP3    H280066   4.591   6.366   5.165 -0.2306  0.8447  0.4352
19551TIP3   OH280067   2.547   4.690   4.715 -0.4291 -0.1389  0.1755
19551TIP3    H180068   2.497   4.753   4.767  1.2926 -0.2405  2.0166
19551TIP3    H280069   2.552   4.730   4.628 -1.0795  1.3159  0.7870
19552TIP3   OH280070   4.369   7.043   2.233 -0.5993  0.1740 -0.4523
19552TIP3    H180071   4.366   7.131   2.271 -0.3152 -0.0045 -0.0122
19552TIP3    H280072   4.297   6.996   2.275 -1.0943  0.3459 -1.0843
19553TIP3   OH280073   1.916   0.220   2.964  0.6178  0.3711 -0.4816
19553TIP3    H180074   1.944   0.278   2.893  0.0088 -0.4020 -1.3704
19553TIP3    H280075   1.834   0.182   2.932  1.1229 -1.1468  0.0014
19554TIP3   OH280076   6.101   3.794   3.629 -0.1351 -0.0512 -0.0545
19554TIP3    H180077   6.177   3.736   3.629 -0.9486 -1.1353 -1.2379
19554TIP3    H280078   6.056   3.776   3.546 -1.9682  0.1651  0.8520
19555TIP3   OH280079   4.945   6.894   6.237 -0.6413 -0.2030  0.0877
19555TIP3    H180080   4.889   6.846   6.298  0.5036 -1.4765  0.1410
19555TIP3    H280081   5.030   6.852   6.243  0.1917  1.3584 -0.4260
19556TIP3   OH280082   6.031   2.210   1.866  0.3693  0.4549  0.0321
19556TIP3    H180083   5.965   2.188   1.932 -0.1894  2.2261  0.1034
19556TIP3    H280084   6.084   2.131   1.856 -0.1936 -0.1577  1.8365
19557TIP3   OH280085   4.010   6.168   5.116  0.5942 -0.0416 -0.4836
19557TIP3    H180086   4.030   6.152   5.208 -0.9778 -2.2158 -0.4780
19557TIP3    H280087   4.061   6.246   5.093  1.0595  0.4819  2.1883
19558TIP3   OH280088   3.246   0.119   3.636  0.2824 -0.8780 -0.7713
19558TIP3    H180089   3.189   0.172   3.692 -0.6061 -1.2444 -1.3174
19558TIP3    H280090   3.189   0.087   3.567  0.7308 -2.8682 -0.2490
19559TIP3   OH280091   6.649   5.003   4.706  0.1217  0.2668  0.2216
19559TIP3    H180092   6.582   4.944   4.741 -1.6624  1.6340 -0.8400
19559TIP3    H280093   6.730   4.952   4.712 -1.1009 -1.6899  0.8362
19560TIP3   OH280094   3.831   3.630   5.809 -0.0967  0.5006  0.1707
19560TIP3    H180095   3.914   3.671   5.835 -0.4263  0.9352  0.5376
19560TIP3    H280096   3.786   3.612   5.891  0.0340 -0.5934  0.0144
19561TIP3   OH280097   7.129   4.635   2.749  0.5058 -0.1098  0.4235
19561TIP3    H180098   7.166   4.616   2.836  0.0658  1.3011  0.9325
19561TIP3    H280099   7.034   4.632   2.762  0.4408 -1.3691 -0.3469
19562TIP3   OH280100   7.224   4.840   4.001 -0.1962  0.5513  0.3434
19562TIP3    H180101   7.268   4.778   3.943  1.3636  0.7846  1.2401
19562TIP3    H280102   7.173   4.786   4.061 -1.1486  0.2766 -0.6897
19563TIP3   OH280103   3.781   4.918   4.360  0.4040 -0.2213  0.2493
19563TIP3    H180104   3.785   5.006   4.397  1.3546 -0.7950  1.5593
19563TIP3    H280105   3.696   4.914   4.316 -0.1905  0.9332  1.2554
19564TIP3   OH280106   3.724   4.954   6.139 -0.0918 -0.0464 -0.3378
19564TIP3    H180107   3.794   5.007   6.177  0.2956  0.1522 -1.3163
19564TIP3    H280108   3.769   4.876   6.104 -0.6120 -0.8605  0.7696
19565TIP3   OH280109   4.376   4.483   3.296 -0.0759  0.2700  0.7568
19565TIP3    H180110   4.360   4.400   3.253 -2.8618  1.2165 -0.1273
19565TIP3    H280111   4.370   4.548   3.226  1.4266  1.3004  1.5443
19566TIP3   OH280112   5.191   6.413   3.329 -0.4976 -0.9146  0.4348
19566TIP3    H180113   5.227   6.470   3.262  1.4121 -0.6726  1.6318
19566TIP3    H280114   5.138   6.470   3.384  0.6196 -0.4519  1.0531
19567TIP3   OH280115   5.656   0.852   2.962 -0.5959  0.3044  0.2487
19567TIP3    H180116   5.737   0.836   3.012 -1.3373 -1.5622  0.8917
19567TIP3    H280117   5.687   0.886   2.877  0.7247  2.2812  1.4656
19568TIP3   OH280118   3.191   4.204   3.908  0.1005  0.1382  0.4768
19568TIP3    H180119   3.146   4.146   3.847  1.6225 -0.0338 -0.5184
19568TIP3    H280120   3.127   4.272   3.929 -0.1259  0.7596 -2.1038
19569TIP3   OH280121   6.734   6.061   4.074  0.2364  0.5145  0.1851
19569TIP3    H180122   6.814   6.111   4.087  0.3097  0.0879  1.4692
19569TIP3    H280123   6.664   6.119   4.103  0.1944  0.3877  0.3341
19570TIP3   OH280124   0.004   1.995   3.426 -0.2878  0.0306  0.2790
19570TIP3    H180125   0.062   1.949   3.487  0.4437  1.7888  0.9363
19570TIP3    H280126   0.063   2.043   3.368 -0.9681 -1.6584 -1.9020
19571TIP3   OH280127   5.663   5.594   3.126 -0.3861 -0.3722  0.0029
19571TIP3    H180128   5.606   5.577   3.201 -0.6683 -0.2769 -0.1879
19571TIP3    H280129   5.710   5.512   3.112 -0.1195 -0.2970  0.4680
19572TIP3   OH280130   6.880   0.310   5.246  0.2111  0.2042  0.9184
19572TIP3    H180131   6.932   0.355   5.313 -1.0301 -0.4614  2.3423
19572TIP3    H280132   6.790   0.340   5.261 -0.5370 -2.1895  1.4390
19573TIP3   OH280133   4.442   3.542   4.714  0.0144  0.3376 -0.8523
19573TIP3    H180134   4.360   3.576   4.749  0.2626 -1.0134  1.1365
19573TIP3    H280135   4.416   3.464   4.664  0.2608 -1.6574  1.9722
19574TIP3   OH280136   4.719   4.856   2.814  0.1026  0.0867  0.1711
19574TIP3    H180137   4.775   4.784   2.785  0.2363  0.9284 -1.7636
19574TIP3    H280138   4.778   4.932   2.814 -0.4752  0.5335  0.4229
19575TIP3   OH280139   2.315   1.369   5.442 -0.1669  0.6725 -0.1130
19575TIP3    H180140   2.335   1.278   5.465  1.1844  0.6303 -1.3560
19575TIP3    H280141   2.331   1.418   5.522  0.2729 -0.0358  0.2395
19576TIP3   OH280142   3.284   6.882   3.974 -0.5920 -0.6260  0.5554
19576TIP3    H180143   3.261   6.857   4.063 -1.0133  1.5191  1.0579
19576TIP3    H280144   3.366   6.930   3.983 -0.7359 -0.2379 -0.1794
19577TIP3   OH280145   6.437   6.814   3.415 -0.3675 -0.6598  0.2924
19577TIP3    H180146   6.417   6.900   3.377 -0.9534 -0.5720  0.7991
19577TIP3    H280147   6.520   6.827   3.460  0.0498 -0.6179 -0.4730
19578TIP3   OH280148   0.476   4.770   3.566 -0.5874  0.5797 -0.3064
19578TIP3    H180149   0.523   4.706   3.620  1.6556  2.1865 -0.2685
19578TIP3    H280150   0.384   4.744   3.572  0.1068 -1.7237  0.9230
19579TIP3   OH280151   6.460   0.128   5.027 -0.5303  0.4134 -0.1653
19579TIP3    H180152   6.532   0.159   5.082 -0.6376  0.9464 -0.3138
19579TIP3    H280153   6.386   0.121   5.086 -0.3178 -0.2991  0.0219
19580TIP3   OH280154   5.183   6.435   4.357  0.3239 -0.4064 -0.4159
19580TIP3    H180155   5.270   6.437   4.317  0.2691 -0.6983 -0.5495
19580TIP3    H280156   5.166   6.526   4.380  0.0966 -0.1255 -1.6182
19581TIP3   OH280157   4.470   0.053   5.293 -0.6638 -0.4777 -0.5925
19581TIP3    H180158   4.528  -0.014   5.329 -0.3505 -0.0365 -0.2607
19581TIP3    H280159   4.442   0.104   5.370  1.0481  1.2808 -1.0985
19582TIP3   OH280160   4.933   6.479   3.898 -0.4045 -0.2125  0.3645
19582TIP3    H180161   5.000   6.418   3.867 -0.1701 -0.7608  1.9306
19582TIP3    H280162   4.943   6.481   3.993 -1.0682  1.5142  0.4193
19583TIP3   OH280163   6.387   3.703   5.860  0.1358  0.5241 -0.2841
19583TIP3    H180164   6.448   3.712   5.787 -1.7283 -0.2221 -1.9857
19583TIP3    H280165   6.359   3.792   5.880  0.4468  0.7055 -0.6556
19584TIP3   OH280166   6.165   5.855   5.460 -0.3581 -0.3371 -0.0216
19584TIP3    H180167   6.200   5.769   5.436  0.3601 -0.6045  1.8965
19584TIP3    H280168   6.192   5.867   5.551 -1.4612  1.4159  0.0899
19585TIP3   OH280169   2.612   2.812   3.807  0.1475  0.3074 -0.0144
19585TIP3    H180170   2.518   2.795   3.815 -0.1760  2.0571  0.0766
19585TIP3    H280171   2.652   2.759   3.876 -0.7104 -0.9330 -0.4560
19586TIP3   OH280172   3.633   5.760   3.576  0.6142 -0.2544 -0.1065
19586TIP3    H180173   3.643   5.665   3.574 -0.4946 -0.3406 -2.5029
19586TIP3    H280174   3.540   5.775   3.594  0.5640  0.3586 -0.8294
19587TIP3   OH280175   4.747   4.220   5.639  0.2500  0.3695 -0.3791
19587TIP3    H180176   4.664   4.251   5.602  1.2840  2.4662 -0.9729
19587TIP3    H280177   4.721   4.170   5.716 -1.5331  1.5435 -0.1887
19588TIP3   OH280178   3.388   5.164   3.902  0.0807  0.3755 -0.4609
19588TIP3    H180179   3.417   5.254   3.919  0.9921 -0.3401  1.9182
19588TIP3    H280180   3.296   5.174   3.875  0.7742  2.1680 -2.2931
19589TIP3   OH280181   4.166   5.738   5.226  0.1259  0.0008 -0.0265
19589TIP3    H180182   4.203   5.655   5.256  0.6018  0.0477 -0.4892
19589TIP3    H280183   4.113   5.715   5.149 -1.0301 -0.1080  0.7834
19590TIP3   OH280184   4.007   4.876   5.289 -0.5608  0.3704  0.7934
19590TIP3    H180185   3.949   4.896   5.216 -2.3225  1.2497  2.3792
19590TIP3    H280186   3.965   4.918   5.364  1.7001  0.2978  2.1343
19591TIP3   OH280187   5.289   4.946   4.833 -0.1409 -0.3925 -0.0996
19591TIP3    H180188   5.329   4.869   4.873  0.5840  0.2134  0.3521
19591TIP3    H280189   5.217   4.969   4.892 -3.4588 -3.5446 -2.6830
19592TIP3   OH280190   2.608   4.833   4.491  0.1768  0.6076  0.3219
19592TIP3    H180191   2.546   4.877   4.433 -1.6336 -0.2879  1.5251
19592TIP3    H280192   2.690   4.833   4.442 -0.7962  1.6800 -1.3828
19593TIP3   OH280193   5.826   6.822   5.058  0.8426 -0.3145  0.0895
19593TIP3    H180194   5.890   6.894   5.063  1.0922 -0.6374  1.5908
19593TIP3    H280195   5.793   6.827   4.968 -1.7798  3.9429  1.1641
19594TIP3   OH280196   2.855   5.572   5.484  0.5502 -0.3417 -0.4166
19594TIP3    H180197   2.852   5.623   5.565  1.1755  0.1048 -0.6752
19594TIP3    H280198   2.795   5.499   5.500  2.4424 -1.6014  1.3939
19595TIP3   OH280199   2.169   5.013   4.518 -0.0776 -0.1565  0.9050
19595TIP3    H180200   2.231   5.068   4.471 -0.0580 -1.1003 -0.2169
19595TIP3    H280201   2.090   5.066   4.526 -0.3337 -0.2407 -0.8862
19596TIP3   OH280202   5.187   6.603   5.346  0.5483  0.4696 -0.3922
19596TIP3    H180203   5.189   6.619   5.251  2.5251  0.1991 -0.4035
19596TIP3    H280204   5.220   6.685   5.384  1.2489  0.0001 -0.0007
19597TIP3   OH280205   1.004   4.971   2.310 -0.5508  0.2407 -0.4184
19597TIP3    H180206   0.953   4.890   2.310 -0.3271  0.0961 -0.3242
19597TIP3    H280207   1.028   4.984   2.402 -0.5257  0.3751 -0.4436
19598TIP3   OH280208   3.563   6.006   0.578 -0.3032 -0.1748  0.0090
19598TIP3    H180209   3.646   6.007   0.531 -0.6898  0.6639 -0.6653
19598TIP3    H280210   3.585   6.036   0.666  0.0099  0.6637 -0.3514
19599TIP3   OH280211   3.396   5.964   4.502  0.3958  0.5072 -1.1908
19599TIP3    H180212   3.477   5.919   4.527  0.1796  0.4341 -0.6144
19599TIP3    H280213   3.426   6.041   4.454  0.8592  1.0326 -0.0994
19600TIP3   OH280214   6.520   5.476   3.720  0.3995  0.6836  0.7483
19600TIP3    H180215   6.518   5.450   3.812 -1.0871  1.4063  0.9295
19600TIP3    H280216   6.582   5.549   3.717  1.4246 -0.1657  0.9449
19601TIP3   OH280217   3.829   6.539   3.150  0.2610  0.0840 -0.0127
19601TIP3    H180218   3.860   6.527   3.240 -0.2787  0.3137  0.2048
19601TIP3    H280219   3.767   6.611   3.155  0.5103  0.3483 -0.6363
19602TIP3   OH280220   6.392   5.676   2.052  0.8583  0.2620 -0.2441
19602TIP3    H180221   6.464   5.707   2.107  0.8538  0.5257 -0.3869
19602TIP3    H280222   6.390   5.581   2.066  0.3926  0.4165  0.7710
19603TIP3   OH280223   0.782   4.415  14.767  0.2796 -0.4338  0.2347
19603TIP3    H180224   0.730   4.403  14.687  0.7933 -2.0693  0.1326
19603TIP3    H280225   0.871   4.391  14.741  0.4851 -0.7557  1.2448
19604TIP3   OH280226   4.830   0.039   2.471  0.0522 -0.0695  0.2806
19604TIP3    H180227   4.768   0.094   2.520  1.1011  0.9478  0.4769
19604TIP3    H280228   4.854  -0.031   2.532 -1.9487 -1.2807 -0.2568
19605TIP3   OH280229   5.155   6.111   6.146  0.2958  0.6443 -0.7108
19605TIP3    H180230   5.158   6.018   6.170  0.9989  0.7841 -0.2243
19605TIP3    H280231   5.075   6.144   6.186 -1.7970 -0.5068 -3.7389
19606TIP3   OH280232   5.070   0.947   5.323 -0.4756 -1.0710  0.2708
19606TIP3    H180233   5.114   0.916   5.402  2.0025  0.0333 -0.6271
19606TIP3    H280234   4.998   1.001   5.355 -0.7206 -2.2376  1.7629
19607TIP3   OH280235   0.406   3.906   4.053  0.3939 -0.4543  0.3208
19607TIP3    H180236   0.411   3.815   4.081  0.1694 -0.9075 -1.0423
19607TIP3    H280237   0.497   3.931   4.035  0.5200 -0.2118  1.2787
19608TIP3   OH280238   4.331   0.485   6.226  0.4744  0.1673  0.0418
19608TIP3    H180239   4.268   0.528   6.284 -1.5607  2.3724 -3.6217
19608TIP3    H280240   4.279   0.453   6.154  3.2637 -0.0502 -1.9609
19609TIP3   OH280241   2.676   3.909   2.984 -0.4792  0.4088 -0.8699
19609TIP3    H180242   2.694   3.823   3.023  0.8546  0.7800 -0.6332
19609TIP3    H280243   2.586   3.929   3.009 -0.2040 -0.1314  0.5535
19610TIP3   OH280244   2.933   5.229   4.027 -0.0041  0.1587  0.4068
19610TIP3    H180245   2.983   5.308   4.006  1.1158 -0.6030  0.1202
19610TIP3    H280246   2.982   5.188   4.099 -2.3237  1.3398  2.7313
19611TIP3   OH280247   6.256   4.492   5.535 -0.0955  0.0113 -0.1539
19611TIP3    H180248   6.251   4.545   5.615  0.0395  2.1104 -1.4973
19611TIP3    H280249   6.350   4.472   5.526 -0.0882 -0.0813  0.1014
19612TIP3   OH280250   5.295   0.394   2.345 -0.1507 -0.2623  0.1328
19612TIP3    H180251   5.226   0.391   2.411  1.6445 -1.9473  1.9899
19612TIP3    H280252   5.332   0.482   2.353 -1.6379  0.4219 -0.4241
19613TIP3   OH280253   0.699   1.521   4.231 -0.0811 -0.2462 -0.1883
19613TIP3    H180254   0.769   1.499   4.292 -1.6872 -0.3604  1.6497
19613TIP3    H280255   0.618   1.500   4.277 -1.3607 -0.1784 -2.2940
19614TIP3   OH280256   6.782   6.038   3.045  0.0487 -0.7352  0.3135
19614TIP3    H180257   6.812   5.948   3.060 -0.1472 -0.8868 -0.1859
19614TIP3    H280258   6.862   6.086   3.021 -0.1517 -1.2365 -1.4584
19615TIP3   OH280259   6.078   5.258   3.968 -0.0938  0.1387 -0.5729
19615TIP3    H180260   6.046   5.208   4.043  0.9708  0.5219  0.1472
19615TIP3    H280261   6.023   5.230   3.895 -0.6023 -0.8387  0.1788
19616TIP3   OH280262   1.482   7.203   2.761 -0.1792  0.2602 -0.1555
19616TIP3    H180263   1.439   7.171   2.841  3.0361 -3.1273  0.3528
19616TIP3    H280264   1.467   7.135   2.696  2.6773 -0.1370 -0.4946
19617TIP3   OH280265   5.846   5.033   5.366 -0.0205  0.5373 -0.3779
19617TIP3    H180266   5.791   5.030   5.444 -1.2125 -1.2045 -1.2341
19617TIP3    H280267   5.936   5.036   5.399 -0.4857 -0.8082  1.0476
19618TIP3   OH280268   4.899   4.866   2.518 -0.2261  0.1584 -0.2519
19618TIP3    H180269   4.935   4.857   2.430  0.1206 -0.7310 -0.0274
19618TIP3    H280270   4.950   4.805   2.571 -1.5524 -0.5550  0.2280
19619TIP3   OH280271   1.684   5.371   3.325  0.2986 -0.3927  0.2262
19619TIP3    H180272   1.654   5.323   3.248 -1.1602 -1.6484  1.5451
19619TIP3    H280273   1.619   5.441   3.337  0.3193 -0.4257  0.5348
19620TIP3   OH280274   5.679   0.602  15.850 -0.1022 -0.3686 -0.2423
19620TIP3    H180275   5.714   0.519  15.882  0.3661 -0.1020 -0.0619
19620TIP3    H280276   5.755   0.648  15.814 -0.3696 -0.0415 -0.3933
19621TIP3   OH280277   0.082   3.056   2.005 -0.3196  0.3821 -0.2438
19621TIP3    H180278   0.176   3.037   2.010 -0.4204  0.1451  0.6890
19621TIP3    H280279   0.039   2.973   2.025 -0.7328  0.3682 -1.1541
19622TIP3   OH280280   5.062   5.166   3.302 -0.5814  0.2410  0.0586
19622TIP3    H180281   5.136   5.176   3.362 -0.4651 -0.3237  0.0113
19622TIP3    H280282   5.079   5.230   3.233 -0.0163 -0.0471 -0.0737
19623TIP3   OH280283   1.164   4.462   3.016 -0.1923  0.4939  0.1058
19623TIP3    H180284   1.210   4.425   2.941  0.6714 -0.0452  0.8950
19623TIP3    H280285   1.228   4.517   3.060  0.2202 -1.4839  2.0946
19624TIP3   OH280286   5.180   4.465   0.072 -0.2110 -0.4379 -0.6185
19624TIP3    H180287   5.105   4.505   0.117 -1.4048 -1.6436 -1.4836
19624TIP3    H280288   5.152   4.459  -0.019  1.6820  0.8090 -1.3129
19625TIP3   OH280289   0.907   4.754   4.134 -0.2434 -0.1323 -0.5139
19625TIP3    H180290   0.990   4.724   4.098 -0.2605  0.2623 -0.8677
19625TIP3    H280291   0.930   4.823   4.195  0.1538 -3.2026  3.0303
19626TIP3   OH280292   6.362   1.352  15.534 -0.6382 -0.1346  0.3568
19626TIP3    H180293   6.447   1.344  15.578 -0.5654  0.6177  0.3506
19626TIP3    H280294   6.365   1.438  15.492 -1.4704 -0.0443  0.4875
19627TIP3   OH280295   4.292   5.964   5.347  0.4826 -0.1645 -0.0821
19627TIP3    H180296   4.281   5.896   5.281  2.2075  1.6397 -2.3269
19627TIP3    H280297   4.371   5.938   5.395 -1.2832 -1.9542  1.9400
19628TIP3   OH280298   5.213   7.063   5.561 -0.3777  0.0905 -0.0516
19628TIP3    H180299   5.305   7.044   5.544 -0.3341  0.2396  0.0110
19628TIP3    H280300   5.200   7.149   5.521 -0.9565 -0.7358 -1.6554
19629TIP3   OH280301   1.401   1.166   4.922 -0.5736  0.5060 -0.0669
19629TIP3    H180302   1.363   1.183   5.008  1.8979  0.4853  1.0645
19629TIP3    H280303   1.450   1.246   4.902 -2.0110  0.9435 -1.9604
19630TIP3   OH280304   0.067   5.272   4.088 -0.5973 -0.3412 -0.3856
19630TIP3    H180305   0.137   5.281   4.153  0.3145 -0.2325 -1.3802
19630TIP3    H280306   0.110   5.285   4.004 -1.8539 -0.0924 -0.9996
19631TIP3   OH280307   0.547   2.004   3.753  0.1287 -0.0702 -0.4679
19631TIP3    H180308   0.489   1.928   3.761 -0.6697  0.3101 -2.3020
19631TIP3    H280309   0.558   2.036   3.842  0.3077 -2.2171  0.3098
19632TIP3   OH280310   0.758   6.135   5.178 -0.4588 -0.9551  0.1042
19632TIP3    H180311   0.668   6.159   5.198 -0.0171  0.5476  0.3778
19632TIP3    H280312   0.792   6.101   5.261  0.1741  1.5312  0.9183
19633TIP3   OH280313   5.658   1.038   4.009 -0.0492 -0.4539 -0.0097
19633TIP3    H180314   5.737   1.018   3.959  0.0552 -1.6415  0.6181
19633TIP3    H280315   5.591   1.056   3.942  0.6791  0.3427 -0.5419
19634TIP3   OH280316   0.979   5.326   4.800  0.0629 -0.0024  0.0021
19634TIP3    H180317   0.997   5.418   4.815  1.6234 -0.3813  0.4947
19634TIP3    H280318   0.951   5.322   4.708 -0.0233  0.9596 -0.0159
19635TIP3   OH280319   6.063   6.085   1.697 -0.2532 -0.4209 -0.5686
19635TIP3    H180320   6.031   6.173   1.716  0.5831  0.5663 -3.5485
19635TIP3    H280321   6.154   6.097   1.672  0.6264 -2.4678  1.4495
19636TIP3   OH280322   4.729   0.159   5.759 -0.1160 -0.8779  0.7250
19636TIP3    H180323   4.772   0.178   5.842 -1.2087 -0.3462  1.1795
19636TIP3    H280324   4.744   0.066   5.745 -0.2090 -1.0433  1.6931
19637TIP3   OH280325   7.152   0.915   5.063  0.5036 -0.8473  0.4664
19637TIP3    H180326   7.221   0.974   5.092 -0.0464  0.0334 -0.0136
19637TIP3    H280327   7.189   0.870   4.987  0.5559 -0.3703  0.2069
19638TIP3   OH280328   3.797   6.664   3.957  0.2049  0.0001 -0.0503
19638TIP3    H180329   3.833   6.742   3.916 -1.8202  2.0611  1.9601
19638TIP3    H280330   3.826   6.669   4.048 -0.3936 -1.3081  0.2245
19639TIP3   OH280331   4.980   2.206   2.610  0.0774  0.0195  0.5735
19639TIP3    H180332   4.944   2.196   2.698 -0.0966 -1.2310  0.3614
19639TIP3    H280333   5.034   2.285   2.615  1.0942 -0.7461  2.1606
19640TIP3   OH280334   6.216   0.103   5.181  0.0537  0.0395  0.4527
19640TIP3    H180335   6.250   0.044   5.247 -2.2553  1.4532  2.9933
19640TIP3    H280336   6.121   0.101   5.193 -0.2970  1.5562 -1.7606
19641TIP3   OH280337   0.756   5.839   3.385 -0.7574 -0.4513 -0.6670
19641TIP3    H180338   0.662   5.852   3.391 -0.8113 -0.9831 -0.2925
19641TIP3    H280339   0.777   5.855   3.293 -0.9578  1.2602 -0.4140
19642TIP3   OH280340   0.316   0.586   5.568 -0.5084  0.3135  0.5813
19642TIP3    H180341   0.344   0.611   5.656  1.1804 -1.4107  0.5579
19642TIP3    H280342   0.391   0.609   5.513 -2.3567  3.3984 -0.7791
19643TIP3   OH280343   5.540   6.093   5.206  0.8533  0.4459 -0.2090
19643TIP3    H180344   5.578   6.024   5.152  1.7679 -0.0187  0.9994
19643TIP3    H280345   5.473   6.049   5.258 -0.2064  0.9426 -1.1240
19644TIP3   OH280346   5.726   1.203   5.598 -0.5535 -0.2720  0.7396
19644TIP3    H180347   5.655   1.148   5.564 -0.1998 -0.0409 -0.3935
19644TIP3    H280348   5.728   1.184   5.692 -2.2043 -0.1794  0.8115
19645TIP3   OH280349   6.550   1.733   3.932 -0.4286 -0.1626 -0.7375
19645TIP3    H180350   6.567   1.641   3.913 -0.4722 -0.2845 -0.1856
19645TIP3    H280351   6.504   1.733   4.016 -1.7036  0.2695 -1.4153
19646TIP3   OH280352   5.392   0.859   4.833 -0.7651 -0.3299  0.0654
19646TIP3    H180353   5.370   0.866   4.740 -1.5099 -2.1466  0.0951
19646TIP3    H280354   5.362   0.942   4.871 -1.7965 -0.1877 -1.0389
19647TIP3   OH280355   6.565   7.180   4.931 -0.1601 -0.2081 -0.2495
19647TIP3    H180356   6.570   7.233   5.010  1.3787  0.5793 -0.8639
19647TIP3    H280357   6.553   7.090   4.963 -0.9939  0.2753  0.8288
19648TIP3   OH280358   0.683   5.890   6.056 -0.1102 -0.1356  0.6306
19648TIP3    H180359   0.698   5.811   6.107  2.9085 -1.3434 -1.9147
19648TIP3    H280360   0.764   5.940   6.067 -0.0756  0.3345 -1.5633
19649TIP3   OH280361   6.631   5.915   2.309  0.7238 -0.1555  0.0711
19649TIP3    H180362   6.558   5.943   2.364  0.4056 -2.8030  1.0680
19649TIP3    H280363   6.706   5.963   2.344  0.0563  0.0991  1.2076
19650TIP3   OH280364   5.649   4.415   1.407 -0.6876  0.2559  0.0612
19650TIP3    H180365   5.604   4.357   1.469 -0.5866 -1.2832 -1.2488
19650TIP3    H280366   5.722   4.362   1.373  0.2500  1.6454 -0.1361
19651TIP3   OH280367   7.229   6.528   4.941 -0.1016 -0.5082  0.1061
19651TIP3    H180368   7.272   6.558   4.861  1.8143 -1.6156  0.6904
19651TIP3    H280369   7.205   6.437   4.923  0.7645 -0.9096  0.9327
19652TIP3   OH280370   0.407   5.569   4.808 -0.0240 -0.1012  0.4512
19652TIP3    H180371   0.433   5.507   4.876  1.4176 -0.2753 -0.2475
19652TIP3    H280372   0.384   5.648   4.856 -0.6244 -0.7622  1.2584
19653TIP3   OH280373   5.712   4.429   4.511 -0.0609  0.3878 -0.5209
19653TIP3    H180374   5.756   4.354   4.471  0.8642  0.4283  0.4050
19653TIP3    H280375   5.678   4.395   4.594 -3.2436 -0.0892 -1.9521
19654TIP3   OH280376   4.846   5.892   5.185 -0.1377 -0.2598  0.1391
19654TIP3    H180377   4.770   5.930   5.228  0.4464  0.5756  0.4543
19654TIP3    H280378   4.905   5.966   5.170  0.8235 -0.9658  0.3366
19655TIP3   OH280379   5.732   0.222   4.146  0.4100  0.4538  0.0282
19655TIP3    H180380   5.732   0.233   4.241  0.5474  1.2604 -0.0647
19655TIP3    H280381   5.666   0.284   4.114 -4.0391 -3.9343  0.0547
19656TIP3   OH280382   7.134   5.829   4.353 -0.1337 -0.2466 -0.2686
19656TIP3    H180383   7.048   5.860   4.383 -0.5728 -2.0006  0.3405
19656TIP3    H280384   7.197   5.876   4.407 -0.7798 -0.1790  0.4339
19657TIP3   OH280385   6.303   0.604   4.950 -0.0379 -0.1436 -0.2784
19657TIP3    H180386   6.274   0.635   4.865  0.5124  0.0338 -0.4050
19657TIP3    H280387   6.222   0.588   4.999 -0.3413  0.3855 -0.6046
19658TIP3   OH280388   0.710   4.845   2.542  0.2349  0.0617 -0.0661
19658TIP3    H180389   0.622   4.818   2.568 -0.8721  1.8251 -1.7960
19658TIP3    H280390   0.758   4.854   2.624 -1.4550 -0.0668  0.9592
19659TIP3   OH280391   5.695   1.483   1.311 -0.0900  0.0470  0.2516
19659TIP3    H180392   5.687   1.489   1.407 -3.5957  0.1605  0.0084
19659TIP3    H280393   5.738   1.399   1.296 -0.6391 -0.5513  1.8929
19660TIP3   OH280394   6.590   3.008   4.731 -0.7214  0.2200 -0.6478
19660TIP3    H180395   6.542   2.957   4.666 -1.1926 -0.7832  0.4731
19660TIP3    H280396   6.535   3.084   4.749 -1.9167 -0.9131  0.6208
19661TIP3   OH280397   1.479   4.898   3.879  0.5003  0.0748 -0.4221
19661TIP3    H180398   1.434   4.894   3.795  0.1220  1.1621 -0.2750
19661TIP3    H280399   1.505   4.807   3.897 -0.2410 -0.3042 -1.2582
19662TIP3   OH280400   4.386   6.017   3.017 -0.3022  0.1485 -0.2245
19662TIP3    H180401   4.429   6.102   3.020  1.4184 -0.7592  1.5618
19662TIP3    H280402   4.418   5.976   2.937  0.4197  0.3840 -0.0562
19663TIP3   OH280403   0.253   0.156   3.869  0.0971  0.1841  0.5645
19663TIP3    H180404   0.265   0.112   3.785  0.3915 -0.2758  0.8427
19663TIP3    H280405   0.177   0.213   3.856  0.9138  1.0521 -0.3828
19664TIP3   OH280406   0.181   5.211   0.043 -0.0303 -0.0399 -0.4657
19664TIP3    H180407   0.121   5.259  -0.015 -1.8130 -0.1729  1.2162
19664TIP3    H280408   0.193   5.269   0.118  0.5413 -0.7752  0.0151
19665TIP3   OH280409   5.769   3.104   5.278  0.2430  0.1136 -0.4847
19665TIP3    H180410   5.783   3.192   5.315  2.1510  0.2316 -1.4123
19665TIP3    H280411   5.681   3.080   5.307 -0.1034  2.1078  0.2505
19666TIP3   OH280412   0.623   4.286   5.431  0.3435  0.2202 -0.6418
19666TIP3    H180413   0.657   4.303   5.519 -2.5064  3.8158 -0.1349
19666TIP3    H280414   0.548   4.229   5.445  0.0242  0.6120 -0.7492
19667TIP3   OH280415   6.713   5.607   3.851  0.3894  0.4566 -0.3170
19667TIP3    H180416   6.806   5.589   3.862  0.0991 -0.8328  0.0304
19667TIP3    H280417   6.703   5.699   3.878  1.4885  0.4914 -0.0259
19668TIP3   OH280418   0.671   6.083   5.454 -0.1000 -0.1053  0.6973
19668TIP3    H180419   0.688   6.126   5.538  1.1366  1.2069 -0.2119
19668TIP3    H280420   0.735   6.012   5.450  1.8815  1.7082 -0.4666
19669TIP3   OH280421   6.560   6.451   0.470 -0.5417 -0.0810 -0.2978
19669TIP3    H180422   6.567   6.364   0.430  0.5968  0.7354 -1.9108
19669TIP3    H280423   6.648   6.488   0.462 -0.6255  0.6259  1.7957
19670TIP3   OH280424   0.177   6.524   2.361  0.1028 -0.7680  0.1656
19670TIP3    H180425   0.226   6.593   2.405  1.7498 -1.2720 -0.8136
19670TIP3    H280426   0.196   6.536   2.268 -1.3811 -1.1886 -0.2106
19671TIP3   OH280427   0.731   3.739   2.734  0.1247  0.2311  0.4630
19671TIP3    H180428   0.813   3.781   2.758  0.0398  0.3825  0.4930
19671TIP3    H280429   0.668   3.769   2.800 -0.0298  0.3768  0.2505
19672TIP3   OH280430   2.728   4.244   3.597  0.0974 -0.4593 -0.2223
19672TIP3    H180431   2.794   4.312   3.611 -0.4466 -0.1906  1.1552
19672TIP3    H280432   2.755   4.201   3.516  1.3609  0.3399 -0.2487
19673TIP3   OH280433   2.105   3.231   4.236  0.6883  0.2377  0.3327
19673TIP3    H180434   2.137   3.169   4.170  0.4071  0.5340 -0.0827
19673TIP3    H280435   2.159   3.213   4.313  1.5419  0.4139 -0.2192
19674TIP3   OH280436   6.807   5.534   2.284  0.1004  0.5958  0.5351
19674TIP3    H180437   6.877   5.486   2.239 -0.6027 -0.6911  0.7797
19674TIP3    H280438   6.751   5.567   2.214  0.0645  0.2334  0.3912
19675TIP3   OH280439   0.195   4.704   1.451 -0.1981 -0.5411 -0.3168
19675TIP3    H180440   0.240   4.672   1.374  0.7356  1.7054 -0.7595
19675TIP3    H280441   0.258   4.762   1.493 -1.7582  0.6316  0.4736
19676TIP3   OH280442   2.028   3.721   1.157  0.0248  0.3741 -0.1764
19676TIP3    H180443   2.038   3.667   1.235 -1.2128 -0.3353 -0.4917
19676TIP3    H280444   1.934   3.735   1.150  0.0133 -0.5873 -2.2080
19677TIP3   OH280445   4.023   2.499   1.933 -0.3424  0.1318 -0.2813
19677TIP3    H180446   3.957   2.475   1.868  0.8418 -0.5197 -1.2476
19677TIP3    H280447   4.106   2.467   1.898  0.6299  1.6310  0.5477
19678TIP3   OH280448   1.024   5.263   2.324  0.0186  0.3005  0.0118
19678TIP3    H180449   0.988   5.190   2.273  1.0942  1.7294 -2.8700
19678TIP3    H280450   1.048   5.328   2.259  0.8415  2.4723  2.4281
19679TIP3   OH280451   6.006   0.224   4.522  0.1607  0.1848  0.0152
19679TIP3    H180452   5.985   0.206   4.430  3.5528 -0.1870 -0.7692
19679TIP3    H280453   6.033   0.139   4.557 -1.1713  0.3203  1.4037
19680TIP3   OH280454   6.543   4.473   4.340 -0.2821  0.3379  0.5613
19680TIP3    H180455   6.456   4.484   4.302 -0.0876 -0.8043 -0.2382
19680TIP3    H280456   6.603   4.488   4.267  0.0661 -3.1293  0.0449
19681TIP3   OH280457   6.051   7.005   5.336  0.1855  0.0314  0.5932
19681TIP3    H180458   6.088   6.927   5.294  1.0043  1.0150 -0.5515
19681TIP3    H280459   5.991   7.041   5.271 -0.4603  0.1623  1.2597
19682TIP3   OH280460   7.207   5.095   3.856  0.0808 -0.3262  0.0249
19682TIP3    H180461   7.218   5.013   3.905  0.3999  0.2810  0.9822
19682TIP3    H280462   7.292   5.138   3.861  0.3994 -0.6850 -1.8813
19683TIP3   OH280463   5.661   0.803   4.908 -0.3984  0.4138  0.0533
19683TIP3    H180464   5.711   0.868   4.958  0.1016  1.4336 -1.7123
19683TIP3    H280465   5.578   0.847   4.888 -1.1884 -0.5208  1.2009
19684TIP3   OH280466   1.679   3.433   2.308 -0.1840 -0.2323  0.2795
19684TIP3    H180467   1.635   3.349   2.325 -0.1320 -0.3247 -0.0373
19684TIP3    H280468   1.649   3.490   2.378  0.4257 -0.7644  0.9760
19685TIP3   OH280469   5.015   6.851   5.629 -0.2629  0.3225 -0.2638
19685TIP3    H180470   4.937   6.907   5.629 -0.1731  0.4473 -0.3460
19685TIP3    H280471   5.089   6.912   5.624 -0.2239  0.0885 -2.8804
19686TIP3   OH280472   5.267   7.290   5.402  0.3998 -0.5969  0.2017
19686TIP3    H180473   5.338   7.327   5.455 -0.3614  0.3728  0.5508
19686TIP3    H280474   5.312   7.244   5.331  1.4392 -2.3934  1.9826
19687TIP3   OH280475   6.160   4.894   1.412 -0.3924 -0.0949 -0.2825
19687TIP3    H180476   6.120   4.814   1.377  1.3512 -0.5220 -1.3571
19687TIP3    H280477   6.253   4.873   1.420 -0.1519  1.3391  0.8540
19688TIP3   OH280478   1.288   6.212   2.279  0.7840 -0.2067 -0.5439
19688TIP3    H180479   1.236   6.153   2.223 -1.1984  1.1717 -0.1963
19688TIP3    H280480   1.292   6.294   2.229  3.5623 -0.6063 -1.0405
19689TIP3   OH280481   5.812   6.625   1.633  0.3478 -0.5522 -0.3693
19689TIP3    H180482   5.824   6.584   1.719 -0.5393 -1.6324 -0.7559
19689TIP3    H280483   5.843   6.560   1.570  0.9757  0.2273 -0.8949
19690TIP3   OH280484   0.643   1.583  15.246  0.3094 -0.4859  0.1228
19690TIP3    H180485   0.618   1.598  15.338  1.2184 -3.6420  0.9781
19690TIP3    H280486   0.559   1.576  15.200 -0.1491  1.9689  0.5391
19691TIP3   OH280487   5.851   3.357   5.570  0.0137 -0.1042 -0.3790
19691TIP3    H180488   5.869   3.408   5.491 -0.2861  1.2231  0.3963
19691TIP3    H280489   5.935   3.316   5.591  0.2417  0.0182 -1.0334
19692TIP3   OH280490   0.196   0.496   4.098 -0.9488  0.1437  0.4389
19692TIP3    H180491   0.111   0.515   4.060 -1.2215 -0.0002  0.9690
19692TIP3    H280492   0.185   0.511   4.192 -0.0083  1.4530  0.3530
19693TIP3   OH280493   7.192   6.443   2.861  0.1100 -0.4439 -0.0300
19693TIP3    H180494   7.281   6.442   2.826  0.4361  0.8292  0.7262
19693TIP3    H280495   7.140   6.399   2.794  1.1311 -0.2239 -0.9901
19694TIP3   OH280496   3.856   6.026   2.070  0.1485  0.3679  0.1901
19694TIP3    H180497   3.765   6.012   2.096  0.0161 -0.7620 -0.8384
19694TIP3    H280498   3.903   6.044   2.152 -0.5603 -1.4342  0.9939
19695TIP3   OH280499   6.112   5.007   5.500 -0.7353  0.2131 -0.0224
19695TIP3    H180500   6.176   5.076   5.515  0.2682  0.3487 -4.3017
19695TIP3    H280501   6.147   4.930   5.545  0.7353  1.1238  0.4047
19696TIP3   OH280502   0.025   5.073   3.472 -0.1656  0.1603 -0.5045
19696TIP3    H180503  -0.051   5.084   3.529  1.2838  0.9961  1.3065
19696TIP3    H280504   0.047   5.162   3.444  0.7781  0.0294 -0.1846
19697TIP3   OH280505   6.112   7.032   3.765  0.0150 -0.4168 -0.2979
19697TIP3    H180506   6.058   7.039   3.844  1.0846 -1.4651  0.5409
19697TIP3    H280507   6.190   7.084   3.784  0.4167 -0.9314 -0.5324
19698TIP3   OH280508   0.378   3.991   0.366 -0.2666 -0.3255  0.1720
19698TIP3    H180509   0.380   4.051   0.292  1.7890 -0.2959  0.2339
19698TIP3    H280510   0.296   4.011   0.411 -0.4711  1.1669 -0.8380
19699TIP3   OH280511   0.349   1.007   5.249  0.1357 -0.1848 -0.0828
19699TIP3    H180512   0.298   0.993   5.329 -0.3134  0.8655 -0.1839
19699TIP3    H280513   0.423   1.060   5.277  0.7178 -0.9695 -0.1083
19700TIP3   OH280514   2.635   0.668   5.362 -0.8059  0.0426  0.3589
19700TIP3    H180515   2.622   0.612   5.439 -1.0031 -2.3436 -1.3670
19700TIP3    H280516   2.560   0.728   5.363 -2.1497 -1.6146  0.6607
19701TIP3   OH280517   0.288   4.819   4.740  0.0714  0.3031 -0.3555
19701TIP3    H180518   0.343   4.796   4.666 -0.2487  0.3779 -0.6171
19701TIP3    H280519   0.203   4.779   4.720 -0.5593  1.8899 -0.9180
19702TIP3   OH280520   2.534   5.381   5.265 -0.9155 -0.7210  0.1785
19702TIP3    H180521   2.537   5.403   5.358 -0.1161 -1.7579  0.4129
19702TIP3    H280522   2.444   5.353   5.250 -1.6746  1.6446  0.0966
19703TIP3   OH280523   3.062   1.707   4.216  0.5192 -0.5151  0.2390
19703TIP3    H180524   3.088   1.680   4.304  1.6994 -0.9386 -0.2286
19703TIP3    H280525   3.142   1.699   4.164  0.4466  2.0651 -0.3451
19704TIP3   OH280526   3.136   6.160   3.191 -0.5543  0.4772 -0.1609
19704TIP3    H180527   3.143   6.140   3.284 -0.2304  0.9141 -0.0914
19704TIP3    H280528   3.218   6.129   3.153 -1.0436 -0.4990 -0.4524
19705TIP3   OH280529   7.020   7.237   5.666  0.4669 -0.2493 -0.5170
19705TIP3    H180530   6.977   7.262   5.748  0.0324 -0.0762 -0.7944
19705TIP3    H280531   6.999   7.308   5.605 -0.2236 -0.9573 -1.1193
19706TIP3   OH280532   4.472   6.280   2.964  0.3269 -0.7481  0.1002
19706TIP3    H180533   4.440   6.307   2.877 -0.4492 -0.1457  0.5669
19706TIP3    H280534   4.456   6.356   3.020 -1.0393 -1.8600  1.2290
19707TIP3   OH280535   3.117   5.495   3.766  0.1336 -0.4826 -0.1906
19707TIP3    H180536   3.073   5.573   3.799  0.1633 -0.2134 -0.7915
19707TIP3    H280537   3.162   5.524   3.687  2.1980 -0.5189  0.9281
19708TIP3   OH280538   6.524   5.155  15.896 -0.7611  0.5707  0.6155
19708TIP3    H180539   6.516   5.198  15.981  0.4431  1.9557  0.0620
19708TIP3    H280540   6.495   5.221  15.833  0.4804  0.3625 -0.2005
19709TIP3   OH280541   0.592   0.975   0.932 -0.7267 -0.0791 -0.6517
19709TIP3    H180542   0.541   1.055   0.942  0.5001  0.8898 -2.1398
19709TIP3    H280543   0.539   0.920   0.875 -1.0777  0.0825 -0.4842
19710TIP3   OH280544   1.215   5.089   4.405  0.1095  0.1392 -0.1948
19710TIP3    H180545   1.274   5.016   4.423 -0.9006 -0.1653  1.9691
19710TIP3    H280546   1.274   5.163   4.388  1.1300 -0.6212  0.0010
19711TIP3   OH280547   4.875   5.946   1.623  0.0790 -0.1333 -0.8036
19711TIP3    H180548   4.817   5.876   1.597  0.4809 -1.2743  1.2753
19711TIP3    H280549   4.822   6.003   1.679  1.0888 -1.5739  1.7052
19712TIP3   OH280550   7.019   6.363   5.736  0.6202 -0.0720 -0.5796
19712TIP3    H180551   7.066   6.432   5.691  1.2422  0.3156  0.6345
19712TIP3    H280552   6.973   6.408   5.807 -0.5513 -0.6281 -0.9706
19713TIP3   OH280553   0.867   6.986   5.343 -0.5061  0.0038  0.0264
19713TIP3    H180554   0.925   7.037   5.398 -1.4564  1.7655 -0.5720
19713TIP3    H280555   0.890   7.011   5.253  1.6149 -3.4544 -0.5239
19714TIP3   OH280556   4.632   7.172   5.426  0.1301 -0.4679 -0.0462
19714TIP3    H180557   4.556   7.191   5.482 -0.3653  2.7794 -1.7152
19714TIP3    H280558   4.706   7.168   5.486 -0.9134 -0.5101  1.2481
19715TIP3   OH280559   5.801   0.961   0.855  0.4369 -0.1879  0.3577
19715TIP3    H180560   5.831   0.887   0.802 -0.5425 -1.9072  2.1331
19715TIP3    H280561   5.728   0.998   0.805  1.1713 -0.1693 -0.7250
19716TIP3   OH280562   5.787   2.046   4.863 -0.2293  0.0274 -0.2258
19716TIP3    H180563   5.746   2.071   4.945 -0.0618 -1.5336  0.3426
19716TIP3    H280564   5.870   2.095   4.861 -0.4011  0.3349  0.3549
19717TIP3   OH280565   7.076   0.128   0.599 -0.2595 -0.1423  0.3824
19717TIP3    H180566   6.985   0.117   0.570 -0.3678 -1.1268  1.0687
19717TIP3    H280567   7.070   0.174   0.682 -0.0795  0.4589  0.0684
19718TIP3   OH280568   3.144   6.930   5.892  0.1918  0.4118  0.3305
19718TIP3    H180569   3.195   6.994   5.940 -0.8462  1.5847 -0.1106
19718TIP3    H280570   3.150   6.850   5.945  0.3380  1.2513  1.5956
19719TIP3   OH280571   5.591   5.121   3.036 -0.6043  0.2710  0.0556
19719TIP3    H180572   5.529   5.049   3.025 -0.1317 -0.0905 -0.2328
19719TIP3    H280573   5.538   5.192   3.074 -0.9118 -0.4592  1.0247
19720TIP3   OH280574   0.686   5.481   3.749 -0.7196  0.6127 -0.4279
19720TIP3    H180575   0.634   5.496   3.829 -1.5931  1.8217 -1.2033
19720TIP3    H280576   0.757   5.545   3.755  0.3138 -0.5757  0.2914
19721TIP3   OH280577   5.587   0.325   6.140  0.1731  0.3978 -0.2862
19721TIP3    H180578   5.538   0.259   6.092  0.0092  0.7140 -0.5564
19721TIP3    H280579   5.677   0.317   6.107  0.7557 -1.5380  1.6415
19722TIP3   OH280580   6.747   7.055   5.246 -0.3922 -0.6158  0.7340
19722TIP3    H180581   6.817   6.995   5.270  1.9038  1.5273 -0.4237
19722TIP3    H280582   6.749   7.123   5.313  0.3687  0.8036 -0.6948
19723TIP3   OH280583   5.875   3.797   4.758  0.2170 -0.4365 -0.2520
19723TIP3    H180584   5.866   3.782   4.664  1.7253  1.4169 -0.7260
19723TIP3    H280585   5.872   3.710   4.797 -1.7361 -1.1483 -1.8700
19724TIP3   OH280586   6.753   0.641   3.351  0.1200 -0.5531  0.2878
19724TIP3    H180587   6.796   0.664   3.434  2.5280 -0.3359 -0.9859
19724TIP3    H280588   6.721   0.552   3.365  0.8158 -0.6533  1.3440
19725TIP3   OH280589   6.796   4.665   5.432  0.6828 -0.2388  0.2585
19725TIP3    H180590   6.820   4.754   5.458 -2.3209  1.4038 -2.1180
19725TIP3    H280591   6.788   4.616   5.514  0.8784  2.1090  1.7186
19726TIP3   OH280592   4.916   5.101   4.456  0.1923 -0.7863 -0.4733
19726TIP3    H180593   4.995   5.115   4.508  1.0178 -4.0796 -0.6979
19726TIP3    H280594   4.850   5.076   4.520 -0.5293  1.3327 -0.3599
19727TIP3   OH280595   3.305   5.195   4.694  0.1051 -0.4389 -0.0778
19727TIP3    H180596   3.377   5.135   4.710  1.7185  1.2449 -0.8654
19727TIP3    H280597   3.291   5.192   4.600  0.2774  0.5225 -0.1338
19728TIP3   OH280598   6.287   0.045   4.557  0.1353 -0.5778  0.0068
19728TIP3    H180599   6.303   0.120   4.500 -1.9643  0.0962  0.2391
19728TIP3    H280600   6.317   0.074   4.643 -2.6283  0.8587  0.5528
19729TIP3   OH280601   5.538   6.020   2.341  0.0199  0.8232 -0.1486
19729TIP3    H180602   5.520   6.092   2.400  1.7741 -0.3163  1.8669
19729TIP3    H280603   5.479   5.950   2.369  1.4614 -0.0165  0.8923
19730TIP3   OH280604   7.209   6.072   5.351  0.0676 -0.2754 -0.4412
19730TIP3    H180605   7.284   6.044   5.404  0.2341  1.2808  0.1738
19730TIP3    H280606   7.148   6.110   5.415 -0.8664 -0.7080 -1.0554
19731TIP3   OH280607   7.163   6.618   5.682  0.3073  0.0369  0.1404
19731TIP3    H180608   7.128   6.613   5.593  0.2519 -2.0707  0.2556
19731TIP3    H280609   7.252   6.650   5.671  0.3613 -0.3817 -0.6959
19732TIP3   OH280610   2.051   5.474   4.556  0.0383  0.8309 -0.4918
19732TIP3    H180611   2.145   5.488   4.555  0.2273 -0.2650  0.2808
19732TIP3    H280612   2.039   5.400   4.617 -1.3839  1.5299  0.0908
19733TIP3   OH280613   6.948   5.868   5.205  0.0745 -0.2804  0.6369
19733TIP3    H180614   6.962   5.810   5.131  1.7924  0.7072  0.1779
19733TIP3    H280615   6.866   5.913   5.185  0.8011  0.3709 -0.9206
19734TIP3   OH280616   7.241   4.676   5.068 -0.6114  0.5298 -0.8772
19734TIP3    H180617   7.288   4.643   4.991 -0.1728 -2.9671  0.7856
19734TIP3    H280618   7.176   4.608   5.087 -0.3192  1.0260  2.1550
19735TIP3   OH280619   1.691   6.418   4.786  0.1277  0.3520 -0.5090
19735TIP3    H180620   1.732   6.482   4.844 -1.2302  0.0758  0.7884
19735TIP3    H280621   1.764   6.370   4.748  1.0824  1.2724  0.1339
19736TIP3   OH280622   0.002   0.807   4.074 -0.7361 -0.0146 -0.3089
19736TIP3    H180623  -0.058   0.870   4.033 -0.0409  0.2978 -0.8549
19736TIP3    H280624  -0.009   0.727   4.023 -0.8692 -0.0330 -0.2519
19737TIP3   OH280625   7.278   5.526   3.716 -0.0315  0.1848 -0.5417
19737TIP3    H180626   7.363   5.549   3.754  0.7043  0.1970 -2.1776
19737TIP3    H280627   7.220   5.596   3.745  0.3405 -0.1913  1.1709
19738TIP3   OH280628   6.306   4.914   4.483 -0.5451  0.2631 -0.1062
19738TIP3    H180629   6.258   4.831   4.484  1.0457 -0.6817 -0.6789
19738TIP3    H280630   6.397   4.889   4.465  0.5423  1.8192  2.8494
19739TIP3   OH280631   0.719   6.752   2.936  0.2916 -0.5104 -0.1552
19739TIP3    H180632   0.773   6.724   2.862  1.3472  1.5673 -0.2236
19739TIP3    H280633   0.684   6.838   2.910 -1.9379 -1.1966  0.4668
19740TIP3   OH280634   3.960   7.053   2.727 -0.6473  0.4039  0.3751
19740TIP3    H180635   3.880   7.079   2.681 -0.1260 -0.5949 -1.1244
19740TIP3    H280636   3.978   6.964   2.696  0.2190  0.0611  1.8315
19741TIP3   OH280637   0.353   6.200   4.314  0.2053 -0.0092  0.4634
19741TIP3    H180638   0.347   6.194   4.409 -1.3820  2.0283  0.5072
19741TIP3    H280639   0.447   6.191   4.296  0.4011 -1.6050  2.0934
19742TIP3   OH280640   5.822   6.163  14.210  0.2183 -0.4886 -0.2023
19742TIP3    H180641   5.808   6.182  14.118 -0.5536 -0.8927 -0.1733
19742TIP3    H280642   5.762   6.222  14.256 -0.8757 -1.6827 -0.0450
19743TIP3   OH280643   1.350   6.994   2.346  0.1332 -0.0938  0.3042
19743TIP3    H180644   1.265   6.976   2.387 -0.4909  0.7400 -0.6244
19743TIP3    H280645   1.331   7.003   2.253  1.0900  1.0999  0.2125
19744TIP3   OH280646   1.761   0.122   3.379 -1.0064 -0.0240  0.4224
19744TIP3    H180647   1.805   0.183   3.319 -2.3429  0.6734  0.1259
19744TIP3    H280648   1.744   0.175   3.457  1.1908 -1.0692  1.6455
19745TIP3   OH280649   0.580   5.001   2.371  0.3197 -0.1123  0.0976
19745TIP3    H180650   0.650   4.957   2.419 -1.3458  0.1555  2.9102
19745TIP3    H280651   0.574   5.088   2.410  1.4799  1.5694 -3.2947
19746TIP3   OH280652   6.648   5.841   2.754  0.4685  0.4217  0.0367
19746TIP3    H180653   6.561   5.873   2.729 -0.5226 -2.1053  0.1171
19746TIP3    H280654   6.658   5.759   2.707  2.2573 -0.0174  1.1159
19747TIP3   OH280655   1.894   0.839   5.190 -0.5593 -0.0470  0.7109
19747TIP3    H180656   1.911   0.786   5.112  1.2319  1.0023  0.3517
19747TIP3    H280657   1.811   0.882   5.172 -1.8195 -2.3969  0.8324
19748TIP3   OH280658   6.718   6.901   5.839  0.2352  0.0562  0.4318
19748TIP3    H180659   6.703   6.807   5.831  0.0870  0.1621 -0.6206
19748TIP3    H280660   6.808   6.914   5.808  0.1484  0.2992  0.2792
19749TIP3   OH280661   6.723   4.117   3.904  0.0144  0.4563 -0.6112
19749TIP3    H180662   6.657   4.186   3.909 -0.1855  0.4126 -2.2303
19749TIP3    H280663   6.799   4.152   3.949 -0.0871  1.7468 -1.4316
19750TIP3   OH280664   5.543   7.051   4.068 -0.4825  0.2245  0.3563
19750TIP3    H180665   5.536   6.975   4.010  0.9165  1.2871 -1.2535
19750TIP3    H280666   5.632   7.046   4.103 -0.9728  0.1651  1.6124
19751TIP3   OH280667   5.962   4.527   4.874 -0.0711  0.4710 -0.7352
19751TIP3    H180668   5.915   4.448   4.848 -0.8179  0.8064 -0.4092
19751TIP3    H280669   6.053   4.499   4.883 -0.7024 -0.9287  1.7876
19752TIP3   OH280670   4.518   4.180   4.274  0.2892 -0.5018 -0.0013
19752TIP3    H180671   4.450   4.173   4.208  0.3135  1.7198 -0.2971
19752TIP3    H280672   4.594   4.215   4.228  0.8870 -0.6894  0.8165
19753TIP3   OH280673   3.314   4.577   3.999  0.0218 -0.7088 -0.1876
19753TIP3    H180674   3.281   4.667   4.010  0.5116 -0.3258 -1.7657
19753TIP3    H280675   3.331   4.547   4.088 -0.6369  0.5812  0.3887
19754TIP3   OH280676   6.717   5.346   1.396  0.1174 -0.1956 -0.2222
19754TIP3    H180677   6.792   5.335   1.454  0.1162 -0.1319 -0.2088
19754TIP3    H280678   6.747   5.405   1.328 -0.2390  0.6555  0.3488
19755TIP3   OH280679   5.911   7.076   5.127 -0.1239  0.3968  0.5251
19755TIP3    H180680   5.837   7.128   5.159  0.8256  0.0616  3.3852
19755TIP3    H280681   5.953   7.132   5.062 -1.6511  1.4427  0.4100
19756TIP3   OH280682   0.090   6.754   5.737  0.5835 -0.5374  0.8536
19756TIP3    H180683   0.095   6.720   5.826  0.2829 -1.5433  0.4932
19756TIP3    H280684   0.158   6.707   5.689  1.5820  0.8950  0.8294
19757TIP3   OH280685   1.098   6.562   3.466  0.2081 -0.1464 -0.7612
19757TIP3    H180686   1.054   6.477   3.474  0.7105 -0.2675  1.0516
19757TIP3    H280687   1.048   6.619   3.525  1.1083  0.2942 -0.4294
19758TIP3   OH280688   5.951   5.975   2.622  0.0507  0.5684  0.0231
19758TIP3    H180689   5.931   5.938   2.536 -0.2568 -1.2233  0.8418
19758TIP3    H280690   5.865   6.000   2.657  0.2230  1.7815 -0.3766
19759TIP3   OH280691   3.176   4.855   0.241 -0.0140  0.9229 -0.6564
19759TIP3    H180692   3.271   4.865   0.250  0.1398 -2.1756  2.3324
19759TIP3    H280693   3.140   4.900   0.317 -0.7716  0.2641 -0.6121
19760TIP3   OH280694   4.817   6.958   4.667  0.9872  0.7521  0.0672
19760TIP3    H180695   4.837   6.924   4.754  0.1571  0.7975  0.2813
19760TIP3    H280696   4.888   6.926   4.611  0.6118 -0.7215  0.4043
19761TIP3   OH280697   0.733   6.663   4.613  0.5291 -0.3023  0.1994
19761TIP3    H180698   0.690   6.632   4.533 -2.8119  0.4975  1.5641
19761TIP3    H280699   0.746   6.756   4.599  1.3110 -0.4464 -0.0096
19762TIP3   OH280700   4.746   6.808   3.834 -0.4603 -0.4943  0.1206
19762TIP3    H180701   4.662   6.846   3.809 -1.3499 -2.1089  0.6168
19762TIP3    H280702   4.804   6.829   3.761 -1.1746  0.9867 -0.0423
19763TIP3   OH280703   7.281   4.595   2.988 -0.7851 -0.5000 -0.5377
19763TIP3    H180704   7.213   4.531   3.009 -1.5767  1.2285  2.2880
19763TIP3    H280705   7.361   4.557   3.025 -0.7905 -1.0060 -1.0333
19764TIP3   OH280706   1.958   6.489   0.916 -0.3377  0.3010  0.3669
19764TIP3    H180707   1.878   6.497   0.864 -1.0773 -1.4707  1.2143
19764TIP3    H280708   2.015   6.433   0.863  0.2942  1.4220 -0.1575
19765TIP3   OH280709   0.305   4.728   2.889  0.0121 -0.7740  0.2039
19765TIP3    H180710   0.213   4.737   2.914 -0.1503 -2.7510  0.4273
19765TIP3    H280711   0.309   4.644   2.843  1.7945 -0.9592  0.6473
19766TIP3   OH280712   4.895   4.955   0.665  1.0329  0.3640 -0.0020
19766TIP3    H180713   4.961   4.931   0.601  1.5093  1.2047  0.1630
19766TIP3    H280714   4.812   4.952   0.616  1.1954 -0.6116 -0.2239
19767TIP3   OH280715   6.471   5.433   5.667 -0.1192  0.4454 -0.6047
19767TIP3    H180716   6.411   5.381   5.614 -0.8127  0.5864  0.0278
19767TIP3    H280717   6.476   5.517   5.621  1.6955 -0.4628 -2.1020
19768TIP3   OH280718   5.713   6.181   2.105  0.5456  0.0546 -0.0025
19768TIP3    H180719   5.692   6.250   2.168  0.0631  1.2759 -1.4759
19768TIP3    H280720   5.654   6.109   2.128 -1.2467  1.3378 -0.4861
19769TIP3   OH280721   6.916   0.591   6.297 -0.5549  0.3692  0.0644
19769TIP3    H180722   6.907   0.678   6.336 -1.2653  1.3396 -2.1982
19769TIP3    H280723   6.906   0.605   6.203 -1.0641 -2.2245 -0.3155
19770TIP3   OH280724   6.877   0.903   5.205 -0.0752  0.0451 -0.1981
19770TIP3    H180725   6.966   0.902   5.168 -0.4282  2.1979 -1.2024
19770TIP3    H280726   6.889   0.916   5.298  0.6694  0.5181 -0.3601
19771TIP3   OH280727   0.646   3.970   5.967  0.3548  0.2545 -0.0472
19771TIP3    H180728   0.729   3.983   6.013  0.3344  1.4534 -0.3087
19771TIP3    H280729   0.655   3.887   5.922  1.6545  0.6723 -0.5632
19772TIP3   OH280730   1.520   1.474   5.042  0.1079 -0.5261  0.1056
19772TIP3    H180731   1.572   1.477   4.962 -0.2070  0.5681 -0.0648
19772TIP3    H280732   1.563   1.537   5.100 -0.5447 -0.2252  0.2629
19773TIP3   OH280733   1.394   6.493   4.327  0.1832  0.7220 -0.2444
19773TIP3    H180734   1.399   6.568   4.386 -1.5322 -0.1857  1.0756
19773TIP3    H280735   1.330   6.519   4.260 -1.2471  0.0227  0.8382
19774TIP3   OH280736   7.255   0.421   6.181 -0.0034  0.5593  0.2868
19774TIP3    H180737   7.189   0.393   6.245 -0.2048  0.9438  0.2485
19774TIP3    H280738   7.209   0.483   6.125 -0.2832 -1.0390 -1.2820
19775TIP3   OH280739   0.571   7.159   5.659  0.5628  0.0196  0.5326
19775TIP3    H180740   0.605   7.161   5.570 -1.0557  0.6681 -0.0858
19775TIP3    H280741   0.640   7.199   5.712  1.1255  0.5164 -0.5638
19776TIP3   OH280742   7.298   1.523   2.734 -0.3163 -0.8590 -0.1018
19776TIP3    H180743   7.244   1.586   2.782  1.5170  3.0193 -2.8594
19776TIP3    H280744   7.367   1.499   2.796  1.1506  2.9182 -0.1005
19777TIP3   OH280745   1.694   0.428   6.269  0.4917  0.4324  0.0152
19777TIP3    H180746   1.695   0.450   6.176  0.4640  1.0237  0.1556
19777TIP3    H280747   1.615   0.470   6.303 -0.6360 -1.5131 -0.1164
19778TIP3   OH280748   7.132   6.297   4.918 -0.0855  0.4157 -0.1013
19778TIP3    H180749   7.182   6.242   4.979  0.8409  0.8599 -0.4558
19778TIP3    H280750   7.078   6.235   4.869  1.7245 -0.2985 -1.2296
19779TIP3   OH280751   3.362   1.177   5.055 -0.3862  0.2344 -0.8701
19779TIP3    H180752   3.409   1.112   5.107 -1.0639  0.7298  0.4188
19779TIP3    H280753   3.422   1.252   5.051 -0.9610  0.7983  0.6157
19780TIP3   OH280754   0.997   0.656   6.280 -0.7028 -0.3810 -0.1415
19780TIP3    H180755   0.971   0.564   6.284  0.3218 -0.6724  0.0520
19780TIP3    H280756   1.082   0.659   6.324 -1.4693  0.9437  1.3175
19781TIP3   OH280757   6.722   0.759   4.981  0.0054  0.3520  0.6943
19781TIP3    H180758   6.635   0.794   4.964 -0.5686 -0.9882  0.7762
19781TIP3    H280759   6.735   0.770   5.075 -0.1943  0.3081  0.7262
19782TIP3   OH280760   6.644   0.026   4.516  0.6024  0.2869 -0.6386
19782TIP3    H180761   6.734   0.057   4.513  0.9774 -0.1533  3.0887
19782TIP3    H280762   6.604   0.075   4.588 -2.8297  2.0644 -3.5849
19783TIP3   OH280763   2.516   0.502   5.950  0.0225 -0.2890 -0.1586
19783TIP3    H180764   2.557   0.575   5.996  0.1117 -1.1703  1.1649
19783TIP3    H280765   2.589   0.461   5.903  0.1824 -0.2825  0.0847
19784TIP3   OH280766   7.026   0.996   5.734  0.2488  0.1757 -0.0753
19784TIP3    H180767   7.028   1.075   5.789 -1.6691 -0.1115  0.4723
19784TIP3    H280768   7.070   0.929   5.787  0.2869  0.4363  0.2254
19785TIP3   OH280769   1.041   0.950   5.394 -0.1105 -0.3198  0.1806
19785TIP3    H180770   1.125   0.930   5.352 -1.0894 -1.7445 -1.1428
19785TIP3    H280771   1.010   0.865   5.426 -1.2821  0.1217  0.2337
19786TIP3   OH280772   6.758   0.727   3.890 -0.3169 -0.1836 -0.0231
19786TIP3    H180773   6.852   0.709   3.893 -0.1568  0.1114 -2.2386
19786TIP3    H280774   6.718   0.653   3.936  0.9835 -0.4109  0.7691
19787TIP3   OH280775   1.843   0.610   3.661 -0.5309  0.1519  0.0877
19787TIP3    H180776   1.810   0.700   3.663  1.2241  0.8385 -0.9379
19787TIP3    H280777   1.772   0.559   3.622 -1.3773  1.1537  0.3046
19788TIP3   OH280778   6.242   0.671   3.697  0.8750 -0.4797  0.6195
19788TIP3    H180779   6.178   0.639   3.761 -0.9107  1.2656 -0.2402
19788TIP3    H280780   6.231   0.766   3.696  2.2539 -0.3019 -0.8380
19789TIP3   OH280781   0.729   0.382   6.221  0.1948  0.0893 -0.4114
19789TIP3    H180782   0.806   0.394   6.277 -0.8798  0.2962  1.0476
19789TIP3    H280783   0.708   0.289   6.230 -0.6788  0.3681  0.4630
19790TIP3   OH280784   1.229   5.834   3.417 -0.8472  0.8124 -1.5699
19790TIP3    H180785   1.216   5.761   3.357  0.8571 -2.1602  1.4822
19790TIP3    H280786   1.151   5.832   3.473 -0.6290  1.0932 -1.2581
19791TIP3   OH280787   1.299   1.625   6.036  0.7446 -0.5896  0.0137
19791TIP3    H180788   1.386   1.599   6.006  0.8666  1.2460 -1.3150
19791TIP3    H280789   1.252   1.646   5.956 -0.3444  0.1446  0.8382
19792TIP3   OH280790   4.072   0.278   5.178 -0.6512 -0.4903 -0.3115
19792TIP3    H180791   4.115   0.358   5.149  0.2644 -0.5287  0.8819
19792TIP3    H280792   4.063   0.226   5.098 -0.7396  0.5566 -0.9976
19793TIP3   OH280793   2.074   0.400   4.854  0.1700  0.0548  0.1012
19793TIP3    H180794   2.073   0.493   4.877 -1.0612  0.4531 -1.4575
19793TIP3    H280795   2.051   0.398   4.761  0.7709 -1.7748 -0.0330
19794TIP3   OH280796   3.807   6.298   5.565  1.1730 -0.0184 -0.3506
19794TIP3    H180797   3.751   6.356   5.514  0.6623 -1.1793 -1.1304
19794TIP3    H280798   3.849   6.355   5.630 -2.3109  0.5906  1.4864
19795TIP3   OH280799   0.943   0.315   5.381 -0.2417 -0.4021 -0.3253
19795TIP3    H180800   1.017   0.370   5.408  2.0202 -3.9079  1.0117
19795TIP3    H280801   0.965   0.288   5.292  0.2490 -1.6468  0.1639
19796TIP3   OH280802   2.627   1.177   6.126  0.0130 -0.4020  0.0021
19796TIP3    H180803   2.536   1.147   6.129 -0.6415  1.6629  2.0555
19796TIP3    H280804   2.625   1.265   6.163  2.8439 -0.2762 -0.0290
19797TIP3   OH280805   6.265   0.261   1.687  0.3234  0.3970  0.2658
19797TIP3    H180806   6.234   0.317   1.616 -1.4970  0.8899  1.4340
19797TIP3    H280807   6.188   0.210   1.714  1.7166 -2.0336 -0.1545
19798TIP3   OH280808   3.318   5.213   5.640  0.3603  0.1719 -0.0535
19798TIP3    H180809   3.289   5.233   5.729  0.9592 -2.5891  0.8058
19798TIP3    H280810   3.236   5.200   5.591  0.0637 -1.3597  0.8397
19799TIP3   OH280811   2.548   0.399   4.892 -0.1409  0.6415  0.2128
19799TIP3    H180812   2.603   0.335   4.937  0.4930  0.0107 -1.4196
19799TIP3    H280813   2.466   0.352   4.877  0.3462  0.1730 -1.0407
19800TIP3   OH280814   6.025   0.625   3.858  0.7981  0.2136  0.1328
19800TIP3    H180815   5.999   0.568   3.931 -1.8343  0.8234 -0.2837
19800TIP3    H280816   6.013   0.714   3.892  1.5662  0.5002 -0.3541
19801TIP3   OH280817   4.173   0.604   3.290  0.1842  0.7323  0.3750
19801TIP3    H180818   4.185   0.670   3.221  1.1768 -0.1284 -0.2939
19801TIP3    H280819   4.166   0.521   3.243 -1.7376  0.4252  1.1789
19802TIP3   OH280820   2.808   0.953   6.148 -0.4697 -0.2568  0.1410
19802TIP3    H180821   2.801   0.924   6.239  2.3042  1.6477  1.0261
19802TIP3    H280822   2.791   1.047   6.152  0.7474  0.0300 -1.1341
19803TIP3   OH280823   5.752   1.474   5.186 -0.0471  0.4306  0.2951
19803TIP3    H180824   5.725   1.541   5.249 -0.5216  1.7831 -1.2923
19803TIP3    H280825   5.705   1.395   5.212  1.1314  0.4643  2.6863
19804TIP3   OH280826   2.821   1.170   4.425  0.2181  0.0124 -0.2586
19804TIP3    H180827   2.861   1.106   4.484  0.4974  0.9363  0.5511
19804TIP3    H280828   2.744   1.126   4.390  0.4435 -0.7872  0.2459
19805TIP3   OH280829   5.854   5.940   4.812 -0.8388  0.4972 -0.2160
19805TIP3    H180830   5.847   6.000   4.738 -0.7481  0.4519 -0.2634
19805TIP3    H280831   5.940   5.959   4.850 -1.3100  1.2032  0.4858
19806TIP3   OH280832   5.696   1.409   6.117 -0.6410 -0.2134 -0.3746
19806TIP3    H180833   5.775   1.396   6.064 -0.3483 -1.4951  0.3406
19806TIP3    H280834   5.652   1.324   6.115 -1.5351  0.2377 -0.0292
19807TIP3   OH280835   0.659   0.370   5.861 -0.2383 -0.0509 -0.2128
19807TIP3    H180836   0.710   0.298   5.898  0.0013 -0.5114 -1.4460
19807TIP3    H280837   0.627   0.337   5.777 -1.0723  0.8741 -0.2652
19808TIP3   OH280838   0.516   0.328   3.639 -0.4354 -0.3438  0.7645
19808TIP3    H180839   0.584   0.385   3.603 -1.8450  1.4844  0.9527
19808TIP3    H280840   0.545   0.309   3.729 -0.4409  0.9055  1.0387
19809TIP3   OH280841   0.670   6.609   4.212  0.3380  0.3022 -0.3383
19809TIP3    H180842   0.587   6.584   4.252 -0.3460 -1.9866 -3.0503
19809TIP3    H280843   0.652   6.693   4.169 -0.2976  0.3190 -0.0345
19810TIP3   OH280844   6.249   1.929   6.004  0.8984 -0.0264 -0.5077
19810TIP3    H180845   6.253   1.834   5.996 -0.7142 -0.0125 -1.6339
19810TIP3    H280846   6.274   1.962   5.918 -0.8014  0.5019 -0.8273
19811TIP3   OH280847   4.308   4.787   4.317 -0.0345  0.5333 -0.1938
19811TIP3    H180848   4.387   4.788   4.371 -0.4042  1.6471  0.3309
19811TIP3    H280849   4.271   4.699   4.330  0.3423  0.5015  0.6947
19812TIP3   OH280850   6.896   1.069   4.635  0.2589  0.4673  0.6466
19812TIP3    H180851   6.920   1.110   4.552  0.7580  0.1150  0.6140
19812TIP3    H280852   6.975   1.078   4.689  0.8713 -1.7334  0.1488
19813TIP3   OH280853   5.944   0.660   4.494 -0.1005  0.3282 -0.3070
19813TIP3    H180854   5.923   0.700   4.578  0.1437  0.9541 -0.5431
19813TIP3    H280855   5.901   0.575   4.497 -0.7592  0.6705  0.1362
19814TIP3   OH280856   7.277   6.669   3.595  0.5062  0.3240 -0.2254
19814TIP3    H180857   7.292   6.578   3.619 -1.4141  0.3782  1.2717
19814TIP3    H280858   7.261   6.714   3.678 -2.8010  1.1884 -1.2535
19815TIP3   OH280859   6.341   0.830   6.310  0.2181  0.0717 -0.3428
19815TIP3    H180860   6.311   0.761   6.250 -0.1804  0.4137 -0.5372
19815TIP3    H280861   6.424   0.859   6.273  1.1671 -1.3864  0.5973
19816TIP3   OH280862   6.125   4.388   5.324  0.0569  1.1439  0.2314
19816TIP3    H180863   6.102   4.479   5.309 -2.3240  0.6920  0.8737
19816TIP3    H280864   6.168   4.387   5.410 -0.7557  1.5483  0.6506
19817TIP3   OH280865   4.694   2.093   4.849 -0.4798  0.1755  0.4187
19817TIP3    H180866   4.666   2.073   4.759  1.5951  1.0880 -0.4510
19817TIP3    H280867   4.756   2.023   4.871  0.7479  1.2079  0.2823
19818TIP3   OH280868   5.807   4.206   4.412 -0.2948 -0.5873 -0.4286
19818TIP3    H180869   5.854   4.123   4.421  0.0629 -0.5885 -2.0982
19818TIP3    H280870   5.854   4.253   4.343 -0.3357  1.1254  0.6899
19819TIP3   OH280871   6.465   5.257   4.147 -0.3270 -0.9660  0.2990
19819TIP3    H180872   6.468   5.181   4.090 -0.9815  0.0486 -1.0968
19819TIP3    H280873   6.451   5.331   4.089  3.5139  0.6727  1.2551
19820TIP3   OH280874   4.841   6.864   4.912  0.3805 -0.1369 -0.5927
19820TIP3    H180875   4.847   6.946   4.961  0.9636  0.4908 -1.6886
19820TIP3    H280876   4.895   6.802   4.962  0.3603  0.2920 -0.0371
19821TIP3   OH280877   6.714   0.499   4.387  0.0005  0.5042  0.1954
19821TIP3    H180878   6.742   0.475   4.476 -0.5435  0.0941  0.2617
19821TIP3    H280879   6.618   0.488   4.389 -0.2197  2.3630  0.1296
19822TIP3   OH280880   1.297   1.185   5.168 -0.2546 -0.2652 -0.0316
19822TIP3    H180881   1.293   1.092   5.190  0.8068 -0.8975 -2.3308
19822TIP3    H280882   1.206   1.211   5.160 -0.5691 -1.0398  0.8390
19823TIP3   OH280883   0.103   2.265   3.564  0.2735  0.7054 -0.2216
19823TIP3    H180884   0.136   2.232   3.481  0.0534  0.3663 -0.1750
19823TIP3    H280885   0.009   2.246   3.562 -0.1623  2.7406 -0.8700
19824TIP3   OH280886   1.034   2.901   6.294  0.3432 -0.5984  0.9189
19824TIP3    H180887   0.986   2.910   6.377 -0.0408 -1.4922  0.7943
19824TIP3    H280888   1.103   2.967   6.300 -0.6153  0.3805  1.3000
19825TIP3   OH280889   0.849   2.829   4.698  0.9093 -0.0090 -0.1005
19825TIP3    H180890   0.942   2.830   4.721  0.4011 -0.8578  2.1498
19825TIP3    H280891   0.806   2.869   4.774 -0.4118  2.2995 -1.9837
19826TIP3   OH280892   0.109   3.748   5.857 -0.4498 -0.0764  0.2042
19826TIP3    H180893   0.139   3.683   5.921  1.6449 -0.7227 -1.3560
19826TIP3    H280894   0.152   3.829   5.883 -0.4607 -0.0853  0.2489
19827TIP3   OH280895   0.553   2.236   6.065  0.3545 -0.7201 -0.4807
19827TIP3    H180896   0.578   2.146   6.082  0.8689 -0.4851  0.0312
19827TIP3    H280897   0.635   2.280   6.043  0.6833  0.4026  2.7147
19828TIP3   OH280898   6.480   3.364   4.171 -0.4266 -0.0732 -0.0750
19828TIP3    H180899   6.430   3.445   4.171 -2.6835 -1.4082  1.1984
19828TIP3    H280900   6.451   3.318   4.092 -1.9281 -1.2270  1.1068
19829TIP3   OH280901   7.200   3.835   6.094  0.2542 -0.2149 -0.1295
19829TIP3    H180902   7.267   3.810   6.030  1.5223 -0.5421  1.3152
19829TIP3    H280903   7.172   3.753   6.134 -1.7656 -0.1985 -1.4204
19830TIP3   OH280904   1.358   4.471   4.349 -0.1519  0.4714 -0.0397
19830TIP3    H180905   1.451   4.453   4.359  0.1141  2.0164  0.3686
19830TIP3    H280906   1.353   4.549   4.295 -1.1194  1.7855  1.8781
19831TIP3   OH280907   0.487   3.372   6.689 -0.0348 -0.2288 -0.4651
19831TIP3    H180908   0.430   3.411   6.755  1.1069 -1.8154  1.5088
19831TIP3    H280909   0.434   3.306   6.645 -0.0282 -0.9958  0.6727
19832TIP3   OH280910   6.358   1.975   5.758 -0.0981  0.5495  0.3433
19832TIP3    H180911   6.354   2.071   5.759  0.8081  0.5986 -0.3489
19832TIP3    H280912   6.421   1.954   5.689  0.3112 -0.5290  1.0296
19833TIP3   OH280913   1.715   3.158   5.215  0.4222 -0.4289  0.6091
19833TIP3    H180914   1.646   3.191   5.157  0.3857 -0.9485  0.3607
19833TIP3    H280915   1.733   3.231   5.274 -0.0539 -0.1494  0.4104
19834TIP3   OH280916   1.489   3.754   5.345 -0.0465  0.7335 -0.5288
19834TIP3    H180917   1.415   3.727   5.399  1.0911 -1.7035 -0.1066
19834TIP3    H280918   1.449   3.781   5.262 -1.5178  0.8339  0.1899
19835TIP3   OH280919   5.465   5.255   5.686 -0.6933  0.2457 -0.2471
19835TIP3    H180920   5.483   5.348   5.672  0.0260  0.3155  0.9860
19835TIP3    H280921   5.375   5.243   5.658 -0.7098  1.2675 -0.6455
19836TIP3   OH280922   1.815   4.671   5.172 -0.1027 -0.2245  0.1670
19836TIP3    H180923   1.835   4.763   5.157 -0.2010 -0.3560 -0.7851
19836TIP3    H280924   1.721   4.663   5.156 -0.3034 -0.2701  1.3463
19837TIP3   OH280925   5.450   1.747   4.204 -0.5710 -0.1964 -0.6892
19837TIP3    H180926   5.456   1.681   4.273  0.0024  0.3855 -0.1731
19837TIP3    H280927   5.494   1.824   4.241 -0.7876  0.3077 -1.4772
19838TIP3   OH280928   0.220   2.858   3.185 -0.0386 -0.1763 -0.0700
19838TIP3    H180929   0.171   2.784   3.148 -1.0919  0.4053  0.1546
19838TIP3    H280930   0.167   2.886   3.260  0.0642  1.1809 -0.4997
19839TIP3   OH280931   1.331   1.068   5.719  0.6452  0.3076  0.4113
19839TIP3    H180932   1.296   1.138   5.774 -0.5467 -0.4405  0.6486
19839TIP3    H280933   1.426   1.080   5.722  0.3767  3.2691 -1.4095
19840TIP3   OH280934   1.449   3.869   6.126 -0.2634  0.2084  0.3220
19840TIP3    H180935   1.479   3.960   6.137 -1.0053  0.5110 -0.1380
19840TIP3    H280936   1.529   3.817   6.132  0.5572  1.0977 -2.0826
19841TIP3   OH280937   0.272   3.375   5.415 -0.3615 -0.4162 -0.1096
19841TIP3    H180938   0.234   3.328   5.341 -0.4809 -0.8624  0.2327
19841TIP3    H280939   0.366   3.370   5.400 -0.3580 -1.1141  0.1380
19842TIP3   OH280940   2.582   2.799   5.308 -0.8477 -0.2086  0.7394
19842TIP3    H180941   2.525   2.752   5.369 -0.7809 -0.7412  0.3856
19842TIP3    H280942   2.658   2.742   5.296 -0.0566  0.6554  1.4983
19843TIP3   OH280943   2.833   7.006   6.072  0.3372  0.4582  0.1527
19843TIP3    H180944   2.867   7.015   5.983 -2.6303  0.5903 -1.0093
19843TIP3    H280945   2.846   6.914   6.093 -3.0582 -0.6582 -2.2126
19844TIP3   OH280946   0.888   1.892   5.989  0.3623  0.3591  0.2125
19844TIP3    H180947   0.899   1.912   6.082 -0.2531 -0.0255  0.3761
19844TIP3    H280948   0.890   1.977   5.946 -1.7296  0.7603  0.8502
19845TIP3   OH280949   0.711   3.474   6.272  0.3678 -0.0479  0.3532
19845TIP3    H180950   0.694   3.413   6.343  1.1540  1.0280  1.4790
19845TIP3    H280951   0.803   3.462   6.251  0.0031 -0.7755 -0.8969
19846TIP3   OH280952   0.212   2.606   4.417  0.1983  0.8167 -0.0536
19846TIP3    H180953   0.308   2.601   4.415  0.1235 -0.4494 -0.7879
19846TIP3    H280954   0.184   2.520   4.448 -0.7546  0.6168 -1.4619
19847TIP3   OH280955   4.079   3.073   4.050  0.1067  0.1134  0.1647
19847TIP3    H180956   4.033   3.054   3.968 -1.1741 -0.7299  1.0691
19847TIP3    H280957   4.028   3.029   4.117 -0.5587  3.2597  1.8211
19848TIP3   OH280958   2.846   2.099   5.741  0.2608  0.3200  0.2512
19848TIP3    H180959   2.829   2.191   5.719  0.4612 -0.0224 -1.4458
19848TIP3    H280960   2.810   2.088   5.828  0.0950  1.9769  0.4167
19849TIP3   OH280961   3.532   2.698   4.880  0.0648  0.0037  0.4089
19849TIP3    H180962   3.475   2.770   4.852  0.5902  0.1592 -0.2947
19849TIP3    H280963   3.479   2.619   4.870  0.4969 -0.0481 -1.9165
19850TIP3   OH280964   3.552   1.610   4.207  0.1668 -0.2158 -0.0750
19850TIP3    H180965   3.562   1.519   4.178 -1.6522 -0.1991 -0.8221
19850TIP3    H280966   3.608   1.617   4.285  0.8762 -1.7662 -0.4335
19851TIP3   OH280967   0.673   3.157   2.728 -0.7049  0.4697 -0.0874
19851TIP3    H180968   0.684   3.064   2.751 -1.1662  0.8170  1.6335
19851TIP3    H280969   0.762   3.190   2.719 -0.5288 -0.0458 -0.2808
19852TIP3   OH280970   0.570   3.408   4.388  0.3722  0.6335 -0.0327
19852TIP3    H180971   0.643   3.468   4.397  1.1378 -0.4440  1.1549
19852TIP3    H280972   0.606   3.332   4.342 -0.0202  0.1443  0.4602
19853TIP3   OH280973   3.163   2.918   4.956 -0.6745 -0.0598 -0.0395
19853TIP3    H180974   3.133   2.903   5.046 -0.5610 -0.9489 -0.1416
19853TIP3    H280975   3.103   2.865   4.903 -0.2837 -0.1127 -0.4252
19854TIP3   OH280976   2.536   1.659   5.487 -0.0259  0.3182 -0.0042
19854TIP3    H180977   2.630   1.649   5.469 -0.3462  1.7239 -2.6409
19854TIP3    H280978   2.531   1.661   5.582  2.6538  0.5039  0.1923
19855TIP3   OH280979   3.528   2.577   5.954 -0.7025 -0.2218 -0.8390
19855TIP3    H180980   3.460   2.595   6.020  0.8087 -0.2332  0.7575
19855TIP3    H280981   3.534   2.481   5.952  0.1803 -0.1942  0.0038
19856TIP3   OH280982   0.585   2.607   5.868 -0.4494 -0.3585  0.7790
19856TIP3    H180983   0.668   2.645   5.897 -0.2809 -0.5266  0.5233
19856TIP3    H280984   0.609   2.520   5.836 -0.3836  0.4008 -1.3088
19857TIP3   OH280985   3.136   7.122   3.906  0.7166 -0.2102 -0.0744
19857TIP3    H180986   3.169   7.033   3.922 -0.1710 -0.4850  0.2713
19857TIP3    H280987   3.200   7.161   3.847  1.3857 -0.9096  0.1766
19858TIP3   OH280988   5.230   2.438   5.991 -0.0119 -0.2400  0.4833
19858TIP3    H180989   5.300   2.372   5.985  0.3793  0.2211 -0.0673
19858TIP3    H280990   5.151   2.387   6.005  0.1941 -0.8849 -0.6038
19859TIP3   OH280991   6.084   3.155   5.170 -0.0513 -0.3880 -0.0618
19859TIP3    H180992   6.047   3.222   5.112 -2.8549 -1.5157  0.3392
19859TIP3    H280993   6.013   3.092   5.182  1.5544 -1.8813  1.9701
19860TIP3   OH280994   3.600   4.770   4.608  0.2716 -0.0404 -0.5115
19860TIP3    H180995   3.571   4.845   4.555 -0.5691 -0.3918 -0.5615
19860TIP3    H280996   3.621   4.702   4.544  3.3761  0.9331 -0.5868
19861TIP3   OH280997   4.224   2.742   4.335  0.3672  0.1495  0.0446
19861TIP3    H180998   4.183   2.693   4.264 -1.4003  0.4317  0.8328
19861TIP3    H280999   4.189   2.703   4.415 -0.5147  2.1669  0.6901
19862TIP3   OH281000   6.327   2.746   4.274 -0.1272 -0.4358  0.5071
19862TIP3    H181001   6.393   2.744   4.205 -0.5256 -0.7084  0.1355
19862TIP3    H281002   6.260   2.684   4.245 -0.4548 -0.3019  0.9770
19863TIP3   OH281003   4.542   4.120   5.855 -0.2598  0.2699 -0.2409
19863TIP3    H181004   4.535   4.029   5.825  0.0311  0.1139  0.1601
19863TIP3    H281005   4.478   4.127   5.925  1.6008 -0.4038  1.5892
19864TIP3   OH281006   0.600   1.722   4.100 -0.0887 -0.2219  0.2309
19864TIP3    H181007   0.625   1.639   4.140  0.2071  0.8301  2.3047
19864TIP3    H281008   0.653   1.787   4.146 -0.1729  1.1094 -1.4986
19865TIP3   OH281009   5.497   4.169   5.289 -0.4944  0.1946  0.5278
19865TIP3    H181010   5.434   4.237   5.266  0.9736  2.0841  1.9042
19865TIP3    H281011   5.536   4.200   5.371 -0.1624 -2.5680  1.4656
19866TIP3   OH281012   4.193   0.542   5.122 -0.1893  0.3262  0.4587
19866TIP3    H181013   4.283   0.569   5.139  0.9182 -2.5386 -0.6339
19866TIP3    H281014   4.159   0.611   5.064  1.9065  0.4452 -0.6740
19867TIP3   OH281015   5.636   2.603   4.673 -0.5219 -0.2552 -0.1951
19867TIP3    H181016   5.698   2.625   4.603 -1.6394  0.5766 -0.9565
19867TIP3    H281017   5.659   2.662   4.745 -0.6814  0.3383 -0.6233
19868TIP3   OH281018   2.820   6.914   3.741 -0.3494 -0.0307 -0.7786
19868TIP3    H181019   2.899   6.966   3.756  0.4444 -1.2572 -0.6070
19868TIP3    H281020   2.819   6.897   3.647  0.5921 -1.5300 -0.5436
19869TIP3   OH281021   5.162   2.550   4.089  0.6855  0.0292  0.0578
19869TIP3    H181022   5.248   2.578   4.120  1.3723 -0.3960 -1.4439
19869TIP3    H281023   5.100   2.611   4.131  1.8334  1.2854 -0.0531
19870TIP3   OH281024   2.190   3.033   4.081 -0.3045 -0.1039  0.6669
19870TIP3    H181025   2.286   3.029   4.079 -0.3410 -0.6705 -0.6754
19870TIP3    H281026   2.162   2.944   4.060 -1.1072  0.6664 -1.7569
19871TIP3   OH281027   6.126   2.583   5.824  0.2276  0.0401 -0.5699
19871TIP3    H181028   6.211   2.585   5.781  0.2097 -0.6233 -0.6452
19871TIP3    H281029   6.139   2.529   5.902  0.0401  0.5001 -0.2187
19872TIP3   OH281030   6.913   1.762   4.961 -0.0942  0.3005  1.0723
19872TIP3    H181031   6.840   1.736   5.016 -0.4270 -0.6919  0.1832
19872TIP3    H281032   6.908   1.704   4.885 -0.3873  2.4476 -0.6200
19873TIP3   OH281033   5.718   1.530   4.711  0.2319 -0.0814 -0.0159
19873TIP3    H181034   5.729   1.625   4.721  1.1906 -0.3190  1.3320
19873TIP3    H281035   5.784   1.492   4.768 -1.6209 -1.5783  1.2045
19874TIP3   OH281036   0.422   5.126   4.869  0.7190 -0.3165  0.3073
19874TIP3    H181037   0.424   5.035   4.899  0.8225 -0.4465 -0.0990
19874TIP3    H281038   0.481   5.128   4.794 -1.0102 -0.4276 -1.0991
19875TIP3   OH281039   0.002   4.354   4.800  0.3417 -0.5520  0.2987
19875TIP3    H181040  -0.093   4.345   4.790 -0.1051  0.5110  2.9046
19875TIP3    H281041   0.033   4.266   4.818 -0.3828 -0.6846  0.9393
19876TIP3   OH281042   5.945   1.955   4.372 -0.0947  0.1103 -0.5142
19876TIP3    H181043   6.013   1.929   4.311 -2.2404 -0.7812 -2.6335
19876TIP3    H281044   5.929   2.047   4.353  0.6344  0.3699  0.1149
19877TIP3   OH281045   6.308   3.424   4.625  0.3977 -0.5553 -0.2499
19877TIP3    H181046   6.273   3.367   4.557  0.3246  0.3911 -1.0133
19877TIP3    H281047   6.231   3.451   4.675  0.3201 -0.3266 -0.4970
19878TIP3   OH281048   6.984   3.422   1.951  0.1791 -0.2579  0.0928
19878TIP3    H181049   6.972   3.465   2.035 -0.3925 -1.3278  0.5603
19878TIP3    H281050   7.007   3.332   1.972 -1.0764 -0.8250 -0.9004
19879TIP3   OH281051   6.465   4.792   1.349  0.3176  0.0986  0.0188
19879TIP3    H181052   6.554   4.780   1.383  0.7039 -0.6287 -1.1924
19879TIP3    H281053   6.464   4.741   1.268 -0.9489  0.7908 -0.4114
19880TIP3   OH281054   0.058   2.374   5.039  0.0873 -0.2595 -0.3752
19880TIP3    H181055   0.051   2.298   5.097  2.3269 -0.2828 -0.0863
19880TIP3    H281056   0.137   2.357   4.988  0.8220  2.0318 -0.0430
19881TIP3   OH281057   4.764   5.612   5.526 -0.2020 -0.2894  1.2514
19881TIP3    H181058   4.816   5.691   5.533 -0.6887  0.1443  0.1116
19881TIP3    H281059   4.733   5.611   5.436  0.4662 -2.2015  1.0124
19882TIP3   OH281060   5.848   4.295   5.371  0.3116  0.7467  0.2335
19882TIP3    H181061   5.942   4.293   5.393  0.4055  1.4686 -0.1153
19882TIP3    H281062   5.827   4.388   5.363  0.0139  0.5298 -1.6025
19883TIP3   OH281063   7.018   4.036   6.084  0.2762 -0.4878 -0.1833
19883TIP3    H181064   7.084   3.980   6.043  0.4632 -1.5916  1.6118
19883TIP3    H281065   7.067   4.088   6.148  0.1181  1.8254 -1.8492
19884TIP3   OH281066   7.226   5.115   2.723 -0.3047 -0.1408  0.5249
19884TIP3    H181067   7.285   5.111   2.647 -0.1092  1.3549  0.5855
19884TIP3    H281068   7.168   5.040   2.711  0.3351 -0.4789 -0.6047
19885TIP3   OH281069   4.511   4.692   4.523  0.5226 -0.0545  0.1690
19885TIP3    H181070   4.588   4.654   4.480 -0.8669 -2.0619 -0.5933
19885TIP3    H281071   4.487   4.629   4.591 -1.0127  0.1122 -0.2021
19886TIP3   OH281072   5.716   2.993   4.770  0.0573  0.3419  0.0287
19886TIP3    H181073   5.678   3.010   4.684  1.0167 -0.2902 -0.5315
19886TIP3    H281074   5.762   3.074   4.793 -1.6791  1.1320  0.7437
19887TIP3   OH281075   0.288   1.650   4.668 -0.0785  0.6080  0.0103
19887TIP3    H181076   0.375   1.612   4.660  0.0339  0.2903  2.3040
19887TIP3    H281077   0.301   1.729   4.720 -1.1055  0.6556  0.2068
19888TIP3   OH281078   7.090   3.474   2.329  0.5404 -0.0798 -0.3097
19888TIP3    H181079   7.135   3.390   2.336 -0.4521 -0.6342 -0.4372
19888TIP3    H281080   7.088   3.508   2.418  0.1143 -0.6390 -0.1034
19889TIP3   OH281081   2.986   4.054   5.246  0.5232 -0.1298 -0.4007
19889TIP3    H181082   2.986   4.058   5.342  0.6109  1.2377 -0.4428
19889TIP3    H281083   2.904   4.098   5.221  1.3980  1.2174 -0.9878
19890TIP3   OH281084   6.819   4.428   5.873  0.2843 -0.4113  0.2005
19890TIP3    H181085   6.906   4.411   5.909 -0.4678 -1.1614  1.6911
19890TIP3    H281086   6.760   4.426   5.948 -0.6118  3.5089 -0.3107
19891TIP3   OH281087   1.663   5.291   6.018 -0.2288 -0.3068 -0.0289
19891TIP3    H181088   1.727   5.314   6.086 -1.9255  1.6510  0.9816
19891TIP3    H281089   1.634   5.203   6.042  0.3328 -0.2500  0.9000
19892TIP3   OH281090   1.109   5.946   6.060  0.3373 -0.3111 -0.0455
19892TIP3    H181091   1.038   5.890   6.091  0.3665 -0.5548 -0.4226
19892TIP3    H281092   1.177   5.937   6.128  0.2473 -0.5434  0.0146
19893TIP3   OH281093   5.210   5.954   3.043  0.1070  0.0628  0.7396
19893TIP3    H181094   5.242   5.959   3.133  1.7436 -0.6680  0.2183
19893TIP3    H281095   5.134   5.897   3.048  1.2683 -1.4858  1.3944
19894TIP3   OH281096   4.643   5.987   5.929  0.2060 -0.4344  0.3785
19894TIP3    H181097   4.605   5.980   5.842 -0.6640  0.5850  0.6590
19894TIP3    H281098   4.569   6.010   5.985  1.1326  1.0379  1.0382
19895TIP3   OH281099   3.231   1.383   5.518  0.1486 -0.2093 -0.3228
19895TIP3    H181100   3.224   1.384   5.614  2.5366 -0.0128 -0.1173
19895TIP3    H281101   3.160   1.441   5.489  0.6022  1.2902  1.4316
19896TIP3   OH281102   1.942   6.494   4.535  0.4071  0.3978  0.2341
19896TIP3    H181103   1.989   6.490   4.452  0.2213  1.6872  0.0569
19896TIP3    H281104   1.855   6.461   4.516  0.8544 -0.8371  0.2865
19897TIP3   OH281105   1.127   3.461   5.606 -0.2008 -0.0498  0.1738
19897TIP3    H181106   1.149   3.393   5.670 -1.6270  0.1797  0.9434
19897TIP3    H281107   1.031   3.462   5.605 -0.1943  0.4545 -1.4494
19898TIP3   OH281108   0.808   5.054   3.280 -0.0328 -0.1972 -0.3463
19898TIP3    H181109   0.729   5.024   3.325  0.3874 -0.6080  0.1235
19898TIP3    H281110   0.776   5.115   3.213 -0.5300  1.6299  1.5309
19899TIP3   OH281111   2.701   4.464   4.764  0.2132  0.3590  0.1062
19899TIP3    H181112   2.643   4.540   4.767  0.6238  0.6541  1.1154
19899TIP3    H281113   2.665   4.404   4.830 -0.5915 -0.6867 -1.2693
19900TIP3   OH281114   0.642   3.222   3.956 -0.0594 -0.2266  0.4253
19900TIP3    H181115   0.714   3.230   4.019 -0.5091  0.1929  0.8893
19900TIP3    H281116   0.614   3.130   3.963  0.4311 -0.3920  0.2397
19901TIP3   OH281117   5.086   5.170   6.429 -0.0017  0.3663  0.5103
19901TIP3    H181118   5.083   5.257   6.470  1.8333 -0.1529  1.8322
19901TIP3    H281119   5.036   5.114   6.488  0.1089  0.2185  0.4626
19902TIP3   OH281120   3.935   5.562   5.760  0.1577 -0.0697  0.2849
19902TIP3    H181121   3.946   5.638   5.818  0.8165  0.9191 -1.0965
19902TIP3    H281122   3.936   5.487   5.819  2.0103  0.8340  1.4612
19903TIP3   OH281123   3.997   5.881   5.389  0.3720  0.7345  0.2152
19903TIP3    H181124   3.995   5.790   5.420 -2.3467  0.9186  0.6873
19903TIP3    H281125   4.062   5.880   5.318  1.3148 -1.2795  1.0425
19904TIP3   OH281126   1.732   3.855   2.663 -0.3130  0.5762 -0.3614
19904TIP3    H181127   1.752   3.923   2.728  0.3875  1.4445 -1.4805
19904TIP3    H281128   1.643   3.827   2.685  0.4844 -0.2601  1.9521
19905TIP3   OH281129   4.568   3.683   5.091 -0.3271 -0.1642 -0.2312
19905TIP3    H181130   4.519   3.608   5.057  1.3321 -0.9804 -0.8803
19905TIP3    H281131   4.511   3.758   5.073 -1.4419 -1.1144 -0.7626
19906TIP3   OH281132   2.323   3.938   5.282  0.0652  0.0741  0.0020
19906TIP3    H181133   2.388   3.998   5.245  0.8679 -1.1677 -0.6751
19906TIP3    H281134   2.375   3.865   5.315 -1.0123 -1.0368 -0.7279
19907TIP3   OH281135   3.899   2.712   4.074  0.3095 -0.5523 -0.1598
19907TIP3    H181136   3.852   2.789   4.105  2.8804  1.3252 -0.7794
19907TIP3    H281137   3.924   2.666   4.155 -0.2543 -0.1187  0.2644
19908TIP3   OH281138   1.366   3.039   5.779 -0.5722 -0.2678  0.4075
19908TIP3    H181139   1.328   2.957   5.748 -0.9933  1.3991 -3.8063
19908TIP3    H281140   1.460   3.026   5.775 -0.6280 -0.1728 -1.4309
19909TIP3   OH281141   0.157   4.530   1.976  0.3680  0.7122 -0.1094
19909TIP3    H181142   0.253   4.530   1.981  0.3476  0.5068  0.2631
19909TIP3    H281143   0.138   4.527   1.882  0.7312  3.3048 -0.2892
19910TIP3   OH281144   2.879   2.949   4.653 -0.5088 -0.0771  0.1390
19910TIP3    H181145   2.834   2.954   4.569  2.0006  0.4759 -1.2213
19910TIP3    H281146   2.909   3.039   4.669  1.1475 -0.6687  0.4033
19911TIP3   OH281147   2.667   2.272   5.132 -0.1068  0.3594 -0.4108
19911TIP3    H181148   2.651   2.347   5.074 -1.3703  0.6123  0.2473
19911TIP3    H281149   2.718   2.309   5.205 -1.7429  0.8724  0.5175
19912TIP3   OH281150   0.710   4.389   5.682  0.1109  0.6455  0.2499
19912TIP3    H181151   0.704   4.444   5.759 -1.0968  1.7932 -0.6543
19912TIP3    H281152   0.691   4.300   5.714 -3.3135  1.5025  0.8027
19913TIP3   OH281153   5.877   4.829   6.208  0.0571  0.6117 -0.4185
19913TIP3    H181154   5.811   4.861   6.147 -1.0286  1.3901  1.1138
19913TIP3    H281155   5.864   4.882   6.287  0.7967 -0.9858  0.8117
19914TIP3   OH281156   4.279   4.715   6.377 -0.4706  0.0707 -0.1437
19914TIP3    H181157   4.236   4.776   6.317  0.2884  2.7368  1.8902
19914TIP3    H281158   4.240   4.734   6.462  2.8288  0.7704  1.2903
19915TIP3   OH281159   4.716   5.386   6.249 -0.7835 -0.2795  0.3281
19915TIP3    H181160   4.750   5.426   6.170  0.2493 -0.6040  0.6019
19915TIP3    H281161   4.642   5.333   6.219  0.1522 -1.1109 -0.5569
19916TIP3   OH281162   4.182   4.739   5.534 -0.3747  0.9846 -0.2901
19916TIP3    H181163   4.220   4.761   5.449 -0.0926 -2.4854 -1.1236
19916TIP3    H281164   4.252   4.757   5.597 -0.8107  4.2474 -0.6334
19917TIP3   OH281165   6.946   5.577   3.977 -0.2926  0.3157 -0.1936
19917TIP3    H181166   7.008   5.510   3.949 -1.9953 -1.1277 -0.5939
19917TIP3    H281167   6.955   5.580   4.072 -0.1184 -0.3874 -0.1834
19918TIP3   OH281168   3.948   5.083   6.203  0.2046  0.1598 -0.1203
19918TIP3    H181169   3.989   5.113   6.122 -0.0735  0.8435 -0.0165
19918TIP3    H281170   4.009   5.019   6.239  0.3600 -0.1011 -0.8349
19919TIP3   OH281171   0.372   4.907   3.789  0.2467 -0.0358  0.1332
19919TIP3    H181172   0.408   4.912   3.700 -0.1000 -3.1888 -0.2491
19919TIP3    H281173   0.278   4.919   3.777  0.1605 -0.7957  0.0120
19920TIP3   OH281174   6.005   4.636   5.655 -0.2839 -1.5759  0.0144
19920TIP3    H181175   6.079   4.657   5.712  0.7435  2.1602 -2.5289
19920TIP3    H281176   5.949   4.714   5.659 -2.2676 -2.9149 -0.9474
19921TIP3   OH281177   4.231   4.955   5.801 -0.3896  0.4450  0.0142
19921TIP3    H181178   4.279   5.002   5.869  0.6632 -2.1083  1.1381
19921TIP3    H281179   4.178   4.891   5.850 -0.5361 -0.6205 -1.5013
19922TIP3   OH281180   4.214   5.217   4.845  0.0903  0.0268 -0.1205
19922TIP3    H181181   4.246   5.268   4.771 -0.2530 -0.7233 -0.7971
19922TIP3    H281182   4.161   5.278   4.895  1.6796  0.9892  0.4276
19923TIP3   OH281183   3.782   4.021   6.354  0.0379  0.1320  0.9900
19923TIP3    H181184   3.687   4.028   6.345  0.2325  0.4391 -1.0237
19923TIP3    H281185   3.811   4.111   6.372  0.1764  0.4473 -0.7838
19924TIP3   OH281186   3.875   3.829   4.719  0.0643 -0.0337  0.3938
19924TIP3    H181187   3.850   3.742   4.748 -1.1909 -0.0969 -0.8391
19924TIP3    H281188   3.842   3.836   4.630  2.1002  0.8833 -0.3408
19925TIP3   OH281189   4.434   0.115   1.610 -0.3992  0.3194 -0.0198
19925TIP3    H181190   4.459   0.099   1.701 -1.0293  0.0540  0.1142
19925TIP3    H281191   4.445   0.209   1.598 -1.1133  0.4831  0.5851
19926TIP3   OH281192   6.908   5.458   5.855  0.1722  0.2297  0.2150
19926TIP3    H181193   6.884   5.550   5.861 -1.2047 -0.0470 -0.9141
19926TIP3    H281194   6.991   5.452   5.903 -0.8936  1.6026  2.3446
19927TIP3   OH281195   4.763   5.017   4.878  0.5235  0.0287 -0.0327
19927TIP3    H181196   4.743   5.010   4.784  0.4126 -1.5426  0.1031
19927TIP3    H281197   4.679   5.012   4.922  0.6487 -0.0713  0.1979
19928TIP3   OH281198   5.653   6.312   4.883 -0.1482 -0.0432  0.2410
19928TIP3    H181199   5.720   6.298   4.950 -0.0063  0.1637  0.1438
19928TIP3    H281200   5.641   6.407   4.882  1.4747  0.1679 -1.6024
19929TIP3   OH281201   3.341   5.233   2.799 -1.0212  0.5379 -0.3078
19929TIP3    H181202   3.366   5.250   2.708  2.1571 -0.1207  0.3827
19929TIP3    H281203   3.424   5.227   2.846 -2.5781 -0.2300  2.4633
19930TIP3   OH281204   4.902   0.407   3.531 -0.0317 -0.2502 -0.1754
19930TIP3    H181205   4.951   0.482   3.567 -1.0474  0.2010  0.2873
19930TIP3    H281206   4.888   0.350   3.607 -1.7585  0.4712  0.0667
19931TIP3   OH281207   6.982   4.028   4.130  0.0419  0.2316 -0.6885
19931TIP3    H181208   7.012   3.994   4.046  0.1371  0.0358 -0.5755
19931TIP3    H281209   6.944   3.952   4.174 -0.3865  0.4242 -0.7281
19932TIP3   OH281210   3.377   2.878   3.504 -0.2378  0.2096  0.4699
19932TIP3    H181211   3.378   2.783   3.511 -1.5032  0.1071 -0.6099
19932TIP3    H281212   3.394   2.909   3.593 -1.1644 -1.0216  1.0875
19933TIP3   OH281213   0.294   4.636   3.890 -0.0023 -0.3900  1.2547
19933TIP3    H181214   0.201   4.620   3.876  0.0431 -0.0061  0.4814
19933TIP3    H281215   0.314   4.710   3.833  0.8153 -0.5753  1.2981
19934TIP3   OH281216   4.964   0.971   3.000 -0.0431 -0.7020 -0.0521
19934TIP3    H181217   4.949   0.950   3.092 -0.7616 -1.8624 -0.4148
19934TIP3    H281218   5.002   1.058   3.001 -0.5605 -0.4766  1.3138
19935TIP3   OH281219   7.050   1.619   1.914 -0.3677  0.2651  0.0093
19935TIP3    H181220   6.999   1.682   1.966 -1.0849  0.4067 -0.8564
19935TIP3    H281221   7.042   1.537   1.962  0.0262  0.6830  0.7991
19936TIP3   OH281222   6.979   6.284   5.172  0.0970  0.3610  0.2710
19936TIP3    H181223   6.973   6.225   5.098 -1.8226  1.0631 -0.1565
19936TIP3    H281224   7.042   6.242   5.231 -0.9973 -1.9397 -0.1475
19937TIP3   OH281225   5.284   4.518   6.239  0.5943 -0.0541 -0.2392
19937TIP3    H181226   5.306   4.596   6.290  0.0238 -0.7581  1.0999
19937TIP3    H281227   5.203   4.541   6.193  1.0373  0.5325 -0.7301
19938TIP3   OH281228   6.372   6.427   4.306 -0.0627  0.3891  0.3028
19938TIP3    H181229   6.335   6.515   4.290  0.7732  0.6279 -0.3812
19938TIP3    H281230   6.306   6.367   4.271  0.3518  0.8293 -1.3077
19939TIP3   OH281231   6.724   4.113   6.063  0.4991 -0.6555 -0.1363
19939TIP3    H181232   6.676   4.030   6.066 -0.6570  0.0053 -0.0395
19939TIP3    H281233   6.816   4.087   6.059  0.0906 -1.9621 -1.7155
19940TIP3   OH281234   3.330   3.284   4.594 -0.2385 -0.3295 -0.6467
19940TIP3    H181235   3.343   3.367   4.547  2.1243 -1.0603 -1.3287
19940TIP3    H281236   3.255   3.301   4.651  2.8703  3.7800  2.5598
19941TIP3   OH281237   6.250   5.769   6.169 -0.1355  0.1865  0.0722
19941TIP3    H181238   6.250   5.808   6.256 -1.0300 -1.2193  0.7078
19941TIP3    H281239   6.163   5.790   6.133 -0.1013 -0.0182 -0.1324
19942TIP3   OH281240   0.200   6.310   4.796 -0.1530 -0.3247  0.5782
19942TIP3    H181241   0.233   6.290   4.884  0.6082 -0.2927  0.2976
19942TIP3    H281242   0.132   6.244   4.782  0.4902 -1.0321  0.7449
19943TIP3   OH281243   1.568   0.382   6.601  0.9702 -1.2507 -0.6893
19943TIP3    H181244   1.522   0.463   6.580  2.1734 -0.9703 -2.3739
19943TIP3    H281245   1.499   0.315   6.604  0.1627 -0.4354 -0.8192
19944TIP3   OH281246   6.832   5.895   1.935  0.1670  0.0008  0.1433
19944TIP3    H181247   6.803   5.981   1.902  1.1689 -0.1762 -1.2538
19944TIP3    H281248   6.878   5.915   2.016 -1.3732  0.5718  0.8963
19945TIP3   OH281249   6.876   6.843   5.346 -0.4141 -0.0542  0.1201
19945TIP3    H181250   6.896   6.760   5.302 -0.8088 -0.0686 -0.0341
19945TIP3    H281251   6.822   6.817   5.421  0.2408 -0.0272  0.6028
19946TIP3   OH281252   0.386   6.763   5.894  0.0212 -0.2414  0.5891
19946TIP3    H181253   0.370   6.849   5.855 -2.1865 -1.2683 -0.8184
19946TIP3    H281254   0.350   6.770   5.982 -1.2459 -0.1042  0.0620
19947TIP3   OH281255   1.884   0.379   5.514 -1.0350  0.0440 -0.1155
19947TIP3    H181256   1.861   0.294   5.477 -1.2492 -0.9894  2.3403
19947TIP3    H281257   1.866   0.441   5.443  2.2618 -2.2315 -3.1073
19948TIP3   OH281258   1.179   3.730   4.125  0.3357  0.3306 -0.4386
19948TIP3    H181259   1.118   3.776   4.068 -1.1175 -1.7556 -0.6455
19948TIP3    H281260   1.265   3.753   4.092 -0.2670  3.8931  0.2933
19949TIP3   OH281261   2.423   4.436   5.894  0.3043 -0.6853  0.1952
19949TIP3    H181262   2.345   4.423   5.839 -0.0071 -0.3533  0.5484
19949TIP3    H281263   2.492   4.385   5.851 -0.1020 -0.9604 -0.1369
19950TIP3   OH281264   1.319   6.586   5.771  0.2123  0.3090 -0.4612
19950TIP3    H181265   1.244   6.580   5.830 -0.5534 -0.6857 -1.5025
19950TIP3    H281266   1.372   6.658   5.806 -0.2240 -0.2676  1.4138
19951TIP3   OH281267   2.400   5.573   5.563  0.0848 -0.0920 -0.2013
19951TIP3    H181268   2.350   5.493   5.549  0.3446 -0.0006 -1.8324
19951TIP3    H281269   2.361   5.636   5.501 -0.1467  1.0511  1.0827
19952TIP3   OH281270   7.125   2.404   6.095  0.1915 -0.1551  0.8916
19952TIP3    H181271   7.214   2.371   6.100  0.8673  1.5180  0.3797
19952TIP3    H281272   7.134   2.499   6.100 -1.6942 -0.0121  2.5936
19953TIP3   OH281273   0.245   0.093   4.978 -0.2349 -0.6192  0.5337
19953TIP3    H181274   0.286   0.038   5.045 -0.2635  0.7231  1.6716
19953TIP3    H281275   0.155   0.104   5.008  0.4170  2.0505  1.6051
19954TIP3   OH281276   0.321   5.525   5.912 -0.5119 -0.2112  0.7042
19954TIP3    H181277   0.246   5.467   5.926 -0.2745 -0.1076  2.5910
19954TIP3    H281278   0.310   5.594   5.977  0.4443  0.6096  0.0063
19955TIP3   OH281279   2.797   5.750   4.449  0.1097  0.4747  0.5329
19955TIP3    H181280   2.746   5.675   4.479  0.6669  0.0047  0.3147
19955TIP3    H281281   2.734   5.822   4.442 -0.7034 -0.3492 -0.6699
19956TIP3   OH281282   0.270   2.848   4.032 -0.1975  0.1360  0.3459
19956TIP3    H181283   0.358   2.868   4.000  0.3009 -2.2636  0.1448
19956TIP3    H281284   0.284   2.807   4.117 -1.0136 -1.2710 -0.1672
19957TIP3   OH281285   0.165   4.949   5.247  0.2586 -0.2732 -0.2822
19957TIP3    H181286   0.101   4.900   5.297 -0.4438 -0.1080 -1.0071
19957TIP3    H281287   0.225   4.882   5.212 -1.2357 -0.7487 -2.0476
19958TIP3   OH281288   2.936   7.052   5.780  0.1931  0.2255 -0.2320
19958TIP3    H181289   3.012   6.999   5.805  1.3135  0.5892 -2.7248
19958TIP3    H281290   2.956   7.140   5.813  1.0764  0.4286 -1.3038
19959TIP3   OH281291   2.981   0.211   5.175  0.3572 -0.0064 -0.1428
19959TIP3    H181292   2.920   0.278   5.205  0.8676  0.5797 -0.4124
19959TIP3    H281293   2.950   0.130   5.216  0.0884  0.4989  0.6478
19960TIP3   OH281294   2.790   6.519   2.505  0.5303 -0.3814  0.3540
19960TIP3    H181295   2.866   6.568   2.474  1.1050 -2.0170 -0.8867
19960TIP3    H281296   2.808   6.428   2.482 -1.5085 -0.8966  0.6360
19961TIP3   OH281297   5.072   0.890   5.642 -0.4036  0.1116 -0.4393
19961TIP3    H181298   4.979   0.909   5.637 -0.6647 -0.6676  1.1769
19961TIP3    H281299   5.081   0.833   5.718  1.2792 -0.5323 -1.0973
19962TIP3   OH281300   3.717   7.267   6.022 -0.2506 -0.4512  0.1126
19962TIP3    H181301   3.773   7.220   6.083  0.0362  0.6764  0.7259
19962TIP3    H281302   3.659   7.200   5.986  0.7881 -1.4389  0.2542
19963TIP3   OH281303   2.128   6.482   4.739 -0.0439 -0.1151  0.4374
19963TIP3    H181304   2.206   6.525   4.702  0.1412 -0.4103  0.4813
19963TIP3    H281305   2.075   6.460   4.662 -0.1999  0.3074  0.4228
19964TIP3   OH281306   2.204   6.672   5.888 -0.5956 -0.0944 -0.0557
19964TIP3    H181307   2.246   6.617   5.822 -0.4248 -1.8985  1.4917
19964TIP3    H281308   2.226   6.629   5.971 -2.5488  0.9360  1.0101
19965TIP3   OH281309   0.759   5.234   3.589 -0.2873 -0.3632 -0.0886
19965TIP3    H181310   0.776   5.309   3.647 -1.4790 -0.6236  0.5960
19965TIP3    H281311   0.818   5.166   3.621  0.6653  0.2025 -0.5925
19966TIP3   OH281312   2.637   6.408   5.519  0.3587 -0.5194 -0.0717
19966TIP3    H181313   2.630   6.327   5.569 -0.0341 -0.0449  0.6521
19966TIP3    H281314   2.548   6.429   5.494  0.0772  1.1859  2.1751
19967TIP3   OH281315   3.197   0.227   5.645 -0.1058 -0.1380  0.4225
19967TIP3    H181316   3.111   0.262   5.668 -0.7243 -0.4179 -1.3422
19967TIP3    H281317   3.223   0.276   5.567  1.3381 -0.0586  0.9409
19968TIP3   OH281318   0.856   1.202   5.661 -0.2662  0.3935  0.1320
19968TIP3    H181319   0.822   1.127   5.711  1.3998 -1.3237 -1.2276
19968TIP3    H281320   0.915   1.245   5.722  1.3598 -1.3990 -0.1099
19969TIP3   OH281321   3.393   4.704   4.786  0.4479  0.4957 -0.1887
19969TIP3    H181322   3.436   4.681   4.868 -1.6879  0.0417  0.8282
19969TIP3    H281323   3.464   4.737   4.731  1.9481  0.6170  1.7507
19970TIP3   OH281324   0.449   5.695   5.615 -0.3085  0.2046 -0.2464
19970TIP3    H181325   0.377   5.666   5.558  0.1658  2.4546 -2.0648
19970TIP3    H281326   0.407   5.750   5.680 -0.6863 -1.3529  0.8433
19971TIP3   OH281327   5.354   4.805   6.319 -0.5984  0.4862  0.0492
19971TIP3    H181328   5.298   4.879   6.343  0.2869  0.9673  0.6418
19971TIP3    H281329   5.443   4.835   6.336 -0.2527 -0.8606  0.7361
19972TIP3   OH281330   6.153   3.766   5.242 -0.3322  0.0896  0.4121
19972TIP3    H181331   6.131   3.857   5.258  1.8906  0.6508  0.4807
19972TIP3    H281332   6.102   3.742   5.165 -1.6019  1.1119  0.9115
19973TIP3   OH281333   1.583   5.079   6.567 -0.4272  0.5433 -0.0899
19973TIP3    H181334   1.510   5.088   6.506 -1.0247  0.6215  0.6310
19973TIP3    H281335   1.657   5.054   6.512 -1.3641 -1.1333 -0.6290
19974TIP3   OH281336   7.267   6.835   5.296 -0.5068  0.1384  0.3149
19974TIP3    H181337   7.210   6.896   5.342 -1.0879  0.7485 -1.1841
19974TIP3    H281338   7.211   6.797   5.228  0.6336  0.0677 -0.5921
19975TIP3   OH281339   3.876   0.024   5.484  0.2787 -0.1020 -0.0513
19975TIP3    H181340   3.867  -0.015   5.571  3.7151 -0.7884  0.0394
19975TIP3    H281341   3.850  -0.046   5.423 -1.0918  0.0421  0.3386
19976TIP3   OH281342   5.141   4.540   5.022  0.0314  0.3750  0.1754
19976TIP3    H181343   5.068   4.483   5.048 -0.2571 -0.0686 -1.5083
19976TIP3    H281344   5.127   4.621   5.071  0.1807 -0.8285  2.2642
19977TIP3   OH281345   4.556   5.389   5.582 -0.0569  0.0855  0.4392
19977TIP3    H181346   4.475   5.378   5.534 -0.4389  2.3054  0.5251
19977TIP3    H281347   4.606   5.453   5.531  1.1250 -0.3728  1.0031
19978TIP3   OH281348   5.655   6.127   5.800 -0.1390  0.5413  0.4448
19978TIP3    H181349   5.625   6.052   5.748 -0.7977  0.8637  0.3654
19978TIP3    H281350   5.730   6.093   5.848  0.3780  0.1841 -0.5835
19979TIP3   OH281351   6.205   6.235   5.511  0.2816 -0.5586 -0.0012
19979TIP3    H181352   6.284   6.189   5.481  0.1909 -1.4833  1.1099
19979TIP3    H281353   6.142   6.223   5.440  0.7900 -0.7364 -0.4316
19980TIP3   OH281354   6.350   6.120   4.796  0.5493 -0.0105  0.4055
19980TIP3    H181355   6.370   6.121   4.702 -0.8447 -0.0746  0.1013
19980TIP3    H281356   6.379   6.206   4.828  0.1299  0.3849 -0.2743
19981TIP3   OH281357   4.961   5.801   5.497 -0.0086  0.1340 -0.0600
19981TIP3    H181358   4.955   5.892   5.467  0.2474 -0.2023 -1.1544
19981TIP3    H281359   4.977   5.808   5.591  0.0818  1.2235 -0.1488
19982TIP3   OH281360   4.587   6.282   5.742 -0.3678 -0.1349 -0.0107
19982TIP3    H181361   4.552   6.232   5.668 -0.1977  0.6168 -0.6033
19982TIP3    H281362   4.682   6.269   5.736 -0.4697 -1.6178  1.1962
19983TIP3   OH281363   4.412   6.557   6.140 -0.2039  0.2276  0.1611
19983TIP3    H181364   4.436   6.469   6.112 -1.2471 -0.2909  0.8231
19983TIP3    H281365   4.411   6.609   6.060 -0.1739 -0.5096 -0.3221
19984TIP3   OH281366   6.452   2.412   3.998 -0.3016  0.4222 -0.3948
19984TIP3    H181367   6.475   2.321   4.018  0.9091  1.1612  1.8096
19984TIP3    H281368   6.398   2.407   3.919  0.2125 -2.1518 -0.6248
19985TIP3   OH281369   7.132   0.101   5.864 -0.7894 -0.7706  0.2137
19985TIP3    H181370   7.039   0.120   5.850 -1.0875 -1.2516  1.4906
19985TIP3    H281371   7.173   0.186   5.877 -1.1696 -0.6089  0.3535
19986TIP3   OH281372   7.094   6.682   5.148  0.0774  1.3653 -0.1334
19986TIP3    H181373   7.140   6.630   5.081  0.9898  2.3480 -0.2835
19986TIP3    H281374   7.003   6.682   5.119  0.0230 -0.2953 -0.0399
19987TIP3   OH281375   0.272   6.609   5.617  0.0204 -0.4061  0.1652
19987TIP3    H181376   0.269   6.632   5.524  1.9500  1.8366  0.6016
19987TIP3    H281377   0.363   6.581   5.632 -0.1719 -0.3664  1.4453
19988TIP3   OH281378   6.194   5.913   4.933  0.9093 -0.4436  0.0936
19988TIP3    H181379   6.180   6.002   4.900  1.9618 -1.0428 -2.0985
19988TIP3    H281380   6.257   5.875   4.871  0.2449 -2.8061  0.8375
19989TIP3   OH281381   0.824   4.254   2.154  0.0981  0.7980  0.3968
19989TIP3    H181382   0.843   4.166   2.122  0.8234  1.3735 -0.7566
19989TIP3    H281383   0.825   4.246   2.250 -1.3756 -0.7731  0.3047
19990TIP3   OH281384   6.124   6.896   4.712  0.5483 -0.0147  0.0483
19990TIP3    H181385   6.136   6.990   4.725 -0.0873  0.1421 -0.4548
19990TIP3    H281386   6.108   6.886   4.618 -1.0267 -0.4337  0.3481
19991TIP3   OH281387   0.333   0.506   4.669 -0.3935  0.4600  0.2487
19991TIP3    H181388   0.407   0.482   4.613 -0.6324  0.6047 -0.1264
19991TIP3    H281389   0.350   0.459   4.751  0.2533  0.7081  0.2615
19992TIP3   OH281390   6.219   6.918   2.468  0.1358  0.4857 -0.3927
19992TIP3    H181391   6.250   6.837   2.427  0.1713  0.3687 -0.1372
19992TIP3    H281392   6.174   6.889   2.548  1.1334  0.7858  0.2877
19993TIP3   OH281393   0.406   0.673   4.975  0.1735 -0.3162  0.0091
19993TIP3    H181394   0.356   0.659   5.056  2.3009  3.0429  1.9781
19993TIP3    H281395   0.487   0.624   4.988 -0.1546 -1.0767 -0.7808
19994TIP3   OH281396   6.247   6.770   6.068  0.1689  0.5492 -0.3328
19994TIP3    H181397   6.196   6.823   6.130  0.4364  1.9871 -1.3213
19994TIP3    H281398   6.182   6.729   6.012 -0.1176 -1.3021  1.2836
19995TIP3   OH281399   5.515   7.040   5.802 -0.3314  0.0466 -0.2386
19995TIP3    H181400   5.540   7.005   5.716 -0.4464 -1.2555  0.2483
19995TIP3    H281401   5.438   6.989   5.826  0.8296 -0.9485  1.4945
19996TIP3   OH281402   6.632   6.396   4.398  0.1485 -0.0953 -0.3339
19996TIP3    H181403   6.642   6.477   4.448  0.2595 -1.2666  1.5970
19996TIP3    H281404   6.546   6.403   4.358  0.2861  1.1177 -0.4433
   7.30356   7.30356  16.00000
